
                                 *****************
                                 * O   R   C   A *
                                 *****************

                                            #,                                       
                                            ###                                      
                                            ####                                     
                                            #####                                    
                                            ######                                   
                                           ########,                                 
                                     ,,################,,,,,                         
                               ,,#################################,,                 
                          ,,##########################################,,             
                       ,#########################################, ''#####,          
                    ,#############################################,,   '####,        
                  ,##################################################,,,,####,       
                ,###########''''           ''''###############################       
              ,#####''   ,,,,##########,,,,          '''####'''          '####       
            ,##' ,,,,###########################,,,                        '##       
           ' ,,###''''                  '''############,,,                           
         ,,##''                                '''############,,,,        ,,,,,,###''
      ,#''                                            '''#######################'''  
     '                                                          ''''####''''         
             ,#######,   #######,   ,#######,      ##                                
            ,#'     '#,  ##    ##  ,#'     '#,    #''#        ######   ,####,        
            ##       ##  ##   ,#'  ##            #'  '#       #        #'  '#        
            ##       ##  #######   ##           ,######,      #####,   #    #        
            '#,     ,#'  ##    ##  '#,     ,#' ,#      #,         ##   #,  ,#        
             '#######'   ##     ##  '#######'  #'      '#     #####' # '####'        



                  #######################################################
                  #                        -***-                        #
                  #          Department of theory and spectroscopy      #
                  #    Directorship and core code : Frank Neese         #
                  #        Max Planck Institute fuer Kohlenforschung    #
                  #                Kaiser Wilhelm Platz 1               #
                  #                 D-45470 Muelheim/Ruhr               #
                  #                      Germany                        #
                  #                                                     #
                  #                  All rights reserved                #
                  #                        -***-                        #
                  #######################################################


                         Program Version 5.0.4 -  RELEASE  -


 With contributions from (in alphabetic order):
   Daniel Aravena         : Magnetic Suceptibility
   Michael Atanasov       : Ab Initio Ligand Field Theory (pilot matlab implementation)
   Alexander A. Auer      : GIAO ZORA, VPT2 properties, NMR spectrum
   Ute Becker             : Parallelization
   Giovanni Bistoni       : ED, misc. LED, open-shell LED, HFLD
   Martin Brehm           : Molecular dynamics
   Dmytro Bykov           : SCF Hessian
   Vijay G. Chilkuri      : MRCI spin determinant printing, contributions to CSF-ICE
   Dipayan Datta          : RHF DLPNO-CCSD density
   Achintya Kumar Dutta   : EOM-CC, STEOM-CC
   Dmitry Ganyushin       : Spin-Orbit,Spin-Spin,Magnetic field MRCI
   Miquel Garcia          : C-PCM and meta-GGA Hessian, CC/C-PCM, Gaussian charge scheme
   Yang Guo               : DLPNO-NEVPT2, F12-NEVPT2, CIM, IAO-localization
   Andreas Hansen         : Spin unrestricted coupled pair/coupled cluster methods
   Benjamin Helmich-Paris : MC-RPA, TRAH-SCF, COSX integrals
   Lee Huntington         : MR-EOM, pCC
   Robert Izsak           : Overlap fitted RIJCOSX, COSX-SCS-MP3, EOM
   Marcus Kettner         : VPT2
   Christian Kollmar      : KDIIS, OOCD, Brueckner-CCSD(T), CCSD density, CASPT2, CASPT2-K
   Simone Kossmann        : Meta GGA functionals, TD-DFT gradient, OOMP2, MP2 Hessian
   Martin Krupicka        : Initial AUTO-CI
   Lucas Lang             : DCDCAS
   Marvin Lechner         : AUTO-CI (C++ implementation), FIC-MRCC
   Dagmar Lenk            : GEPOL surface, SMD
   Dimitrios Liakos       : Extrapolation schemes; Compound Job, initial MDCI parallelization
   Dimitrios Manganas     : Further ROCIS development; embedding schemes
   Dimitrios Pantazis     : SARC Basis sets
   Anastasios Papadopoulos: AUTO-CI, single reference methods and gradients
   Taras Petrenko         : DFT Hessian,TD-DFT gradient, ASA, ECA, R-Raman, ABS, FL, XAS/XES, NRVS
   Peter Pinski           : DLPNO-MP2, DLPNO-MP2 Gradient
   Christoph Reimann      : Effective Core Potentials
   Marius Retegan         : Local ZFS, SOC
   Christoph Riplinger    : Optimizer, TS searches, QM/MM, DLPNO-CCSD(T), (RO)-DLPNO pert. Triples
   Tobias Risthaus        : Range-separated hybrids, TD-DFT gradient, RPA, STAB
   Michael Roemelt        : Original ROCIS implementation
   Masaaki Saitow         : Open-shell DLPNO-CCSD energy and density
   Barbara Sandhoefer     : DKH picture change effects
   Avijit Sen             : IP-ROCIS
   Kantharuban Sivalingam : CASSCF convergence, NEVPT2, FIC-MRCI
   Bernardo de Souza      : ESD, SOC TD-DFT
   Georgi Stoychev        : AutoAux, RI-MP2 NMR, DLPNO-MP2 response
   Willem Van den Heuvel  : Paramagnetic NMR
   Boris Wezisla          : Elementary symmetry handling
   Frank Wennmohs         : Technical directorship


 We gratefully acknowledge several colleagues who have allowed us to
 interface, adapt or use parts of their codes:
   Stefan Grimme, W. Hujo, H. Kruse, P. Pracht,  : VdW corrections, initial TS optimization,
                  C. Bannwarth, S. Ehlert          DFT functionals, gCP, sTDA/sTD-DF
   Ed Valeev, F. Pavosevic, A. Kumar             : LibInt (2-el integral package), F12 methods
   Garnet Chan, S. Sharma, J. Yang, R. Olivares  : DMRG
   Ulf Ekstrom                                   : XCFun DFT Library
   Mihaly Kallay                                 : mrcc  (arbitrary order and MRCC methods)
   Jiri Pittner, Ondrej Demel                    : Mk-CCSD
   Frank Weinhold                                : gennbo (NPA and NBO analysis)
   Christopher J. Cramer and Donald G. Truhlar   : smd solvation model
   Lars Goerigk                                  : TD-DFT with DH, B97 family of functionals
   V. Asgeirsson, H. Jonsson                     : NEB implementation
   FAccTs GmbH                                   : IRC, NEB, NEB-TS, DLPNO-Multilevel, CI-OPT
                                                   MM, QMMM, 2- and 3-layer-ONIOM, Crystal-QMMM,
                                                   LR-CPCM, SF, NACMEs, symmetry and pop. for TD-DFT,
                                                   nearIR, NL-DFT gradient (VV10), updates on ESD,
                                                   ML-optimized integration grids
   S Lehtola, MJT Oliveira, MAL Marques          : LibXC Library
   Liviu Ungur et al                             : ANISO software


 Your calculation uses the libint2 library for the computation of 2-el integrals
 For citations please refer to: http://libint.valeyev.net

 Your ORCA version has been built with support for libXC version: 5.1.0
 For citations please refer to: https://tddft.org/programs/libxc/

 This ORCA versions uses:
   CBLAS   interface :  Fast vector & matrix operations
   LAPACKE interface :  Fast linear algebra routines
   SCALAPACK package :  Parallel linear algebra routines
   Shared memory     :  Shared parallel matrices
   BLAS/LAPACK       :  OpenBLAS 0.3.15  USE64BITINT DYNAMIC_ARCH NO_AFFINITY Sandybridge SINGLE_THREADED
        Core in use  :  Sandybridge
   Copyright (c) 2011-2014, The OpenBLAS Project


================================================================================

----- Orbital basis set information -----
Your calculation utilizes the basis: cc-pVDZ 
       H, B-Ne : Obtained from the ccRepo (grant-hill.group.shef.ac.uk/ccrepo) Feb. 2017
                 T. H. Dunning, Jr., J. Chem. Phys. 90, 1007 (1989)
            He : Obtained from the ccRepo (grant-hill.group.shef.ac.uk/ccrepo) Feb. 2017
                 D. E. Woon, T. H. Dunning, Jr., J. Chem. Phys. 100, 2975 (1994)
  Li-Be, Na-Mg : Obtained from the ccRepo (grant-hill.group.shef.ac.uk/ccrepo) Feb. 2017
                 B. P. Prascher, D. E. Woon, K. A. Peterson, T. H. Dunning, Jr., A. K. Wilson, Theor. Chem. Acc. 128, 69 (2011)
         Al-Ar : Obtained from the ccRepo (grant-hill.group.shef.ac.uk/ccrepo) Feb. 2017
                 D. E. Woon, T. H. Dunning, Jr., J. Chem. Phys. 98, 1358 (1993)
            Ca : Obtained from the Peterson Research Group Website (tyr0.chem.wsu.edu/~kipeters) Feb. 2017
                 J. Koput, K. A. Peterson, J. Phys. Chem. 106, 9595 (2002)
         Sc-Zn : Obtained from the ccRepo (grant-hill.group.shef.ac.uk/ccrepo) Feb. 2017
                 N. B. Balabanov, K. A. Peterson, J. Chem. Phys. 123, 064107 (2005)
                 N. B. Balabanov, K. A. Peterson, J. Chem. Phys. 125, 074110 (2006)
         Ga-Kr : Obtained from the ccRepo (grant-hill.group.shef.ac.uk/ccrepo) Feb. 2017
                 A. K. Wilson, D. E. Woon, K. A. Peterson, T. H. Dunning, Jr., J. Chem. Phys. 110, 7667 (1999)

================================================================================
                                        WARNINGS
                       Please study these warnings very carefully!
================================================================================


WARNING: No MP2 level density has been requested!
         To caclulate MP2 level properties use
         %mp2 Density relaxed end
         or
         %mp2 Density unrelaxed end

WARNING: Post HF methods need fully converged wavefunctions
  ===> : Setting SCFConvForced true
         You can overwrite this default with %scf ConvForced false 


INFO   : the flag for use of the SHARK integral package has been found!

================================================================================
                                       INPUT FILE
================================================================================
NAME = /scratch/allen/tmpyp4_amber_gaff2/2.Mdgx/conf11/conf11/Conf356.orca
|  1> ! PAL2
|  2> ! mp2 cc-pvdz TightSCF  NoKeepInts
|  3> 
|  4> %scf
|  5>   MaxCore 2000
|  6> end
|  7> %mp2
|  8>   MaxCore 2000
|  9> end
| 10> * xyz 0 1
| 11>    C       -3.04000         6.48800         0.22900
| 12>    C        1.47400         4.04100         0.05700
| 13>    C       -2.80200         4.09300         0.04900
| 14>    C       -4.19800         4.01500        -0.07200
| 15>    C       -4.96200         5.16400        -0.04100
| 16>    C       -5.22600         7.59300         0.10100
| 17>    C        0.13200         4.30700         0.06100
| 18>    C       -0.56900         3.05600         0.04700
| 19>    C        1.64900         2.61800         0.02300
| 20>    C       -2.23300         5.36700         0.19800
| 21>    N       -4.38200         6.37800         0.11100
| 22>    N        0.38800         2.06700         0.02500
| 23>    N       -2.01000         0.39500        -0.07500
| 24>    N       -0.38800        -2.07400        -0.02700
| 25>    N        2.01000        -0.40100         0.06500
| 26>    C       -1.96000         2.86100         0.02400
| 27>    C       -2.62300         1.61500        -0.01800
| 28>    C       -5.57300        -4.32900         1.06600
| 29>    C       -4.07300         1.47100         0.05600
| 30>    C       -4.10600        -2.75600        -0.02600
| 31>    C       -4.99500        -2.75700        -1.11100
| 32>    C       -6.13200        -3.54200        -1.07600
| 33>    C       -7.65100        -5.11300         0.04000
| 34>    C       -4.32400         0.14100         0.03700
| 35>    C       -3.02500        -0.52000        -0.04800
| 36>    C       -4.42200        -3.56600         1.07500
| 37>    N       -6.40700        -4.31300         0.00100
| 38>    C       -2.86700        -1.92200        -0.04000
| 39>    C       -1.65000        -2.62400        -0.02700
| 40>    C        3.56800        -6.14200        -1.04000
| 41>    C       -1.47600        -4.04900        -0.03400
| 42>    C        2.80300        -4.09900        -0.00800
| 43>    C        3.65700        -4.38400         1.06900
| 44>    C        4.42700        -5.53000         1.05900
| 45>    C        5.24500        -7.58800         0.01400
| 46>    C       -0.13400        -4.31500        -0.02200
| 47>    C        0.56800        -3.06400        -0.02700
| 48>    C        2.77500        -5.01200        -1.07400
| 49>    N        4.37600        -6.39100         0.01700
| 50>    C        1.95900        -2.86900        -0.00900
| 51>    C        2.62100        -1.62200         0.00900
| 52>    C        5.54300         4.33900        -1.13000
| 53>    C        4.07000        -1.47900        -0.09400
| 54>    C        4.10400         2.75100        -0.02100
| 55>    C        5.02700         2.72900         1.03600
| 56>    C        6.16600         3.50900         0.97800
| 57>    C        7.61900         5.15300        -0.11500
| 58>    C        4.32100        -0.14800        -0.09200
| 59>    C        3.02500         0.51400         0.01500
| 60>    C        4.38700         3.58200        -1.11500
| 61>    C        2.86600         1.91600         0.01300
| 62>    N        6.41300         4.29600        -0.09500
| 63>    H       -2.64500         7.48900         0.35400
| 64>    H        2.27400         4.76600         0.08100
| 65>    H       -4.69600         3.06100        -0.19900
| 66>    H       -6.04000         5.15500        -0.13900
| 67>    H       -5.37900         7.91200        -0.93300
| 68>    H       -6.18300         7.36000         0.56700
| 69>    H       -4.71800         8.37700         0.66200
| 70>    H       -0.33200         5.28200         0.06900
| 71>    H       -1.16200         5.49200         0.31100
| 72>    H        0.18200         1.07200         0.00500
| 73>    H       -0.18300        -1.08000        -0.02100
| 74>    H       -5.86400        -4.96200         1.89500
| 75>    H       -4.79400         2.27200         0.13900
| 76>    H       -4.80000        -2.16000        -1.99400
| 77>    H       -6.84100        -3.58200        -1.89300
| 78>    H       -8.42800        -4.53600         0.54600
| 79>    H       -7.95600        -5.33700        -0.98100
| 80>    H       -7.45600        -6.03700         0.58400
| 81>    H       -5.28700        -0.34400         0.10000
| 82>    H       -3.78000        -3.60100         1.94700
| 83>    H        3.58700        -6.86800        -1.84300
| 84>    H       -2.27600        -4.77400        -0.05000
| 85>    H        3.71400        -3.72400         1.92600
| 86>    H        5.09200        -5.79500         1.87100
| 87>    H        6.20500        -7.32900        -0.43900
| 88>    H        5.39300        -7.91700         1.04200
| 89>    H        4.75900        -8.37300        -0.56400
| 90>    H        0.32900        -5.29000        -0.00800
| 91>    H        2.14600        -4.84200        -1.94000
| 92>    H        5.80800         4.98600        -1.95600
| 93>    H        4.78800        -2.28100        -0.18500
| 94>    H        4.86000         2.11400         1.91200
| 95>    H        6.90100         3.53100         1.77200
| 96>    H        7.38300         6.10900         0.35600
| 97>    H        8.41400         4.65200         0.43500
| 98>    H        7.92100         5.31000        -1.15000
| 99>    H        5.28300         0.33600        -0.17900
|100>    H        3.72000         3.63200        -1.96700
|101> *
|102> 
|103>                          ****END OF INPUT****
================================================================================

                       ****************************
                       * Single Point Calculation *
                       ****************************

---------------------------------
CARTESIAN COORDINATES (ANGSTROEM)
---------------------------------
  C     -3.040000    6.488000    0.229000
  C      1.474000    4.041000    0.057000
  C     -2.802000    4.093000    0.049000
  C     -4.198000    4.015000   -0.072000
  C     -4.962000    5.164000   -0.041000
  C     -5.226000    7.593000    0.101000
  C      0.132000    4.307000    0.061000
  C     -0.569000    3.056000    0.047000
  C      1.649000    2.618000    0.023000
  C     -2.233000    5.367000    0.198000
  N     -4.382000    6.378000    0.111000
  N      0.388000    2.067000    0.025000
  N     -2.010000    0.395000   -0.075000
  N     -0.388000   -2.074000   -0.027000
  N      2.010000   -0.401000    0.065000
  C     -1.960000    2.861000    0.024000
  C     -2.623000    1.615000   -0.018000
  C     -5.573000   -4.329000    1.066000
  C     -4.073000    1.471000    0.056000
  C     -4.106000   -2.756000   -0.026000
  C     -4.995000   -2.757000   -1.111000
  C     -6.132000   -3.542000   -1.076000
  C     -7.651000   -5.113000    0.040000
  C     -4.324000    0.141000    0.037000
  C     -3.025000   -0.520000   -0.048000
  C     -4.422000   -3.566000    1.075000
  N     -6.407000   -4.313000    0.001000
  C     -2.867000   -1.922000   -0.040000
  C     -1.650000   -2.624000   -0.027000
  C      3.568000   -6.142000   -1.040000
  C     -1.476000   -4.049000   -0.034000
  C      2.803000   -4.099000   -0.008000
  C      3.657000   -4.384000    1.069000
  C      4.427000   -5.530000    1.059000
  C      5.245000   -7.588000    0.014000
  C     -0.134000   -4.315000   -0.022000
  C      0.568000   -3.064000   -0.027000
  C      2.775000   -5.012000   -1.074000
  N      4.376000   -6.391000    0.017000
  C      1.959000   -2.869000   -0.009000
  C      2.621000   -1.622000    0.009000
  C      5.543000    4.339000   -1.130000
  C      4.070000   -1.479000   -0.094000
  C      4.104000    2.751000   -0.021000
  C      5.027000    2.729000    1.036000
  C      6.166000    3.509000    0.978000
  C      7.619000    5.153000   -0.115000
  C      4.321000   -0.148000   -0.092000
  C      3.025000    0.514000    0.015000
  C      4.387000    3.582000   -1.115000
  C      2.866000    1.916000    0.013000
  N      6.413000    4.296000   -0.095000
  H     -2.645000    7.489000    0.354000
  H      2.274000    4.766000    0.081000
  H     -4.696000    3.061000   -0.199000
  H     -6.040000    5.155000   -0.139000
  H     -5.379000    7.912000   -0.933000
  H     -6.183000    7.360000    0.567000
  H     -4.718000    8.377000    0.662000
  H     -0.332000    5.282000    0.069000
  H     -1.162000    5.492000    0.311000
  H      0.182000    1.072000    0.005000
  H     -0.183000   -1.080000   -0.021000
  H     -5.864000   -4.962000    1.895000
  H     -4.794000    2.272000    0.139000
  H     -4.800000   -2.160000   -1.994000
  H     -6.841000   -3.582000   -1.893000
  H     -8.428000   -4.536000    0.546000
  H     -7.956000   -5.337000   -0.981000
  H     -7.456000   -6.037000    0.584000
  H     -5.287000   -0.344000    0.100000
  H     -3.780000   -3.601000    1.947000
  H      3.587000   -6.868000   -1.843000
  H     -2.276000   -4.774000   -0.050000
  H      3.714000   -3.724000    1.926000
  H      5.092000   -5.795000    1.871000
  H      6.205000   -7.329000   -0.439000
  H      5.393000   -7.917000    1.042000
  H      4.759000   -8.373000   -0.564000
  H      0.329000   -5.290000   -0.008000
  H      2.146000   -4.842000   -1.940000
  H      5.808000    4.986000   -1.956000
  H      4.788000   -2.281000   -0.185000
  H      4.860000    2.114000    1.912000
  H      6.901000    3.531000    1.772000
  H      7.383000    6.109000    0.356000
  H      8.414000    4.652000    0.435000
  H      7.921000    5.310000   -1.150000
  H      5.283000    0.336000   -0.179000
  H      3.720000    3.632000   -1.967000

----------------------------
CARTESIAN COORDINATES (A.U.)
----------------------------
  NO LB      ZA    FRAG     MASS         X           Y           Z
   0 C     6.0000    0    12.011   -5.744767   12.260543    0.432747
   1 C     6.0000    0    12.011    2.785456    7.636383    0.107714
   2 C     6.0000    0    12.011   -5.295013    7.734649    0.092597
   3 C     6.0000    0    12.011   -7.933070    7.587250   -0.136060
   4 C     6.0000    0    12.011   -9.376821    9.758546   -0.077479
   5 C     6.0000    0    12.011   -9.875709   14.348691    0.190862
   6 C     6.0000    0    12.011    0.249444    8.139050    0.115273
   7 C     6.0000    0    12.011   -1.075254    5.775003    0.088817
   8 C     6.0000    0    12.011    3.116158    4.947303    0.043464
   9 C     6.0000    0    12.011   -4.219758   10.142160    0.374166
  10 N     7.0000    0    14.007   -8.280780   12.052673    0.209760
  11 N     7.0000    0    14.007    0.733214    3.906064    0.047243
  12 N     7.0000    0    14.007   -3.798350    0.746442   -0.141729
  13 N     7.0000    0    14.007   -0.733214   -3.919292   -0.051023
  14 N     7.0000    0    14.007    3.798350   -0.757780    0.122832
  15 C     6.0000    0    12.011   -3.703863    5.406506    0.045353
  16 C     6.0000    0    12.011   -4.956752    3.051908   -0.034015
  17 C     6.0000    0    12.011  -10.531444   -8.180624    2.014448
  18 C     6.0000    0    12.011   -7.696855    2.779787    0.105825
  19 C     6.0000    0    12.011   -7.759216   -5.208085   -0.049133
  20 C     6.0000    0    12.011   -9.439182   -5.209975   -2.099486
  21 C     6.0000    0    12.011  -11.587801   -6.693410   -2.033345
  22 C     6.0000    0    12.011  -14.458295   -9.662170    0.075589
  23 C     6.0000    0    12.011   -8.171176    0.266451    0.069920
  24 C     6.0000    0    12.011   -5.716422   -0.982658   -0.090707
  25 C     6.0000    0    12.011   -8.356369   -6.738763    2.031456
  26 N     7.0000    0    14.007  -12.107475   -8.150389    0.001890
  27 C     6.0000    0    12.011   -5.417845   -3.632054   -0.075589
  28 C     6.0000    0    12.011   -3.118048   -4.958641   -0.051023
  29 C     6.0000    0    12.011    6.742543  -11.606698   -1.965315
  30 C     6.0000    0    12.011   -2.789236   -7.651501   -0.064251
  31 C     6.0000    0    12.011    5.296902   -7.745987   -0.015118
  32 C     6.0000    0    12.011    6.910728   -8.284559    2.020117
  33 C     6.0000    0    12.011    8.365818  -10.450186    2.001220
  34 C     6.0000    0    12.011    9.911614  -14.339242    0.026456
  35 C     6.0000    0    12.011   -0.253223   -8.154168   -0.041574
  36 C     6.0000    0    12.011    1.073364   -5.790121   -0.051023
  37 C     6.0000    0    12.011    5.243990   -9.471307   -2.029566
  38 N     7.0000    0    14.007    8.269442  -12.077240    0.032125
  39 C     6.0000    0    12.011    3.701973   -5.421624   -0.017008
  40 C     6.0000    0    12.011    4.952972   -3.065136    0.017008
  41 C     6.0000    0    12.011   10.474752    8.199522   -2.135391
  42 C     6.0000    0    12.011    7.691185   -2.794905   -0.177634
  43 C     6.0000    0    12.011    7.755436    5.198637   -0.039684
  44 C     6.0000    0    12.011    9.499653    5.157063    1.957756
  45 C     6.0000    0    12.011   11.652051    6.631049    1.848152
  46 C     6.0000    0    12.011   14.397823    9.737759   -0.217319
  47 C     6.0000    0    12.011    8.165507   -0.279679   -0.173855
  48 C     6.0000    0    12.011    5.716422    0.971319    0.028346
  49 C     6.0000    0    12.011    8.290229    6.768999   -2.107045
  50 C     6.0000    0    12.011    5.415955    3.620715    0.024566
  51 N     7.0000    0    14.007   12.118814    8.118263   -0.179524
  52 H     1.0000    0     1.008   -4.998326   14.152159    0.668963
  53 H     1.0000    0     1.008    4.297237    9.006435    0.153068
  54 H     1.0000    0     1.008   -8.874154    5.784452   -0.376056
  55 H     1.0000    0     1.008  -11.413946    9.741538   -0.262672
  56 H     1.0000    0     1.008  -10.164837   14.951513   -1.763114
  57 H     1.0000    0     1.008  -11.684177   13.908384    1.071475
  58 H     1.0000    0     1.008   -8.915728   15.830236    1.250999
  59 H     1.0000    0     1.008   -0.627389    9.981533    0.130391
  60 H     1.0000    0     1.008   -2.195862   10.378376    0.587705
  61 H     1.0000    0     1.008    0.343930    2.025786    0.009449
  62 H     1.0000    0     1.008   -0.345820   -2.040904   -0.039684
  63 H     1.0000    0     1.008  -11.081354   -9.376821    3.581031
  64 H     1.0000    0     1.008   -9.059347    4.293458    0.262672
  65 H     1.0000    0     1.008   -9.070685   -4.081808   -3.768114
  66 H     1.0000    0     1.008  -12.927616   -6.768999   -3.577252
  67 H     1.0000    0     1.008  -15.926612   -8.571798    1.031790
  68 H     1.0000    0     1.008  -15.034661  -10.085468   -1.853821
  69 H     1.0000    0     1.008  -14.089798  -11.408277    1.103600
  70 H     1.0000    0     1.008   -9.990982   -0.650066    0.188973
  71 H     1.0000    0     1.008   -7.143165   -6.804904    3.679297
  72 H     1.0000    0     1.008    6.778448  -12.978639   -3.482765
  73 H     1.0000    0     1.008   -4.301017   -9.021553   -0.094486
  74 H     1.0000    0     1.008    7.018443   -7.037340    3.639613
  75 H     1.0000    0     1.008    9.622485  -10.950963    3.535678
  76 H     1.0000    0     1.008   11.725751  -13.849803   -0.829590
  77 H     1.0000    0     1.008   10.191293  -14.960962    1.969095
  78 H     1.0000    0     1.008    8.993207  -15.822677   -1.065806
  79 H     1.0000    0     1.008    0.621720   -9.996651   -0.015118
  80 H     1.0000    0     1.008    4.055352   -9.150054   -3.666069
  81 H     1.0000    0     1.008   10.975529    9.422175   -3.696304
  82 H     1.0000    0     1.008    9.048009   -4.310465   -0.349599
  83 H     1.0000    0     1.008    9.184069    3.994881    3.613156
  84 H     1.0000    0     1.008   13.041000    6.672623    3.348595
  85 H     1.0000    0     1.008   13.951848   11.544337    0.672743
  86 H     1.0000    0     1.008   15.900156    8.791006    0.822031
  87 H     1.0000    0     1.008   14.968521   10.034446   -2.173185
  88 H     1.0000    0     1.008    9.983423    0.634948   -0.338261
  89 H     1.0000    0     1.008    7.029781    6.863485   -3.717091

--------------------------------
INTERNAL COORDINATES (ANGSTROEM)
--------------------------------
 C      0   0   0     0.000000000000     0.00000000     0.00000000
 C      1   0   0     5.137469123995     0.00000000     0.00000000
 C      1   2   0     2.413517971758    55.82025058     0.00000000
 C      3   1   2     1.403403363257    87.90777531   184.53573106
 C      4   3   1     1.380165932053   120.16088124     0.09803551
 C      5   4   3     2.447427424869   152.53029123     1.73878707
 C      2   1   3     1.368114030335    17.33547399     1.72743048
 C      7   2   1     1.434084376876   108.05010202   185.26870805
 C      2   1   3     1.434123425651   125.49423255   356.43286151
 C      1   2   3     1.381611739962    25.78579930     4.88362370
 N      1   2   3     1.351661200153   146.16839198   351.92878590
 N      9   2   1     1.376127174356   106.58526707     0.89627916
 N     12   9   2     2.925062050624   168.53581413   171.12065651
 N     13  12   9     2.954513327098    91.55032014    11.12112580
 N     14  13  12     2.925371258490    88.43092389   359.84326247
 C      8   7   2     1.404790019896   127.24786865   181.11170171
 C     13  12   9     1.366535034311    81.72106996   188.00453233
 C     14  13  12     5.758810554272    80.56209567   166.76250791
 C     17  13  12     1.459010623676   111.08861209   183.82872609
 C     18  14  13     2.412235892279    27.27532823    36.33507194
 C     20  18  14     1.402692767501    87.95206320   148.94598259
 C     21  20  18     1.382106725257   120.14573887   359.70382047
 C     18  14  13     2.446510985056   144.15733107    82.80075377
 C     19  17  13     1.353610726908   106.29293361   359.75308708
 C     13  12   9     1.366813447402   172.21332906    33.46711076
 C     18  14  13     1.380960173213    15.08449437   309.23336894
 N     22  21  20     1.352773077792   120.73759875     0.27865223
 C     25  13  17     1.410897586645   125.60330303   182.37774668
 C     14  13  12     1.376642291955    80.24689249   177.85461986
 C     14  13  12     5.764089607215   164.51507311   312.20821879
 C     29  14  13     1.435600919476   106.58649366   178.76395472
 C     30  14  13     2.413316804732    27.10625047    82.12560436
 C     32  30  14     1.403734305344    87.90059683   149.76154742
 C     33  32  30     1.380694028378   120.14881443   359.74174632
 C     34  33  32     2.448777858443   152.49203239     2.45173620
 C     31  29  14     1.368160809262   108.16950133     0.70383075
 C     14  13  12     1.376239804685   169.26375223   353.09862627
 C     30  14  13     1.380907310430    14.68948582   353.70041132
 N     34  33  32     1.352658863128   120.85575621     0.19603406
 C     37  14  29     1.404717053360   126.01551127   180.90772073
 C     15  14  13     1.366491126938    81.61824056   183.09049352
 C      2   1   3     4.249062720177   144.82103217   150.17955620
 C     41  15  14     1.459677704153   111.05201287   175.08990246
 C     42   2   1     2.412953791518    41.78584867   177.49682333
 C     44  42   2     1.403446472082    87.95153797   233.97558675
 C     45  44  42     1.381696421071   120.11137308     0.19721020
 C     42   2   1     2.450019795838   135.97209175    87.81167244
 C     43  41  15     1.354461516618   106.26758155     0.30894352
 C     15  14  13     1.367461151185   171.87382904   332.35056460
 C     42   2   1     1.381886391857    32.59078432   226.35210253
 C      9   2   1     1.404988612053   126.98745415   181.90061669
 N     42   2   1     1.352765315936   113.57249190   115.54826163
 H      1   2   3     1.083351743433    97.09989600   177.42747369
 H      2   1   3     1.079907866440   109.29239922   178.15440476
 H      4   3   1     1.083627703596   121.07625544   179.59052097
 H      5   4   3     1.082482794321   122.84096891   179.45287041
 H      6   5   4     1.092852231548   104.47188984    99.99545536
 H      6   5   4     1.089630212503    84.68265255   209.43944394
 H      6   5   4     1.089697664492   133.91830562   322.31707911
 H      7   2   1     1.079807853278   126.66122480     5.50712184
 H     60   7   2     0.889698825446   128.02556232   199.95426249
 H     12   9   2     1.016297692608   125.29023241   180.00180175
 H     14  13  12     1.014936943854    44.97226959   359.42596618
 H     18  14  13     1.082871645210   128.03556573   234.20482432
 H     55   4   3     0.863926501503   144.12542470    54.92845888
 H     21  20  18     1.083569563987   121.05669627   180.67006309
 H     22  21  20     1.082483256222   122.73097286   180.59748951
 H     23  18  14     1.092105306278   103.92715769   234.93429879
 H     23  18  14     1.088871893291   134.19244188    12.25587044
 H     23  18  14     1.089833473518    84.85857450   125.45241208
 H     24  19  17     1.080075460327   127.28078426   178.44613241
 H     26  18  14     1.083408048706   118.76995697   244.94906660
 H     30  14  13     1.082703098730   127.99711412   279.66882698
 H     31  29  14     1.079759695488   125.22293469   180.92530585
 H     33  32  30     1.083188810873   121.01964473   180.74284758
 H     34  33  32     1.082494341787   122.70821597   180.59516895
 H     35  34  33     1.092652735319   105.73575241    97.19771933
 H     35  34  33     1.089462711615    84.05943581   206.43036958
 H     35  34  33     1.089268102902   133.08365142   318.50306270
 H     36  31  29     1.079439669458   126.61599965   178.98859863
 H     38  30  73     1.083742127999   118.77264435   359.90091293
 H     42   2   1     1.082178358682   119.31790784   332.17979208
 H     43  41  15     1.080281907652   126.36969097   182.06329380
 H     45  44  42     1.083277434455   121.10105945   179.58025624
 H     46  45  44     1.082194529648   122.72144639   179.46906377
 H     47  42   2     1.091546151109   106.65128841   315.16475048
 H     47  42   2     1.088818625851   132.46019523    94.52397119
 H     47  42   2     1.089531091801    83.63838232   206.04504406
 H     48  43  41     1.080402239909   127.23657387   181.62955349
 H     50  42   2     1.083186502870   118.77001737    94.71359229

---------------------------
INTERNAL COORDINATES (A.U.)
---------------------------
 C      0   0   0     0.000000000000     0.00000000     0.00000000
 C      1   0   0     9.708409665827     0.00000000     0.00000000
 C      1   2   0     4.560887985920    55.82025058     0.00000000
 C      3   1   2     2.652048011979    87.90777531   184.53573106
 C      4   3   1     2.608135630949   120.16088124     0.09803551
 C      5   4   3     4.624967565650   152.53029123     1.73878707
 C      2   1   3     2.585360837309    17.33547399     1.72743048
 C      7   2   1     2.710026725231   108.05010202   185.26870805
 C      2   1   3     2.710100516721   125.49423255   356.43286151
 C      1   2   3     2.610867811938    25.78579930     4.88362370
 N      1   2   3     2.554269494137   146.16839198   351.92878590
 N      9   2   1     2.600503484979   106.58526707     0.89627916
 N     12   9   2     5.527566200405   168.53581413   171.12065651
 N     13  12   9     5.583221047236    91.55032014    11.12112580
 N     14  13  12     5.528150518591    88.43092389   359.84326247
 C      8   7   2     2.654668413270   127.24786865   181.11170171
 C     13  12   9     2.582376967257    81.72106996   188.00453233
 C     14  13  12    10.882574804710    80.56209567   166.76250791
 C     17  13  12     2.757130505230   111.08861209   183.82872609
 C     18  14  13     4.558465206823    27.27532823    36.33507194
 C     20  18  14     2.650705180609    87.95206320   148.94598259
 C     21  20  18     2.611803198586   120.14573887   359.70382047
 C     18  14  13     4.623235745386   144.15733107    82.80075377
 C     19  17  13     2.557953565794   106.29293361   359.75308708
 C     13  12   9     2.582903091751   172.21332906    33.46711076
 C     18  14  13     2.609636529225    15.08449437   309.23336894
 N     22  21  20     2.556370638369   120.73759875     0.27865223
 C     25  13  17     2.666210041769   125.60330303   182.37774668
 C     14  13  12     2.601476916169    80.24689249   177.85461986
 C     14  13  12    10.892550769017   164.51507311   312.20821879
 C     29  14  13     2.712892575415   106.58649366   178.76395472
 C     30  14  13     4.560507835333    27.10625047    82.12560436
 C     32  30  14     2.652673401891    87.90059683   149.76154742
 C     33  32  30     2.609133588376   120.14881443   359.74174632
 C     34  33  32     4.627519515267   152.49203239     2.45173620
 C     31  29  14     2.585449236669   108.16950133     0.70383075
 C     14  13  12     2.600716325456   169.26375223   353.09862627
 C     30  14  13     2.609536633043    14.68948582   353.70041132
 N     34  33  32     2.556154803934   120.85575621     0.19603406
 C     37  14  29     2.654530526499   126.01551127   180.90772073
 C     15  14  13     2.582293994346    81.61824056   183.09049352
 C      2   1   3     8.029564866989   144.82103217   150.17955620
 C     41  15  14     2.758391104639   111.05201287   175.08990246
 C     42   2   1     4.559821839776    41.78584867   177.49682333
 C     44  42   2     2.652129475853    87.95153797   233.97558675
 C     45  44  42     2.611027836043   120.11137308     0.19721020
 C     42   2   1     4.629866436820   135.97209175    87.81167244
 C     43  41  15     2.559561325344   106.26758155     0.30894352
 C     15  14  13     2.584127074516   171.87382904   332.35056460
 C     42   2   1     2.611386828803    32.59078432   226.35210253
 C      9   2   1     2.655043698059   126.98745415   181.90061669
 N     42   2   1     2.556355970587   113.57249190   115.54826163
 H      1   2   3     2.047238101795    97.09989600   177.42747369
 H      2   1   3     2.040730117440   109.29239922   178.15440476
 H      4   3   1     2.047759590926   121.07625544   179.59052097
 H      5   4   3     2.045596025948   122.84096891   179.45287041
 H      6   5   4     2.065191422471   104.47188984    99.99545536
 H      6   5   4     2.059102688878    84.68265255   209.43944394
 H      6   5   4     2.059230154664   133.91830562   322.31707911
 H      7   2   1     2.040541119952   126.66122480     5.50712184
 H     60   7   2     1.681287121764   128.02556232   199.95426249
 H     12   9   2     1.920524309565   125.29023241   180.00180175
 H     14  13  12     1.917952867083    44.97226959   359.42596618
 H     18  14  13     2.046330847636   128.03556573   234.20482432
 H     55   4   3     1.632584487678   144.12542470    54.92845888
 H     21  20  18     2.047649722989   121.05669627   180.67006309
 H     22  21  20     2.045596898814   122.73097286   180.59748951
 H     23  18  14     2.063779938267   103.92715769   234.93429879
 H     23  18  14     2.057669673245   134.19244188    12.25587044
 H     23  18  14     2.059486796529    84.85857450   125.45241208
 H     24  19  17     2.041046823986   127.28078426   178.44613241
 H     26  18  14     2.047344503340   118.76995697   244.94906660
 H     30  14  13     2.046012340948   127.99711412   279.66882698
 H     31  29  14     2.040450114918   125.22293469   180.92530585
 H     33  32  30     2.046930203877   121.01964473   180.74284758
 H     34  33  32     2.045617847496   122.70821597   180.59516895
 H     35  34  33     2.064814429233   105.73575241    97.19771933
 H     35  34  33     2.058786158072    84.05943581   206.43036958
 H     35  34  33     2.058418400901   133.08365142   318.50306270
 H     36  31  29     2.039845353366   126.61599965   178.98859863
 H     38  30  73     2.047975821711   118.77264435   359.90091293
 H     42   2   1     2.045020725966   119.31790784   332.17979208
 H     43  41  15     2.041436952892   126.36969097   182.06329380
 H     45  44  42     2.047097678177   121.10105945   179.58025624
 H     46  45  44     2.045051284662   122.72144639   179.46906377
 H     47  42   2     2.062723288131   106.65128841   315.16475048
 H     47  42   2     2.057569012371   132.46019523    94.52397119
 H     47  42   2     2.058915377895    83.63838232   206.04504406
 H     48  43  41     2.041664347903   127.23657387   181.62955349
 H     50  42   2     2.046925842384   118.77001737    94.71359229

---------------------
BASIS SET INFORMATION
---------------------
There are 3 groups of distinct atoms

 Group   1 Type C   : 17s4p1d contracted to 3s2p1d pattern {881/31/1}
 Group   2 Type N   : 17s4p1d contracted to 3s2p1d pattern {881/31/1}
 Group   3 Type H   : 4s1p contracted to 2s1p pattern {31/1}

Atom   0C    basis set group =>   1
Atom   1N    basis set group =>   2
Atom   2C    basis set group =>   1
Atom   3N    basis set group =>   2
Atom   4C    basis set group =>   1
Atom   5N    basis set group =>   2
Atom   6C    basis set group =>   1
Atom   7N    basis set group =>   2
Atom   8C    basis set group =>   1
Atom   9N    basis set group =>   2
Atom  10C    basis set group =>   1
Atom  11N    basis set group =>   2
Atom  12C    basis set group =>   1
Atom  13N    basis set group =>   2
Atom  14C    basis set group =>   1
Atom  15N    basis set group =>   2
Atom  16C    basis set group =>   1
Atom  17C    basis set group =>   1
Atom  18C    basis set group =>   1
Atom  19C    basis set group =>   1
Atom  20C    basis set group =>   1
Atom  21C    basis set group =>   1
Atom  22C    basis set group =>   1
Atom  23C    basis set group =>   1
Atom  24C    basis set group =>   1
Atom  25C    basis set group =>   1
Atom  26C    basis set group =>   1
Atom  27C    basis set group =>   1
Atom  28C    basis set group =>   1
Atom  29C    basis set group =>   1
Atom  30C    basis set group =>   1
Atom  31C    basis set group =>   1
Atom  32C    basis set group =>   1
Atom  33C    basis set group =>   1
Atom  34C    basis set group =>   1
Atom  35C    basis set group =>   1
Atom  36C    basis set group =>   1
Atom  37C    basis set group =>   1
Atom  38C    basis set group =>   1
Atom  39C    basis set group =>   1
Atom  40C    basis set group =>   1
Atom  41C    basis set group =>   1
Atom  42C    basis set group =>   1
Atom  43C    basis set group =>   1
Atom  44C    basis set group =>   1
Atom  45C    basis set group =>   1
Atom  46C    basis set group =>   1
Atom  47C    basis set group =>   1
Atom  48C    basis set group =>   1
Atom  49C    basis set group =>   1
Atom  50C    basis set group =>   1
Atom  51C    basis set group =>   1
Atom  52H    basis set group =>   3
Atom  53H    basis set group =>   3
Atom  54H    basis set group =>   3
Atom  55H    basis set group =>   3
Atom  56H    basis set group =>   3
Atom  57H    basis set group =>   3
Atom  58H    basis set group =>   3
Atom  59H    basis set group =>   3
Atom  60H    basis set group =>   3
Atom  61H    basis set group =>   3
Atom  62H    basis set group =>   3
Atom  63H    basis set group =>   3
Atom  64H    basis set group =>   3
Atom  65H    basis set group =>   3
Atom  66H    basis set group =>   3
Atom  67H    basis set group =>   3
Atom  68H    basis set group =>   3
Atom  69H    basis set group =>   3
Atom  70H    basis set group =>   3
Atom  71H    basis set group =>   3
Atom  72H    basis set group =>   3
Atom  73H    basis set group =>   3
Atom  74H    basis set group =>   3
Atom  75H    basis set group =>   3
Atom  76H    basis set group =>   3
Atom  77H    basis set group =>   3
Atom  78H    basis set group =>   3
Atom  79H    basis set group =>   3
Atom  80H    basis set group =>   3
Atom  81H    basis set group =>   3
Atom  82H    basis set group =>   3
Atom  83H    basis set group =>   3
Atom  84H    basis set group =>   3
Atom  85H    basis set group =>   3
Atom  86H    basis set group =>   3
Atom  87H    basis set group =>   3
Atom  88H    basis set group =>   3
Atom  89H    basis set group =>   3


           ************************************************************
           *        Program running with 8 parallel MPI-processes     *
           *              working on a common directory               *
           ************************************************************
------------------------------------------------------------------------------
                           ORCA GTO INTEGRAL CALCULATION
------------------------------------------------------------------------------
------------------------------------------------------------------------------
                   ___                                                        
                  /   \      - P O W E R E D   B Y -                         
                 /     \                                                     
                 |  |  |   _    _      __       _____    __    __             
                 |  |  |  | |  | |    /  \     |  _  \  |  |  /  |          
                  \  \/   | |  | |   /    \    | | | |  |  | /  /          
                 / \  \   | |__| |  /  /\  \   | |_| |  |  |/  /          
                |  |  |   |  __  | /  /__\  \  |    /   |      \           
                |  |  |   | |  | | |   __   |  |    \   |  |\   \          
                \     /   | |  | | |  |  |  |  | |\  \  |  | \   \       
                 \___/    |_|  |_| |__|  |__|  |_| \__\ |__|  \__/        
                                                                              
                      - O R C A' S   B I G   F R I E N D -                    
                                      &                                       
                       - I N T E G R A L  F E E D E R -                       
                                                                              
 v1 FN, 2020, v2 2021                                                         
------------------------------------------------------------------------------


Reading SHARK input file /scratch/chu_02/allen/tmpyp4_amber_gaff2/conf1/conf1/Conf356.orca.SHARKINP.tmp ... ok
----------------------
SHARK INTEGRAL PACKAGE
----------------------

Number of atoms                             ...     90
Number of basis functions                   ...   1230
Number of shells                            ...    738
Maximum angular momentum                    ...      2
Integral batch strategy                     ... SHARK/LIBINT Hybrid
RI-J (if used) integral strategy            ... SPLIT-RIJ (Revised 2003 algorithm where possible)
Printlevel                                  ...      1
Contraction scheme used                     ... PARTIAL GENERAL contraction
Coulomb Range Separation                    ... NOT USED
Exchange Range Separation                   ... NOT USED
Finite Nucleus Model                        ... NOT USED
Auxiliary Coulomb fitting basis             ... NOT available
Auxiliary J/K fitting basis                 ... NOT available
Auxiliary Correlation fitting basis         ... NOT available
Auxiliary 'external' fitting basis          ... NOT available
Integral threshold                          ...     2.500000e-11
Primitive cut-off                           ...     2.500000e-12
Primitive pair pre-selection threshold      ...     2.500000e-12

Calculating pre-screening integrals         ... done (  0.1 sec) Dimension = 738
Calculating pre-screening integrals (ORCA)  ... done (  0.3 sec) Dimension = 426
Organizing shell pair data                  ... done (  0.5 sec)
Shell pair information
Total number of shell pairs                 ...    272691
Shell pairs after pre-screening             ...     71734
Total number of primitive shell pairs       ...    422091
Primitive shell pairs kept                  ...     92640
          la=0 lb=0:  29439 shell pairs
          la=1 lb=0:  26045 shell pairs
          la=1 lb=1:   4699 shell pairs
          la=2 lb=0:   7892 shell pairs
          la=2 lb=1:   3130 shell pairs
          la=2 lb=2:    529 shell pairs

Calculating one electron integrals          ... done (  0.2 sec)
Calculating Nuclear repulsion               ... done (  0.0 sec) ENN=   6235.614539158460 Eh

SHARK setup successfully completed in   1.7 seconds

Maximum memory used throughout the entire GTOINT-calculation: 99.1 MB


           ************************************************************
           *        Program running with 8 parallel MPI-processes     *
           *              working on a common directory               *
           ************************************************************
-------------------------------------------------------------------------------
                                 ORCA SCF
-------------------------------------------------------------------------------

------------
SCF SETTINGS
------------
Hamiltonian:
 Ab initio Hamiltonian  Method          .... Hartree-Fock(GTOs)


General Settings:
 Integral files         IntName         .... /scratch/chu_02/allen/tmpyp4_amber_gaff2/conf1/conf1/Conf356.orca
 Hartree-Fock type      HFTyp           .... RHF
 Total Charge           Charge          ....    0
 Multiplicity           Mult            ....    1
 Number of Electrons    NEL             ....  358
 Basis Dimension        Dim             ....  918
 Nuclear Repulsion      ENuc            ....   6235.6145391585 Eh

Convergence Acceleration:
 DIIS                   CNVDIIS         .... on
   Start iteration      DIISMaxIt       ....    12
   Startup error        DIISStart       ....  0.200000
   # of expansion vecs  DIISMaxEq       ....     5
   Bias factor          DIISBfac        ....   1.050
   Max. coefficient     DIISMaxC        ....  10.000
 Trust-Rad. Augm. Hess. CNVTRAH         .... auto
   Auto Start mean grad. ratio tolernc. ....  1.125000
   Auto Start start iteration           ....    20
   Auto Start num. interpolation iter.  ....    10
   Max. Number of Micro iterations      ....    16
   Max. Number of Macro iterations      .... Maxiter - #DIIS iter
   Number of Davidson start vectors     ....     2
   Converg. threshold I  (grad. norm)   ....   1.000e-05
   Converg. threshold II (energy diff.) ....   1.000e-08
   Grad. Scal. Fac. for Micro threshold ....   0.100
   Minimum threshold for Micro iter.    ....   0.010
   NR start threshold (gradient norm)   ....   0.001
   Initial trust radius                 ....   0.400
   Minimum AH scaling param. (alpha)    ....   1.000
   Maximum AH scaling param. (alpha)    .... 1000.000
   Orbital update algorithm             .... Taylor
   White noise on init. David. guess    .... on
   Maximum white noise                  ....   0.010
   Quad. conv. algorithm                .... NR
 SOSCF                  CNVSOSCF        .... on
   Start iteration      SOSCFMaxIt      ....   150
   Startup grad/error   SOSCFStart      ....  0.003300
 Level Shifting         CNVShift        .... on
   Level shift para.    LevelShift      ....    0.2500
   Turn off err/grad.   ShiftErr        ....    0.0010
 Zerner damping         CNVZerner       .... off
 Static damping         CNVDamp         .... on
   Fraction old density DampFac         ....    0.7000
   Max. Damping (<1)    DampMax         ....    0.9800
   Min. Damping (>=0)   DampMin         ....    0.0000
   Turn off err/grad.   DampErr         ....    0.1000
 Fernandez-Rico         CNVRico         .... off

SCF Procedure:
 Maximum # iterations   MaxIter         ....   125
 SCF integral mode      SCFMode         .... Direct
   Integral package                     .... SHARK and LIBINT hybrid scheme
 Reset frequency        DirectResetFreq ....    20
 Integral Threshold     Thresh          ....  2.500e-11 Eh
 Primitive CutOff       TCut            ....  2.500e-12 Eh

Convergence Tolerance:
 Convergence Check Mode ConvCheckMode   .... Total+1el-Energy
 Convergence forced     ConvForced      .... 1
 Energy Change          TolE            ....  1.000e-08 Eh
 1-El. energy change                    ....  1.000e-05 Eh
 Orbital Gradient       TolG            ....  1.000e-05
 Orbital Rotation angle TolX            ....  1.000e-05
 DIIS Error             TolErr          ....  5.000e-07


Diagonalization of the overlap matrix:
Smallest eigenvalue                        ... 1.623e-04
Time for diagonalization                   ...    0.212 sec
Threshold for overlap eigenvalues          ... 1.000e-08
Number of eigenvalues below threshold      ... 0
Time for construction of square roots      ...    0.133 sec
Total time needed                          ...    0.350 sec

Time for model grid setup =    1.366 sec

------------------------------
INITIAL GUESS: MODEL POTENTIAL
------------------------------
Loading Hartree-Fock densities                     ... done
Calculating cut-offs                               ... done
Initializing the effective Hamiltonian             ... done
Setting up the integral package (SHARK)            ... done
Starting the Coulomb interaction                   ... done (   1.6 sec)
Reading the grid                                   ... done
Mapping shells                                     ... done
Starting the XC term evaluation                    ... done (   0.3 sec)
Transforming the Hamiltonian                       ... done (   0.1 sec)
Diagonalizing the Hamiltonian                      ... done (   0.3 sec)
Back transforming the eigenvectors                 ... done (   0.0 sec)
Now organizing SCF variables                       ... done
                      ------------------
                      INITIAL GUESS DONE (   3.8 sec)
                      ------------------
--------------
SCF ITERATIONS
--------------
ITER       Energy         Delta-E        Max-DP      RMS-DP      [F,P]     Damp
               ***  Starting incremental Fock matrix formation  ***
  0  -2121.5769946861   0.000000000000 0.07824314  0.00131082  0.2310462 0.7000
  1  -2122.2162298365  -0.639235150420 0.08036779  0.00107046  0.1434294 0.7000
                               ***Turning on DIIS***
  2  -2122.6155557977  -0.399325961183 0.13897372  0.00241792  0.0803273 0.0000
  3  -2118.0545565729   4.560999224719 0.11019519  0.00074559  0.0433772 0.0000
  4  -2123.3207044279  -5.266147854929 0.03093005  0.00024272  0.0093791 0.0000
  5  -2123.4433625935  -0.122658165639 0.01492622  0.00013767  0.0047989 0.0000
  6  -2123.4271318850   0.016230708514 0.00935408  0.00008760  0.0022636 0.0000
  7  -2123.5183668847  -0.091234999723 0.00585814  0.00006824  0.0016365 0.0000
  8  -2123.5238828508  -0.005515966135 0.00468746  0.00006502  0.0015335 0.0000
  9  -2123.4980049759   0.025877874967 0.00268885  0.00004650  0.0012348 0.0000
 10  -2123.5052318002  -0.007226824286 0.00542154  0.00009747  0.0009691 0.0000
                      *** Initiating the SOSCF procedure ***
                           *** Shutting down DIIS ***
                      *** Re-Reading the Fockian *** 
                      *** Removing any level shift *** 
ITER      Energy       Delta-E        Grad      Rot      Max-DP    RMS-DP
 11  -2123.40051199   0.1047198057  0.000183  0.000183  0.000247  0.000005
               *** Restarting incremental Fock matrix formation ***
 12  -2123.46583748  -0.0653254855  0.000934  0.006249  0.001514  0.000036
 13  -2123.46595000  -0.0001125223  0.001140  0.030987  0.006876  0.000139
 14  -2123.46613491  -0.0001849045  0.000400  0.002048  0.000628  0.000013
 15  -2123.46615008  -0.0000151741  0.000181  0.002140  0.000477  0.000013
 16  -2123.46615650  -0.0000064161  0.000130  0.002007  0.000496  0.000009
 17  -2123.46615907  -0.0000025734  0.000125  0.001950  0.000290  0.000007
 18  -2123.46616023  -0.0000011608  0.000057  0.001058  0.000208  0.000004
 19  -2123.46616094  -0.0000007111  0.000044  0.001680  0.000262  0.000006
 20  -2123.46616142  -0.0000004812  0.000026  0.000969  0.000169  0.000003
 21  -2123.46616164  -0.0000002142  0.000028  0.001221  0.000201  0.000004
 22  -2123.46616185  -0.0000002139  0.000023  0.001053  0.000160  0.000003
 23  -2123.46616198  -0.0000001282  0.000015  0.000396  0.000067  0.000001
 24  -2123.46616203  -0.0000000512  0.000008  0.000262  0.000054  0.000001
 25  -2123.46616206  -0.0000000307  0.000008  0.000125  0.000040  0.000001
 26  -2123.46616208  -0.0000000170  0.000006  0.000072  0.000028  0.000000
 27  -2123.46616208  -0.0000000046  0.000003  0.000056  0.000019  0.000000
                  ***Gradient check signals convergence***
              ***Rediagonalizing the Fockian in SOSCF/NRSCF***

               *****************************************************
               *                     SUCCESS                       *
               *           SCF CONVERGED AFTER  28 CYCLES          *
               *****************************************************


----------------
TOTAL SCF ENERGY
----------------

Total Energy       :        -2123.46616209 Eh          -57782.45187 eV

Components:
Nuclear Repulsion  :         6235.61453916 Eh          169679.69796 eV
Electronic Energy  :        -8359.08070125 Eh         -227462.14983 eV
One Electron Energy:       -15311.66117775 Eh         -416651.48280 eV
Two Electron Energy:         6952.58047650 Eh          189189.33297 eV

Virial components:
Potential Energy   :        -4246.07637868 Eh         -115541.61229 eV
Kinetic Energy     :         2122.61021659 Eh           57759.16041 eV
Virial Ratio       :            2.00040325


---------------
SCF CONVERGENCE
---------------

  Last Energy change         ...   -3.4361e-09  Tolerance :   1.0000e-08
  Last MAX-Density change    ...    9.5935e-06  Tolerance :   1.0000e-07
  Last RMS-Density change    ...    1.6819e-07  Tolerance :   5.0000e-09
  Last Orbital Gradient      ...    1.7348e-06  Tolerance :   1.0000e-05
  Last Orbital Rotation      ...    3.5578e-05  Tolerance :   1.0000e-05

             **** THE GBW FILE WAS UPDATED (/scratch/chu_02/allen/tmpyp4_amber_gaff2/conf1/conf1/Conf356.orca.gbw) ****
             **** DENSITY /scratch/chu_02/allen/tmpyp4_amber_gaff2/conf1/conf1/Conf356.orca.scfp WAS UPDATED ****
             **** ENERGY FILE WAS UPDATED (/scratch/chu_02/allen/tmpyp4_amber_gaff2/conf1/conf1/Conf356.orca.en.tmp) ****
             **** THE GBW FILE WAS UPDATED (/scratch/chu_02/allen/tmpyp4_amber_gaff2/conf1/conf1/Conf356.orca.gbw) ****
             **** DENSITY /scratch/chu_02/allen/tmpyp4_amber_gaff2/conf1/conf1/Conf356.orca.scfp WAS UPDATED ****
----------------
ORBITAL ENERGIES
----------------

  NO   OCC          E(Eh)            E(eV) 
   0   2.0000     -15.680575      -426.6902 
   1   2.0000     -15.633822      -425.4179 
   2   2.0000     -15.632206      -425.3740 
   3   2.0000     -15.587459      -424.1563 
   4   2.0000     -15.525112      -422.4598 
   5   2.0000     -15.515364      -422.1945 
   6   2.0000     -15.453992      -420.5245 
   7   2.0000     -15.439575      -420.1322 
   8   2.0000     -11.330019      -308.3055 
   9   2.0000     -11.329065      -308.2795 
  10   2.0000     -11.328411      -308.2617 
  11   2.0000     -11.299228      -307.4676 
  12   2.0000     -11.298604      -307.4507 
  13   2.0000     -11.292899      -307.2954 
  14   2.0000     -11.291611      -307.2603 
  15   2.0000     -11.286750      -307.1281 
  16   2.0000     -11.286430      -307.1194 
  17   2.0000     -11.282772      -307.0198 
  18   2.0000     -11.269146      -306.6491 
  19   2.0000     -11.263893      -306.5061 
  20   2.0000     -11.262891      -306.4788 
  21   2.0000     -11.250917      -306.1530 
  22   2.0000     -11.247181      -306.0514 
  23   2.0000     -11.237616      -305.7911 
  24   2.0000     -11.236972      -305.7735 
  25   2.0000     -11.230994      -305.6109 
  26   2.0000     -11.230326      -305.5927 
  27   2.0000     -11.230017      -305.5843 
  28   2.0000     -11.229769      -305.5776 
  29   2.0000     -11.211168      -305.0714 
  30   2.0000     -11.209783      -305.0337 
  31   2.0000     -11.193154      -304.5812 
  32   2.0000     -11.191810      -304.5446 
  33   2.0000     -11.191736      -304.5426 
  34   2.0000     -11.188758      -304.4616 
  35   2.0000     -11.188025      -304.4416 
  36   2.0000     -11.187276      -304.4213 
  37   2.0000     -11.174951      -304.0859 
  38   2.0000     -11.172103      -304.0084 
  39   2.0000     -11.171525      -303.9926 
  40   2.0000     -11.170916      -303.9761 
  41   2.0000     -11.168495      -303.9102 
  42   2.0000     -11.167315      -303.8781 
  43   2.0000     -11.162240      -303.7400 
  44   2.0000     -11.160755      -303.6996 
  45   2.0000     -11.156978      -303.5968 
  46   2.0000     -11.156391      -303.5808 
  47   2.0000     -11.150999      -303.4341 
  48   2.0000     -11.146856      -303.3214 
  49   2.0000     -11.135293      -303.0067 
  50   2.0000     -11.129321      -302.8442 
  51   2.0000     -11.116964      -302.5080 
  52   2.0000      -1.361041       -37.0358 
  53   2.0000      -1.321091       -35.9487 
  54   2.0000      -1.319937       -35.9173 
  55   2.0000      -1.279682       -34.8219 
  56   2.0000      -1.226282       -33.3688 
  57   2.0000      -1.210245       -32.9324 
  58   2.0000      -1.173726       -31.9387 
  59   2.0000      -1.150719       -31.3127 
  60   2.0000      -1.144194       -31.1351 
  61   2.0000      -1.110333       -30.2137 
  62   2.0000      -1.109049       -30.1788 
  63   2.0000      -1.082680       -29.4612 
  64   2.0000      -1.076749       -29.2998 
  65   2.0000      -1.045287       -28.4437 
  66   2.0000      -1.044557       -28.4239 
  67   2.0000      -1.041500       -28.3407 
  68   2.0000      -1.015006       -27.6197 
  69   2.0000      -1.013962       -27.5913 
  70   2.0000      -1.008975       -27.4556 
  71   2.0000      -0.993689       -27.0396 
  72   2.0000      -0.985454       -26.8156 
  73   2.0000      -0.982054       -26.7231 
  74   2.0000      -0.973690       -26.4954 
  75   2.0000      -0.962335       -26.1865 
  76   2.0000      -0.954942       -25.9853 
  77   2.0000      -0.946179       -25.7468 
  78   2.0000      -0.938883       -25.5483 
  79   2.0000      -0.916589       -24.9416 
  80   2.0000      -0.911121       -24.7929 
  81   2.0000      -0.898125       -24.4392 
  82   2.0000      -0.877416       -23.8757 
  83   2.0000      -0.872285       -23.7361 
  84   2.0000      -0.871016       -23.7015 
  85   2.0000      -0.861091       -23.4315 
  86   2.0000      -0.844115       -22.9695 
  87   2.0000      -0.837722       -22.7956 
  88   2.0000      -0.829089       -22.5607 
  89   2.0000      -0.796363       -21.6702 
  90   2.0000      -0.788905       -21.4672 
  91   2.0000      -0.772054       -21.0087 
  92   2.0000      -0.753496       -20.5037 
  93   2.0000      -0.734082       -19.9754 
  94   2.0000      -0.728015       -19.8103 
  95   2.0000      -0.725845       -19.7513 
  96   2.0000      -0.720138       -19.5959 
  97   2.0000      -0.718027       -19.5385 
  98   2.0000      -0.713964       -19.4279 
  99   2.0000      -0.699142       -19.0246 
 100   2.0000      -0.698503       -19.0072 
 101   2.0000      -0.694212       -18.8905 
 102   2.0000      -0.685700       -18.6588 
 103   2.0000      -0.684797       -18.6343 
 104   2.0000      -0.678945       -18.4750 
 105   2.0000      -0.674586       -18.3564 
 106   2.0000      -0.673017       -18.3137 
 107   2.0000      -0.660537       -17.9741 
 108   2.0000      -0.658233       -17.9114 
 109   2.0000      -0.652837       -17.7646 
 110   2.0000      -0.652201       -17.7473 
 111   2.0000      -0.646717       -17.5981 
 112   2.0000      -0.645860       -17.5747 
 113   2.0000      -0.637946       -17.3594 
 114   2.0000      -0.635380       -17.2896 
 115   2.0000      -0.628405       -17.0998 
 116   2.0000      -0.623074       -16.9547 
 117   2.0000      -0.620148       -16.8751 
 118   2.0000      -0.613200       -16.6860 
 119   2.0000      -0.612235       -16.6598 
 120   2.0000      -0.612054       -16.6548 
 121   2.0000      -0.611618       -16.6430 
 122   2.0000      -0.601230       -16.3603 
 123   2.0000      -0.589045       -16.0287 
 124   2.0000      -0.581561       -15.8251 
 125   2.0000      -0.580974       -15.8091 
 126   2.0000      -0.580358       -15.7923 
 127   2.0000      -0.571525       -15.5520 
 128   2.0000      -0.566885       -15.4257 
 129   2.0000      -0.560034       -15.2393 
 130   2.0000      -0.555236       -15.1087 
 131   2.0000      -0.548180       -14.9167 
 132   2.0000      -0.542941       -14.7742 
 133   2.0000      -0.540483       -14.7073 
 134   2.0000      -0.538628       -14.6568 
 135   2.0000      -0.536101       -14.5880 
 136   2.0000      -0.531508       -14.4631 
 137   2.0000      -0.518116       -14.0986 
 138   2.0000      -0.517168       -14.0729 
 139   2.0000      -0.514251       -13.9935 
 140   2.0000      -0.512310       -13.9407 
 141   2.0000      -0.510030       -13.8786 
 142   2.0000      -0.508123       -13.8267 
 143   2.0000      -0.504737       -13.7346 
 144   2.0000      -0.502219       -13.6661 
 145   2.0000      -0.495275       -13.4771 
 146   2.0000      -0.488564       -13.2945 
 147   2.0000      -0.481083       -13.0909 
 148   2.0000      -0.476626       -12.9697 
 149   2.0000      -0.468008       -12.7351 
 150   2.0000      -0.466220       -12.6865 
 151   2.0000      -0.456574       -12.4240 
 152   2.0000      -0.451649       -12.2900 
 153   2.0000      -0.445197       -12.1144 
 154   2.0000      -0.437994       -11.9184 
 155   2.0000      -0.427558       -11.6345 
 156   2.0000      -0.409464       -11.1421 
 157   2.0000      -0.391634       -10.6569 
 158   2.0000      -0.388788       -10.5795 
 159   2.0000      -0.387343       -10.5401 
 160   2.0000      -0.378737       -10.3060 
 161   2.0000      -0.373616       -10.1666 
 162   2.0000      -0.363268        -9.8850 
 163   2.0000      -0.356628        -9.7043 
 164   2.0000      -0.356024        -9.6879 
 165   2.0000      -0.342025        -9.3070 
 166   2.0000      -0.337697        -9.1892 
 167   2.0000      -0.324864        -8.8400 
 168   2.0000      -0.320510        -8.7215 
 169   2.0000      -0.305536        -8.3140 
 170   2.0000      -0.299306        -8.1445 
 171   2.0000      -0.285653        -7.7730 
 172   2.0000      -0.278181        -7.5697 
 173   2.0000      -0.263578        -7.1723 
 174   2.0000      -0.241788        -6.5794 
 175   2.0000      -0.190021        -5.1707 
 176   2.0000      -0.181377        -4.9355 
 177   2.0000      -0.080280        -2.1845 
 178   2.0000      -0.059906        -1.6301 
 179   0.0000       0.028327         0.7708 
 180   0.0000       0.065175         1.7735 
 181   0.0000       0.090066         2.4508 
 182   0.0000       0.105747         2.8775 
 183   0.0000       0.116655         3.1743 
 184   0.0000       0.136979         3.7274 
 185   0.0000       0.139318         3.7910 
 186   0.0000       0.140547         3.8245 
 187   0.0000       0.164520         4.4768 
 188   0.0000       0.165183         4.4949 
 189   0.0000       0.165526         4.5042 
 190   0.0000       0.174727         4.7546 
 191   0.0000       0.179965         4.8971 
 192   0.0000       0.183374         4.9899 
 193   0.0000       0.189739         5.1631 
 194   0.0000       0.204858         5.5745 
 195   0.0000       0.205415         5.5896 
 196   0.0000       0.208295         5.6680 
 197   0.0000       0.208507         5.6738 
 198   0.0000       0.216165         5.8822 
 199   0.0000       0.228483         6.2173 
 200   0.0000       0.233366         6.3502 
 201   0.0000       0.234928         6.3927 
 202   0.0000       0.239063         6.5052 
 203   0.0000       0.239588         6.5195 
 204   0.0000       0.245918         6.6918 
 205   0.0000       0.254680         6.9302 
 206   0.0000       0.256455         6.9785 
 207   0.0000       0.257636         7.0106 
 208   0.0000       0.259178         7.0526 
 209   0.0000       0.260483         7.0881 
 210   0.0000       0.264540         7.1985 
 211   0.0000       0.265281         7.2187 
 212   0.0000       0.268451         7.3049 
 213   0.0000       0.269458         7.3323 
 214   0.0000       0.273399         7.4396 
 215   0.0000       0.275849         7.5062 
 216   0.0000       0.278520         7.5789 
 217   0.0000       0.282252         7.6805 
 218   0.0000       0.286672         7.8007 
 219   0.0000       0.287938         7.8352 
 220   0.0000       0.289795         7.8857 
 221   0.0000       0.292180         7.9506 
 222   0.0000       0.294889         8.0243 
 223   0.0000       0.296696         8.0735 
 224   0.0000       0.297148         8.0858 
 225   0.0000       0.300844         8.1864 
 226   0.0000       0.305004         8.2996 
 227   0.0000       0.308285         8.3889 
 228   0.0000       0.316085         8.6011 
 229   0.0000       0.324537         8.8311 
 230   0.0000       0.328582         8.9412 
 231   0.0000       0.335499         9.1294 
 232   0.0000       0.343168         9.3381 
 233   0.0000       0.357101         9.7172 
 234   0.0000       0.370504        10.0819 
 235   0.0000       0.372397        10.1334 
 236   0.0000       0.379794        10.3347 
 237   0.0000       0.390855        10.6357 
 238   0.0000       0.396197        10.7811 
 239   0.0000       0.401092        10.9143 
 240   0.0000       0.405517        11.0347 
 241   0.0000       0.410781        11.1779 
 242   0.0000       0.412971        11.2375 
 243   0.0000       0.420118        11.4320 
 244   0.0000       0.429193        11.6789 
 245   0.0000       0.435131        11.8405 
 246   0.0000       0.439644        11.9633 
 247   0.0000       0.440882        11.9970 
 248   0.0000       0.441667        12.0184 
 249   0.0000       0.449869        12.2416 
 250   0.0000       0.453068        12.3286 
 251   0.0000       0.461342        12.5537 
 252   0.0000       0.468086        12.7373 
 253   0.0000       0.469877        12.7860 
 254   0.0000       0.471496        12.8301 
 255   0.0000       0.474015        12.8986 
 256   0.0000       0.476797        12.9743 
 257   0.0000       0.481051        13.0901 
 258   0.0000       0.489088        13.3088 
 259   0.0000       0.494751        13.4629 
 260   0.0000       0.504100        13.7173 
 261   0.0000       0.505068        13.7436 
 262   0.0000       0.505851        13.7649 
 263   0.0000       0.512520        13.9464 
 264   0.0000       0.515900        14.0383 
 265   0.0000       0.521668        14.1953 
 266   0.0000       0.524141        14.2626 
 267   0.0000       0.528259        14.3746 
 268   0.0000       0.535006        14.5583 
 269   0.0000       0.540082        14.6964 
 270   0.0000       0.543417        14.7871 
 271   0.0000       0.554195        15.0804 
 272   0.0000       0.557811        15.1788 
 273   0.0000       0.560599        15.2547 
 274   0.0000       0.562371        15.3029 
 275   0.0000       0.567887        15.4530 
 276   0.0000       0.573499        15.6057 
 277   0.0000       0.576040        15.6748 
 278   0.0000       0.580480        15.7957 
 279   0.0000       0.585759        15.9393 
 280   0.0000       0.591055        16.0834 
 281   0.0000       0.593615        16.1531 
 282   0.0000       0.595264        16.1980 
 283   0.0000       0.596141        16.2218 
 284   0.0000       0.597803        16.2670 
 285   0.0000       0.603234        16.4148 
 286   0.0000       0.604196        16.4410 
 287   0.0000       0.609553        16.5868 
 288   0.0000       0.616519        16.7763 
 289   0.0000       0.622976        16.9520 
 290   0.0000       0.625637        17.0244 
 291   0.0000       0.630332        17.1522 
 292   0.0000       0.631331        17.1794 
 293   0.0000       0.636674        17.3248 
 294   0.0000       0.645649        17.5690 
 295   0.0000       0.649298        17.6683 
 296   0.0000       0.653841        17.7919 
 297   0.0000       0.656793        17.8722 
 298   0.0000       0.660702        17.9786 
 299   0.0000       0.664551        18.0834 
 300   0.0000       0.670143        18.2355 
 301   0.0000       0.674950        18.3663 
 302   0.0000       0.677834        18.4448 
 303   0.0000       0.679819        18.4988 
 304   0.0000       0.681336        18.5401 
 305   0.0000       0.684873        18.6363 
 306   0.0000       0.689082        18.7509 
 307   0.0000       0.693276        18.8650 
 308   0.0000       0.695054        18.9134 
 309   0.0000       0.700711        19.0673 
 310   0.0000       0.702817        19.1246 
 311   0.0000       0.704982        19.1835 
 312   0.0000       0.708088        19.2680 
 313   0.0000       0.710649        19.3377 
 314   0.0000       0.710827        19.3426 
 315   0.0000       0.715171        19.4608 
 316   0.0000       0.716752        19.5038 
 317   0.0000       0.718806        19.5597 
 318   0.0000       0.726110        19.7584 
 319   0.0000       0.727441        19.7947 
 320   0.0000       0.728098        19.8125 
 321   0.0000       0.729803        19.8590 
 322   0.0000       0.731100        19.8942 
 323   0.0000       0.732770        19.9397 
 324   0.0000       0.737330        20.0638 
 325   0.0000       0.742386        20.2013 
 326   0.0000       0.744189        20.2504 
 327   0.0000       0.749098        20.3840 
 328   0.0000       0.753957        20.5162 
 329   0.0000       0.755281        20.5522 
 330   0.0000       0.758623        20.6432 
 331   0.0000       0.764881        20.8135 
 332   0.0000       0.765816        20.8389 
 333   0.0000       0.768236        20.9048 
 334   0.0000       0.770283        20.9605 
 335   0.0000       0.775929        21.1141 
 336   0.0000       0.777855        21.1665 
 337   0.0000       0.781992        21.2791 
 338   0.0000       0.787031        21.4162 
 339   0.0000       0.789723        21.4895 
 340   0.0000       0.792133        21.5550 
 341   0.0000       0.797273        21.6949 
 342   0.0000       0.797406        21.6985 
 343   0.0000       0.803142        21.8546 
 344   0.0000       0.806298        21.9405 
 345   0.0000       0.808229        21.9930 
 346   0.0000       0.810840        22.0641 
 347   0.0000       0.815128        22.1808 
 348   0.0000       0.815723        22.1970 
 349   0.0000       0.816689        22.2232 
 350   0.0000       0.820687        22.3320 
 351   0.0000       0.822744        22.3880 
 352   0.0000       0.827040        22.5049 
 353   0.0000       0.828559        22.5462 
 354   0.0000       0.831196        22.6180 
 355   0.0000       0.833390        22.6777 
 356   0.0000       0.833920        22.6921 
 357   0.0000       0.835855        22.7448 
 358   0.0000       0.838780        22.8244 
 359   0.0000       0.841960        22.9109 
 360   0.0000       0.842818        22.9342 
 361   0.0000       0.843708        22.9585 
 362   0.0000       0.846389        23.0314 
 363   0.0000       0.850089        23.1321 
 364   0.0000       0.850921        23.1547 
 365   0.0000       0.856970        23.3193 
 366   0.0000       0.861067        23.4308 
 367   0.0000       0.863326        23.4923 
 368   0.0000       0.865036        23.5388 
 369   0.0000       0.869216        23.6526 
 370   0.0000       0.870249        23.6807 
 371   0.0000       0.875829        23.8325 
 372   0.0000       0.876279        23.8448 
 373   0.0000       0.878500        23.9052 
 374   0.0000       0.880628        23.9631 
 375   0.0000       0.883086        24.0300 
 376   0.0000       0.890564        24.2335 
 377   0.0000       0.891372        24.2555 
 378   0.0000       0.893623        24.3167 
 379   0.0000       0.895391        24.3648 
 380   0.0000       0.897706        24.4278 
 381   0.0000       0.897966        24.4349 
 382   0.0000       0.900747        24.5106 
 383   0.0000       0.903285        24.5796 
 384   0.0000       0.905817        24.6485 
 385   0.0000       0.907823        24.7031 
 386   0.0000       0.909580        24.7509 
 387   0.0000       0.912676        24.8352 
 388   0.0000       0.915412        24.9096 
 389   0.0000       0.918890        25.0043 
 390   0.0000       0.919739        25.0274 
 391   0.0000       0.926070        25.1996 
 392   0.0000       0.926875        25.2216 
 393   0.0000       0.928868        25.2758 
 394   0.0000       0.930726        25.3263 
 395   0.0000       0.933758        25.4089 
 396   0.0000       0.937054        25.4985 
 397   0.0000       0.941700        25.6250 
 398   0.0000       0.945682        25.7333 
 399   0.0000       0.946815        25.7641 
 400   0.0000       0.949497        25.8371 
 401   0.0000       0.952986        25.9321 
 402   0.0000       0.956983        26.0408 
 403   0.0000       0.957464        26.0539 
 404   0.0000       0.961263        26.1573 
 405   0.0000       0.964516        26.2458 
 406   0.0000       0.970164        26.3995 
 407   0.0000       0.979216        26.6458 
 408   0.0000       0.982486        26.7348 
 409   0.0000       0.986979        26.8571 
 410   0.0000       0.989904        26.9367 
 411   0.0000       0.995154        27.0795 
 412   0.0000       0.998476        27.1699 
 413   0.0000       1.005685        27.3661 
 414   0.0000       1.011037        27.5117 
 415   0.0000       1.015244        27.6262 
 416   0.0000       1.016721        27.6664 
 417   0.0000       1.024715        27.8839 
 418   0.0000       1.028033        27.9742 
 419   0.0000       1.031410        28.0661 
 420   0.0000       1.033858        28.1327 
 421   0.0000       1.040706        28.3191 
 422   0.0000       1.050460        28.5845 
 423   0.0000       1.053332        28.6626 
 424   0.0000       1.055839        28.7308 
 425   0.0000       1.073400        29.2087 
 426   0.0000       1.077467        29.3194 
 427   0.0000       1.079443        29.3731 
 428   0.0000       1.082420        29.4541 
 429   0.0000       1.084728        29.5169 
 430   0.0000       1.089031        29.6340 
 431   0.0000       1.095082        29.7987 
 432   0.0000       1.098927        29.9033 
 433   0.0000       1.104824        30.0638 
 434   0.0000       1.106771        30.1168 
 435   0.0000       1.112773        30.2801 
 436   0.0000       1.115372        30.3508 
 437   0.0000       1.119621        30.4664 
 438   0.0000       1.121189        30.5091 
 439   0.0000       1.122385        30.5416 
 440   0.0000       1.127212        30.6730 
 441   0.0000       1.130992        30.7759 
 442   0.0000       1.134634        30.8750 
 443   0.0000       1.137134        30.9430 
 444   0.0000       1.138364        30.9764 
 445   0.0000       1.140990        31.0479 
 446   0.0000       1.147532        31.2259 
 447   0.0000       1.150363        31.3030 
 448   0.0000       1.154315        31.4105 
 449   0.0000       1.160054        31.5667 
 450   0.0000       1.161320        31.6011 
 451   0.0000       1.165675        31.7196 
 452   0.0000       1.167701        31.7748 
 453   0.0000       1.168451        31.7952 
 454   0.0000       1.172734        31.9117 
 455   0.0000       1.177937        32.0533 
 456   0.0000       1.183161        32.1954 
 457   0.0000       1.193951        32.4891 
 458   0.0000       1.195284        32.5253 
 459   0.0000       1.199634        32.6437 
 460   0.0000       1.202802        32.7299 
 461   0.0000       1.206376        32.8272 
 462   0.0000       1.208415        32.8826 
 463   0.0000       1.209886        32.9227 
 464   0.0000       1.212796        33.0019 
 465   0.0000       1.215673        33.0802 
 466   0.0000       1.220902        33.2224 
 467   0.0000       1.227446        33.4005 
 468   0.0000       1.231096        33.4998 
 469   0.0000       1.232883        33.5484 
 470   0.0000       1.236584        33.6492 
 471   0.0000       1.239950        33.7408 
 472   0.0000       1.241948        33.7951 
 473   0.0000       1.243377        33.8340 
 474   0.0000       1.245298        33.8863 
 475   0.0000       1.248681        33.9783 
 476   0.0000       1.253566        34.1113 
 477   0.0000       1.254100        34.1258 
 478   0.0000       1.258680        34.2504 
 479   0.0000       1.262341        34.3501 
 480   0.0000       1.264536        34.4098 
 481   0.0000       1.270279        34.5660 
 482   0.0000       1.271510        34.5995 
 483   0.0000       1.274346        34.6767 
 484   0.0000       1.276024        34.7224 
 485   0.0000       1.282963        34.9112 
 486   0.0000       1.287478        35.0341 
 487   0.0000       1.290018        35.1032 
 488   0.0000       1.291859        35.1533 
 489   0.0000       1.296842        35.2889 
 490   0.0000       1.300673        35.3931 
 491   0.0000       1.301880        35.4259 
 492   0.0000       1.305813        35.5330 
 493   0.0000       1.309691        35.6385 
 494   0.0000       1.314314        35.7643 
 495   0.0000       1.318834        35.8873 
 496   0.0000       1.320565        35.9344 
 497   0.0000       1.325290        36.0630 
 498   0.0000       1.328048        36.1380 
 499   0.0000       1.332656        36.2634 
 500   0.0000       1.336132        36.3580 
 501   0.0000       1.338914        36.4337 
 502   0.0000       1.342273        36.5251 
 503   0.0000       1.348859        36.7043 
 504   0.0000       1.349001        36.7082 
 505   0.0000       1.351694        36.7815 
 506   0.0000       1.352518        36.8039 
 507   0.0000       1.357680        36.9444 
 508   0.0000       1.361911        37.0595 
[...]
      pz      :     0.022125  p :     0.079786
      px      :     0.043620
      py      :     0.014041
 77 H s       :     0.884376  s :     0.884376
      pz      :     0.047987  p :     0.079304
      px      :     0.015024
      py      :     0.016292
 78 H s       :     0.884715  s :     0.884715
      pz      :     0.025889  p :     0.079277
      px      :     0.020452
      py      :     0.032935
 79 H s       :     0.910833  s :     0.910833
      pz      :     0.021785  p :     0.086286
      px      :     0.021656
      py      :     0.042845
 80 H s       :     0.864209  s :     0.864209
      pz      :     0.039406  p :     0.084851
      px      :     0.030296
      py      :     0.015149
 81 H s       :     0.886667  s :     0.886667
      pz      :     0.037837  p :     0.084135
      px      :     0.016175
      py      :     0.030123
 82 H s       :     0.916070  s :     0.916070
      pz      :     0.021954  p :     0.086726
      px      :     0.031661
      py      :     0.033111
 83 H s       :     0.873379  s :     0.873379
      pz      :     0.039280  p :     0.084117
      px      :     0.015274
      py      :     0.029562
 84 H s       :     0.886597  s :     0.886597
      pz      :     0.035771  p :     0.083416
      px      :     0.031700
      py      :     0.015945
 85 H s       :     0.892731  s :     0.892731
      pz      :     0.022491  p :     0.079788
      px      :     0.014065
      py      :     0.043232
 86 H s       :     0.890948  s :     0.890948
      pz      :     0.024732  p :     0.078832
      px      :     0.032984
      py      :     0.021115
 87 H s       :     0.889754  s :     0.889754
      pz      :     0.048027  p :     0.078749
      px      :     0.015585
      py      :     0.015138
 88 H s       :     0.910502  s :     0.910502
      pz      :     0.021612  p :     0.087019
      px      :     0.042950
      py      :     0.022457
 89 H s       :     0.870837  s :     0.870837
      pz      :     0.037975  p :     0.083872
      px      :     0.030517
      py      :     0.015380


                      *****************************
                      * MAYER POPULATION ANALYSIS *
                      *****************************

  NA   - Mulliken gross atomic population
  ZA   - Total nuclear charge
  QA   - Mulliken gross atomic charge
  VA   - Mayer's total valence
  BVA  - Mayer's bonded valence
  FA   - Mayer's free valence

  ATOM       NA         ZA         QA         VA         BVA        FA
  0 C      5.7713     6.0000     0.2287     3.8516     3.8516     0.0000
  1 N      7.4555     7.0000    -0.4555     3.3486     3.3486     0.0000
  2 C      6.0736     6.0000    -0.0736     3.9245     3.9245    -0.0000
  3 N      7.3416     7.0000    -0.3416     3.4556     3.4556     0.0000
  4 C      6.0946     6.0000    -0.0946     4.1629     4.1629     0.0000
  5 N      7.5690     7.0000    -0.5690     3.0955     3.0955     0.0000
  6 C      6.1038     6.0000    -0.1038     3.9167     3.9167    -0.0000
  7 N      7.3412     7.0000    -0.3412     3.4320     3.4320    -0.0000
  8 C      5.7838     6.0000     0.2162     3.8500     3.8500    -0.0000
  9 N      7.5623     7.0000    -0.5623     3.0768     3.0768     0.0000
 10 C      5.8806     6.0000     0.1194     3.9094     3.9094     0.0000
 11 N      7.4385     7.0000    -0.4385     3.3780     3.3780    -0.0000
 12 C      6.0473     6.0000    -0.0473     3.8202     3.8202    -0.0000
 13 N      7.4292     7.0000    -0.4292     3.4293     3.4293    -0.0000
 14 C      5.7902     6.0000     0.2098     3.8085     3.8085    -0.0000
 15 N      7.4408     7.0000    -0.4408     3.3730     3.3730     0.0000
 16 C      5.7647     6.0000     0.2353     3.7764     3.7764    -0.0000
 17 C      6.1191     6.0000    -0.1191     3.9422     3.9422     0.0000
 18 C      6.1625     6.0000    -0.1625     3.7436     3.7436    -0.0000
 19 C      5.7968     6.0000     0.2032     3.8796     3.8796    -0.0000
 20 C      5.7861     6.0000     0.2139     3.8291     3.8291     0.0000
 21 C      6.0459     6.0000    -0.0459     3.8062     3.8062     0.0000
 22 C      6.0900     6.0000    -0.0900     3.9825     3.9825    -0.0000
 23 C      6.0396     6.0000    -0.0396     3.9927     3.9927     0.0000
 24 C      5.8068     6.0000     0.1932     3.8211     3.8211    -0.0000
 25 C      5.8854     6.0000     0.1146     3.8916     3.8916     0.0000
 26 C      6.0926     6.0000    -0.0926     3.9088     3.9088    -0.0000
 27 C      5.7829     6.0000     0.2171     3.8613     3.8613    -0.0000
 28 C      6.0619     6.0000    -0.0619     3.9889     3.9889    -0.0000
 29 C      6.1840     6.0000    -0.1840     3.7477     3.7477    -0.0000
 30 C      5.7537     6.0000     0.2463     3.7997     3.7997    -0.0000
 31 C      5.7694     6.0000     0.2306     3.8168     3.8168     0.0000
 32 C      6.0616     6.0000    -0.0616     3.9233     3.9233     0.0000
 33 C      6.0597     6.0000    -0.0597     3.9708     3.9708    -0.0000
 34 C      6.0513     6.0000    -0.0513     3.9832     3.9832    -0.0000
 35 C      5.7708     6.0000     0.2292     3.8162     3.8162    -0.0000
 36 C      5.8919     6.0000     0.1081     3.8744     3.8744     0.0000
 37 C      6.0643     6.0000    -0.0643     3.9178     3.9178    -0.0000
 38 C      5.7692     6.0000     0.2308     3.8013     3.8013     0.0000
 39 C      6.0575     6.0000    -0.0575     3.9829     3.9829    -0.0000
 40 C      6.1815     6.0000    -0.1815     3.7261     3.7261    -0.0000
 41 C      5.7739     6.0000     0.2261     3.8879     3.8879    -0.0000
 42 C      5.8026     6.0000     0.1974     3.8254     3.8254    -0.0000
 43 C      6.0726     6.0000    -0.0726     3.8999     3.8999    -0.0000
 44 C      6.0896     6.0000    -0.0896     3.9853     3.9853    -0.0000
 45 C      6.0618     6.0000    -0.0618     3.9917     3.9917    -0.0000
 46 C      5.7879     6.0000     0.2121     3.8285     3.8285    -0.0000
 47 C      5.8847     6.0000     0.1153     3.8927     3.8927     0.0000
 48 C      6.0664     6.0000    -0.0664     3.9094     3.9094     0.0000
 49 C      5.7619     6.0000     0.2381     3.8965     3.8965    -0.0000
 50 C      6.0459     6.0000    -0.0459     3.9902     3.9902    -0.0000
 51 C      6.1939     6.0000    -0.1939     3.7382     3.7382    -0.0000
 52 H      0.9662     1.0000     0.0338     0.9856     0.9856     0.0000
 53 H      1.0184     1.0000    -0.0184     0.9993     0.9993    -0.0000
 54 H      0.9556     1.0000     0.0444     1.0206     1.0206    -0.0000
 55 H      0.9676     1.0000     0.0324     0.9864     0.9864     0.0000
 56 H      0.9510     1.0000     0.0490     0.9695     0.9695     0.0000
 57 H      0.9520     1.0000     0.0480     0.9824     0.9824     0.0000
 58 H      0.9541     1.0000     0.0459     0.9846     0.9846     0.0000
 59 H      1.0197     1.0000    -0.0197     0.9858     0.9858    -0.0000
 60 H      0.9488     1.0000     0.0512     0.9839     0.9839     0.0000
 61 H      0.8290     1.0000     0.1710     1.0423     1.0423    -0.0000
 62 H      0.8245     1.0000     0.1755     1.0436     1.0436     0.0000
 63 H      0.9448     1.0000     0.0552     0.9852     0.9852    -0.0000
 64 H      1.0328     1.0000    -0.0328     0.9949     0.9949    -0.0000
 65 H      0.9533     1.0000     0.0467     1.0101     1.0101     0.0000
 66 H      0.9446     1.0000     0.0554     0.9855     0.9855     0.0000
 67 H      0.9376     1.0000     0.0624     0.9719     0.9719    -0.0000
 68 H      0.9429     1.0000     0.0571     0.9868     0.9868     0.0000
 69 H      0.9437     1.0000     0.0563     0.9828     0.9828    -0.0000
 70 H      1.0302     1.0000    -0.0302     0.9942     0.9942     0.0000
 71 H      0.9552     1.0000     0.0448     1.0058     1.0058    -0.0000
 72 H      0.9283     1.0000     0.0717     0.9835     0.9835     0.0000
 73 H      1.0079     1.0000    -0.0079     1.0010     1.0010     0.0000
 74 H      0.9392     1.0000     0.0608     1.0101     1.0101    -0.0000
 75 H      0.9288     1.0000     0.0712     0.9838     0.9838    -0.0000
 76 H      0.9247     1.0000     0.0753     0.9721     0.9721     0.0000
 77 H      0.9317     1.0000     0.0683     0.9855     0.9855     0.0000
 78 H      0.9324     1.0000     0.0676     0.9854     0.9854     0.0000
 79 H      1.0168     1.0000    -0.0168     0.9974     0.9974     0.0000
 80 H      0.9383     1.0000     0.0617     1.0072     1.0072    -0.0000
 81 H      0.9453     1.0000     0.0547     0.9856     0.9856     0.0000
 82 H      1.0250     1.0000    -0.0250     0.9934     0.9934    -0.0000
 83 H      0.9580     1.0000     0.0420     1.0083     1.0083    -0.0000
 84 H      0.9456     1.0000     0.0544     0.9852     0.9852     0.0000
 85 H      0.9389     1.0000     0.0611     0.9716     0.9716     0.0000
 86 H      0.9444     1.0000     0.0556     0.9839     0.9839    -0.0000
 87 H      0.9426     1.0000     0.0574     0.9857     0.9857     0.0000
 88 H      1.0143     1.0000    -0.0143     0.9968     0.9968     0.0000
 89 H      0.9525     1.0000     0.0475     1.0075     1.0075     0.0000

  Mayer bond orders larger than 0.100000
B(  0-C ,  1-N ) :   1.1040 B(  0-C , 17-C ) :   1.7219 B(  0-C , 52-H ) :   0.9600 
B(  1-N ,  8-C ) :   1.0890 B(  1-N , 10-C ) :   0.9777 B(  2-C , 12-C ) :   1.4834 
B(  2-C , 16-C ) :   1.3773 B(  2-C , 53-H ) :   0.9716 B(  3-N , 14-C ) :   1.2242 
B(  3-N , 16-C ) :   1.1787 B(  3-N , 61-H ) :   0.8980 B(  4-C ,  6-C ) :   1.2235 
B(  4-C , 17-C ) :   1.2250 B(  4-C , 18-C ) :   1.4836 B(  5-N , 19-C ) :   1.4602 
B(  5-N , 27-C ) :   1.3687 B(  6-C ,  8-C ) :   1.7293 B(  6-C , 54-H ) :   0.8539 
B(  7-N , 30-C ) :   1.1952 B(  7-N , 38-C ) :   1.1892 B(  7-N , 62-H ) :   0.8967 
B(  8-C , 55-H ) :   0.9604 B(  9-N , 41-C ) :   1.3944 B(  9-N , 49-C ) :   1.4250 
B( 10-C , 56-H ) :   0.9776 B( 10-C , 57-H ) :   0.9827 B( 10-C , 58-H ) :   0.9835 
B( 11-N , 20-C ) :   1.1312 B( 11-N , 24-C ) :   1.1065 B( 11-N , 25-C ) :   0.9603 
B( 12-C , 14-C ) :   1.3615 B( 12-C , 59-H ) :   0.9133 B( 13-N , 31-C ) :   1.1623 
B( 13-N , 35-C ) :   1.1616 B( 13-N , 36-C ) :   0.9409 B( 14-C , 18-C ) :   1.1155 
B( 15-N , 42-C ) :   1.1078 B( 15-N , 46-C ) :   1.1253 B( 15-N , 47-C ) :   0.9610 
B( 16-C , 51-C ) :   1.1673 B( 17-C , 60-H ) :   0.8714 B( 18-C , 19-C ) :   1.1124 
B( 19-C , 21-C ) :   1.2553 B( 20-C , 28-C ) :   1.6289 B( 20-C , 63-H ) :   0.9702 
B( 21-C , 26-C ) :   1.5755 B( 21-C , 64-H ) :   0.8991 B( 22-C , 23-C ) :   1.2895 
B( 22-C , 28-C ) :   1.2636 B( 22-C , 29-C ) :   1.2277 B( 23-C , 24-C ) :   1.6202 
B( 23-C , 65-H ) :   0.9703 B( 24-C , 66-H ) :   0.9695 B( 25-C , 67-H ) :   0.9761 
B( 25-C , 68-H ) :   0.9828 B( 25-C , 69-H ) :   0.9824 B( 26-C , 27-C ) :   1.2664 
B( 26-C , 70-H ) :   0.9657 B( 27-C , 29-C ) :   1.2040 B( 28-C , 71-H ) :   0.9720 
B( 29-C , 30-C ) :   1.2481 B( 30-C , 32-C ) :   1.2778 B( 31-C , 39-C ) :   1.5866 
B( 31-C , 72-H ) :   0.9681 B( 32-C , 37-C ) :   1.5809 B( 32-C , 73-H ) :   0.9786 
B( 33-C , 34-C ) :   1.3076 B( 33-C , 39-C ) :   1.3051 B( 33-C , 40-C ) :   1.1745 
B( 34-C , 35-C ) :   1.5844 B( 34-C , 74-H ) :   0.9696 B( 35-C , 75-H ) :   0.9681 
B( 36-C , 76-H ) :   0.9768 B( 36-C , 77-H ) :   0.9816 B( 36-C , 78-H ) :   0.9823 
B( 37-C , 38-C ) :   1.2841 B( 37-C , 79-H ) :   0.9764 B( 38-C , 40-C ) :   1.2349 
B( 39-C , 80-H ) :   0.9705 B( 40-C , 41-C ) :   1.2509 B( 41-C , 43-C ) :   1.1838 
B( 42-C , 50-C ) :   1.6327 B( 42-C , 81-H ) :   0.9696 B( 43-C , 48-C ) :   1.6693 
B( 43-C , 82-H ) :   0.9721 B( 44-C , 45-C ) :   1.2635 B( 44-C , 50-C ) :   1.2729 
B( 44-C , 51-C ) :   1.2599 B( 45-C , 46-C ) :   1.6341 B( 45-C , 83-H ) :   0.9718 
B( 46-C , 84-H ) :   0.9700 B( 47-C , 85-H ) :   0.9762 B( 47-C , 86-H ) :   0.9829 
B( 47-C , 87-H ) :   0.9824 B( 48-C , 49-C ) :   1.1871 B( 48-C , 88-H ) :   0.9749 
B( 49-C , 51-C ) :   1.2468 B( 50-C , 89-H ) :   0.9708 B( 54-H , 64-H ) :   0.1217 
B( 59-H , 60-H ) :   0.1003 

-------
TIMINGS
-------

Total SCF time: 0 days 0 hours 40 min 55 sec 

Total time                  ....    2455.215 sec
Sum of individual times     ....    2452.292 sec  ( 99.9%)

Fock matrix formation       ....    2435.111 sec  ( 99.2%)
Diagonalization             ....       4.575 sec  (  0.2%)
Density matrix formation    ....       0.459 sec  (  0.0%)
Population analysis         ....       0.293 sec  (  0.0%)
Initial guess               ....       2.440 sec  (  0.1%)
Orbital Transformation      ....       0.000 sec  (  0.0%)
Orbital Orthonormalization  ....       0.000 sec  (  0.0%)
DIIS solution               ....       2.417 sec  (  0.1%)
SOSCF solution              ....       5.630 sec  (  0.2%)

Maximum memory used throughout the entire SCF-calculation: 304.3 MB


           ************************************************************
           *        Program running with 8 parallel MPI-processes     *
           *              working on a common directory               *
           ************************************************************

------------------------------------------------------------------------------
                                ORCA  MP2 
------------------------------------------------------------------------------

Freezing NCore=104 chemical core electrons

----------
MP2 ENERGY (disk based algorithm)
----------

Dimension of the basis                    ...  918
Memory devoted to MP2                     ... 7000 MB   
Data format for buffers                   ... DOUBLE
Compression type for matrix containers    ... UNCOMPRESSED

-------------------------------
PARTIAL EXCHANGE TRANSFORMATION
-------------------------------

Transformation type                        ... one-operator
Generation of integrals (i,mue|j,nue)      ... ON
Generation of integrals (mue,kappa|nue,tau)... OFF
Generation of integrals (i,mue|a,nue)      ... OFF
Dimension of the basis                     ...  918
Number of internal MOs                     ...  127 (  52- 178)
Pair cutoff                                ... 2.500e-12 Eh
Number of AO pairs in the trafo            ... 421821
Total Number of distinct AO pairs          ... 421821
Memory devoted for trafo                   ... 7000.0 MB 
Max. Number of MO pairs treated together   ... 1088      
Number Format for Storage                  ... Double (8 Byte)
Integral package used                      ... LIBINT

Starting integral evaluation:
    ... done with AO integral generation
Closing buffer AOK     (38.24 GB; CompressionRatio= 1.33)
Collecting buffer AOK 
Number of MO pairs included in the trafo   ... 8128
------------------------
SORTING OF (i,mue|j,nue)
------------------------

IBATCH = 1 of  1
Closing buffer KAO     (51.03 GB; CompressionRatio= 1.00)
Collecting buffer KAO 
N(AO-Batches) Done                         ... 174960884 
N(AO-Batches) Skipped                      ... 167587579 
N(IJ)-pairs Skipped                        ...         0 
TOTAL TIME for half transformation         ...  1001.162 sec
AO-integral generation                     ...   236.927 sec
Half transformation                        ...   441.892 sec
K-integral sorting                         ...    88.750 sec

Finished integral transformation - now doing MP2 part

OPERATOR COMBINATION   0   0: ij=( 52..178, 52..178)
Process 5:   Internal MO 132
Process 2:   Internal MO  84
Process 0:   Internal MO  54
Process 0:   Internal MO  57
Process 1:   Internal MO  69
Process 0:   Internal MO  60
Process 4:   Internal MO 117
Process 0:   Internal MO  63
Process 1:   Internal MO  72
Process 3:   Internal MO 102
Process 2:   Internal MO  87
Process 0:   Internal MO  66
Process 7:   Internal MO 165
Process 1:   Internal MO  75
Process 6:   Internal MO 150
Process 1:   Internal MO  78
Process 2:   Internal MO  90
Process 5:   Internal MO 135
Process 3:   Internal MO 105
Process 4:   Internal MO 120
Process 1:   Internal MO  81
Process 2:   Internal MO  93
Process 3:   Internal MO 108
Process 2:   Internal MO  96
Process 7:   Internal MO 168
Process 4:   Internal MO 123
Process 6:   Internal MO 153
Process 5:   Internal MO 138
Process 2:   Internal MO  99
Process 3:   Internal MO 111
Process 4:   Internal MO 126
Process 5:   Internal MO 141
Process 3:   Internal MO 114
Process 6:   Internal MO 156
Process 7:   Internal MO 171
Process 4:   Internal MO 129
Process 5:   Internal MO 144
Process 6:   Internal MO 159
Process 7:   Internal MO 174
Process 5:   Internal MO 147
Process 6:   Internal MO 162
Process 7:   Internal MO 177
-----------------------------------------------
 MP2 CORRELATION ENERGY   :     -7.291819937 Eh
-----------------------------------------------


-------
TIMINGS
-------
Total time                : 1145.996 sec
Integral trafo            : 1009.937 sec ( 88.1%)
K(i,j)                    :    9.087 sec (  0.8%)
T(i,j)                    :    0.135 sec (  0.0%)

---------------------------------------
MP2 TOTAL ENERGY:    -2130.757982024 Eh
---------------------------------------

Maximum memory used throughout the entire MP2-calculation: 6735.8 MB

-------------------------   --------------------
FINAL SINGLE POINT ENERGY     -2130.757982024130
-------------------------   --------------------


                            ***************************************
                            *     ORCA property calculations      *
                            ***************************************


  WARNING: The energy has been calculated at the MP2 level but the densities
           used in the property calculations are still SCF densities
           MP2 response densities have not been calculated 
           use %mp2 Density relaxed end
           or  %mp2 Density unrelaxed end

                                    ---------------------
                                    Active property flags
                                    ---------------------
   (+) Dipole Moment


------------------------------------------------------------------------------
                       ORCA ELECTRIC PROPERTIES CALCULATION
------------------------------------------------------------------------------

Dipole Moment Calculation                       ... on
Quadrupole Moment Calculation                   ... off
Polarizability Calculation                      ... off
GBWName                                         ... /scratch/chu_02/allen/tmpyp4_amber_gaff2/conf1/conf1/Conf356.orca.gbw
Electron density                                ... /scratch/chu_02/allen/tmpyp4_amber_gaff2/conf1/conf1/Conf356.orca.scfp
The origin for moment calculation is the CENTER OF MASS  = (-0.001341, -0.005041  0.001766)

-------------
DIPOLE MOMENT
-------------
                                X             Y             Z
Electronic contribution:      2.92399      -4.35993      -0.07584
Nuclear contribution   :     -0.03189       0.16628       0.09154
                        -----------------------------------------
Total Dipole Moment    :      2.89210      -4.19365       0.01571
                        -----------------------------------------
Magnitude (a.u.)       :      5.09423
Magnitude (Debye)      :     12.94850



--------------------
Rotational spectrum 
--------------------
 
Rotational constants in cm-1:     0.001504     0.001478     0.000760 
Rotational constants in MHz :    45.074589    44.297748    22.781458 

 Dipole components along the rotational axes: 
x,y,z [a.u.] :     3.575508    -3.628575     0.018745 
x,y,z [Debye]:     9.088220    -9.223106     0.047646 

 

Timings for individual modules:

Sum of individual times         ...     3606.547 sec (=  60.109 min)
GTO integral calculation        ...        2.964 sec (=   0.049 min)   0.1 %
SCF iterations                  ...     2456.468 sec (=  40.941 min)  68.1 %
MP2 module                      ...     1147.115 sec (=  19.119 min)  31.8 %
                             ****ORCA TERMINATED NORMALLY****
TOTAL RUN TIME: 0 days 1 hours 0 minutes 8 seconds 476 msec
# of primitive gaussian functions

