 Entering Gaussian System, Link 0=g16
 Input=EWV.gjf
 Output=EWV.log
 Initial command:
 /opt/jsyu/g16c01/g16/l1.exe "/scratch/user/g16/Gau-3084347.inp" -scrdir="/scratch/user/g16/"
 Entering Link 1 = /opt/jsyu/g16c01/g16/l1.exe PID=   3084372.
  
 Copyright (c) 1988-2019, Gaussian, Inc.  All Rights Reserved.
  
 This is part of the Gaussian(R) 16 program.  It is based on
 the Gaussian(R) 09 system (copyright 2009, Gaussian, Inc.),
 the Gaussian(R) 03 system (copyright 2003, Gaussian, Inc.),
 the Gaussian(R) 98 system (copyright 1998, Gaussian, Inc.),
 the Gaussian(R) 94 system (copyright 1995, Gaussian, Inc.),
 the Gaussian 92(TM) system (copyright 1992, Gaussian, Inc.),
 the Gaussian 90(TM) system (copyright 1990, Gaussian, Inc.),
 the Gaussian 88(TM) system (copyright 1988, Gaussian, Inc.),
 the Gaussian 86(TM) system (copyright 1986, Carnegie Mellon
 University), and the Gaussian 82(TM) system (copyright 1983,
 Carnegie Mellon University). Gaussian is a federally registered
 trademark of Gaussian, Inc.
  
 This software contains proprietary and confidential information,
 including trade secrets, belonging to Gaussian, Inc.
  
 This software is provided under written license and may be
 used, copied, transmitted, or stored only in accord with that
 written license.
  
 The following legend is applicable only to US Government
 contracts under FAR:
  
                    RESTRICTED RIGHTS LEGEND
  
 Use, reproduction and disclosure by the US Government is
 subject to restrictions as set forth in subparagraphs (a)
 and (c) of the Commercial Computer Software - Restricted
 Rights clause in FAR 52.227-19.
  
 Gaussian, Inc.
 340 Quinnipiac St., Bldg. 40, Wallingford CT 06492
  
  
 ---------------------------------------------------------------
 Warning -- This program may not be used in any manner that
 competes with the business of Gaussian, Inc. or will provide
 assistance to any competitor of Gaussian, Inc.  The licensee
 of this program is prohibited from giving any competitor of
 Gaussian, Inc. access to this program.  By using this program,
 the user acknowledges that Gaussian, Inc. is engaged in the
 business of creating and licensing software in the field of
 computational chemistry and represents and warrants to the
 licensee that it is not a competitor of Gaussian, Inc. and that
 it will not use this program in any manner prohibited above.
 ---------------------------------------------------------------
  

 Cite this work as:
 Gaussian 16, Revision C.01,
 M. J. Frisch, G. W. Trucks, H. B. Schlegel, G. E. Scuseria, 
 M. A. Robb, J. R. Cheeseman, G. Scalmani, V. Barone, 
 G. A. Petersson, H. Nakatsuji, X. Li, M. Caricato, A. V. Marenich, 
 J. Bloino, B. G. Janesko, R. Gomperts, B. Mennucci, H. P. Hratchian, 
 J. V. Ortiz, A. F. Izmaylov, J. L. Sonnenberg, D. Williams-Young, 
 F. Ding, F. Lipparini, F. Egidi, J. Goings, B. Peng, A. Petrone, 
 T. Henderson, D. Ranasinghe, V. G. Zakrzewski, J. Gao, N. Rega, 
 G. Zheng, W. Liang, M. Hada, M. Ehara, K. Toyota, R. Fukuda, 
 J. Hasegawa, M. Ishida, T. Nakajima, Y. Honda, O. Kitao, H. Nakai, 
 T. Vreven, K. Throssell, J. A. Montgomery, Jr., J. E. Peralta, 
 F. Ogliaro, M. J. Bearpark, J. J. Heyd, E. N. Brothers, K. N. Kudin, 
 V. N. Staroverov, T. A. Keith, R. Kobayashi, J. Normand, 
 K. Raghavachari, A. P. Rendell, J. C. Burant, S. S. Iyengar, 
 J. Tomasi, M. Cossi, J. M. Millam, M. Klene, C. Adamo, R. Cammi, 
 J. W. Ochterski, R. L. Martin, K. Morokuma, O. Farkas, 
 J. B. Foresman, and D. J. Fox, Gaussian, Inc., Wallingford CT, 2019.
 
 ******************************************
 Gaussian 16:  ES64L-G16RevC.01  3-Jul-2019
                25-Mar-2025 
 ******************************************
 %nprocshared=32
 Will use up to   32 processors via shared memory.
 %mem=20GB
 %chk=EWV.chk
 ----------------------------------------------------------------------
 # opt b3lyp/6-31g(d) scrf=(smd,solvent=water) nosymm pop=mk geom=conne
 ctivity iop(6/33=2,6/42=6)
 ----------------------------------------------------------------------
 1/18=20,19=15,26=3,38=1,57=2/1,3;
 2/9=110,12=2,15=1,17=6,18=5,40=1/2;
 3/5=1,6=6,7=1,11=2,25=1,30=1,70=32201,71=1,72=1,74=-5/1,2,3;
 4//1;
 5/5=2,38=5,53=1/2;
 6/7=2,8=2,9=2,10=2,15=8,20=1,28=1,33=2,42=6/1,2;
 7/30=1/1,2,3,16;
 1/18=20,19=15,26=3/3(2);
 2/9=110,15=1/2;
 99//99;
 2/9=110,15=1/2;
 3/5=1,6=6,7=1,11=2,25=1,30=1,70=32205,71=1,72=1,74=-5/1,2,3;
 4/5=5,16=3,69=1/1;
 5/5=2,38=5,53=1/2;
 7/30=1/1,2,3,16;
 1/18=20,19=15,26=3/3(-5);
 2/9=110,15=1/2;
 6/7=2,8=2,9=2,10=2,15=8,19=2,20=1,28=1,33=2,42=6/1,2;
 99/9=1/99;
 ---
 EWV
 ---
 Symbolic Z-matrix:
 Charge =  1 Multiplicity = 1
 C                    -0.67032  -1.01229   0.16175 
 C                     1.55605   0.14815  -0.05391 
 C                     2.22742   1.36222   0.15338 
 C                    -2.86538  -2.15383   0.38144 
 C                    -4.85419  -0.86054   0.09749 
 C                     1.41404   2.62568   0.27296 
 C                     0.20331   2.53643  -0.64051 
 C                     4.36069   0.20245   0.12848 
 O                     5.71809   0.12049   0.20074 
 C                     6.45261   1.32887   0.43 
 C                     3.62337   1.37762   0.24547 
 N                    -0.59089   1.31381  -0.33096 
 C                    -1.9209    1.38932  -0.35212 
 C                    -2.72191   0.26524  -0.1266 
 C                    -4.12641   0.28262  -0.1374 
 O                    -4.9523    1.3432   -0.3787 
 C                    -6.29654   0.84218  -0.17833 
 O                    -6.19844  -0.58286   0.01378 
 C                    -4.25241  -2.09608   0.35909 
 C                    -2.08266  -0.99986   0.14081 
 C                     0.08597   0.11684  -0.07888 
 C                     2.30242  -1.04351  -0.19085 
 C                     3.68556  -1.02602  -0.10154 
 O                     4.49421  -2.12189  -0.23059 
 C                     3.87     -3.38405  -0.48228 
 H                    -0.16739  -1.94278   0.39519 
 H                    -2.36431  -3.09434   0.58456 
 H                     1.0876    2.78813   1.30917 
 H                     2.00429   3.49869  -0.02067 
 H                    -0.4604    3.39257  -0.52746 
 H                     0.51266   2.46038  -1.68755 
 H                     6.17316   1.78407   1.38641 
 H                     7.50193   1.03202   0.45791 
 H                     6.29461   2.04623  -0.3826 
 H                     4.12701   2.32384   0.40618 
 H                    -2.35092   2.36214  -0.55664 
 H                    -6.72044   1.30528   0.71742 
 H                    -6.89207   1.05096  -1.06854 
 H                    -4.85865  -2.97729   0.53876 
 H                     1.79587  -1.97911  -0.38786 
 H                     4.68475  -4.10694  -0.54682 
 H                     3.19593  -3.66278   0.33567 
 H                     3.31598  -3.37023  -1.42786 
 

 GradGradGradGradGradGradGradGradGradGradGradGradGradGradGradGradGradGrad
 Berny optimization.
 Initialization pass.
                           ----------------------------
                           !    Initial Parameters    !
                           ! (Angstroms and Degrees)  !
 --------------------------                            --------------------------
 ! Name  Definition              Value          Derivative Info.                !
 --------------------------------------------------------------------------------
 ! R1    R(1,20)                 1.4126         estimate D2E/DX2                !
 ! R2    R(1,21)                 1.3801         estimate D2E/DX2                !
 ! R3    R(1,26)                 1.0832         estimate D2E/DX2                !
 ! R4    R(2,3)                  1.4027         estimate D2E/DX2                !
 ! R5    R(2,21)                 1.4706         estimate D2E/DX2                !
 ! R6    R(2,22)                 1.4128         estimate D2E/DX2                !
 ! R7    R(3,6)                  1.5074         estimate D2E/DX2                !
 ! R8    R(3,11)                 1.3991         estimate D2E/DX2                !
 ! R9    R(4,19)                 1.3884         estimate D2E/DX2                !
 ! R10   R(4,20)                 1.415          estimate D2E/DX2                !
 ! R11   R(4,27)                 1.0848         estimate D2E/DX2                !
 ! R12   R(5,15)                 1.3754         estimate D2E/DX2                !
 ! R13   R(5,18)                 1.3752         estimate D2E/DX2                !
 ! R14   R(5,19)                 1.399          estimate D2E/DX2                !
 ! R15   R(6,7)                  1.5193         estimate D2E/DX2                !
 ! R16   R(6,28)                 1.0985         estimate D2E/DX2                !
 ! R17   R(6,29)                 1.094          estimate D2E/DX2                !
 ! R18   R(7,12)                 1.4904         estimate D2E/DX2                !
 ! R19   R(7,30)                 1.0892         estimate D2E/DX2                !
 ! R20   R(7,31)                 1.0944         estimate D2E/DX2                !
 ! R21   R(8,9)                  1.3618         estimate D2E/DX2                !
 ! R22   R(8,11)                 1.3922         estimate D2E/DX2                !
 ! R23   R(8,23)                 1.4205         estimate D2E/DX2                !
 ! R24   R(9,10)                 1.4326         estimate D2E/DX2                !
 ! R25   R(10,32)                1.0955         estimate D2E/DX2                !
 ! R26   R(10,33)                1.0909         estimate D2E/DX2                !
 ! R27   R(10,34)                1.0954         estimate D2E/DX2                !
 ! R28   R(11,35)                1.0839         estimate D2E/DX2                !
 ! R29   R(12,13)                1.3323         estimate D2E/DX2                !
 ! R30   R(12,21)                1.398          estimate D2E/DX2                !
 ! R31   R(13,14)                1.3986         estimate D2E/DX2                !
 ! R32   R(13,36)                1.0831         estimate D2E/DX2                !
 ! R33   R(14,15)                1.4047         estimate D2E/DX2                !
 ! R34   R(14,20)                1.4424         estimate D2E/DX2                !
 ! R35   R(15,16)                1.3657         estimate D2E/DX2                !
 ! R36   R(16,17)                1.4485         estimate D2E/DX2                !
 ! R37   R(17,18)                1.4413         estimate D2E/DX2                !
 ! R38   R(17,37)                1.0939         estimate D2E/DX2                !
 ! R39   R(17,38)                1.0912         estimate D2E/DX2                !
 ! R40   R(19,39)                1.0846         estimate D2E/DX2                !
 ! R41   R(22,23)                1.3861         estimate D2E/DX2                !
 ! R42   R(22,40)                1.082          estimate D2E/DX2                !
 ! R43   R(23,24)                1.368          estimate D2E/DX2                !
 ! R44   R(24,25)                1.4304         estimate D2E/DX2                !
 ! R45   R(25,41)                1.0911         estimate D2E/DX2                !
 ! R46   R(25,42)                1.0959         estimate D2E/DX2                !
 ! R47   R(25,43)                1.096          estimate D2E/DX2                !
 ! A1    A(20,1,21)            122.5555         estimate D2E/DX2                !
 ! A2    A(20,1,26)            118.3591         estimate D2E/DX2                !
 ! A3    A(21,1,26)            119.0745         estimate D2E/DX2                !
 ! A4    A(3,2,21)             119.9588         estimate D2E/DX2                !
 ! A5    A(3,2,22)             119.4405         estimate D2E/DX2                !
 ! A6    A(21,2,22)            120.5642         estimate D2E/DX2                !
 ! A7    A(2,3,6)              118.6142         estimate D2E/DX2                !
 ! A8    A(2,3,11)             119.7885         estimate D2E/DX2                !
 ! A9    A(6,3,11)             121.5972         estimate D2E/DX2                !
 ! A10   A(19,4,20)            121.0608         estimate D2E/DX2                !
 ! A11   A(19,4,27)            120.0332         estimate D2E/DX2                !
 ! A12   A(20,4,27)            118.906          estimate D2E/DX2                !
 ! A13   A(15,5,18)            109.8172         estimate D2E/DX2                !
 ! A14   A(15,5,19)            122.5735         estimate D2E/DX2                !
 ! A15   A(18,5,19)            127.6039         estimate D2E/DX2                !
 ! A16   A(3,6,7)              109.4552         estimate D2E/DX2                !
 ! A17   A(3,6,28)             111.0468         estimate D2E/DX2                !
 ! A18   A(3,6,29)             110.8828         estimate D2E/DX2                !
 ! A19   A(7,6,28)             109.8175         estimate D2E/DX2                !
 ! A20   A(7,6,29)             108.3893         estimate D2E/DX2                !
 ! A21   A(28,6,29)            107.1886         estimate D2E/DX2                !
 ! A22   A(6,7,12)             110.3622         estimate D2E/DX2                !
 ! A23   A(6,7,30)             112.1496         estimate D2E/DX2                !
 ! A24   A(6,7,31)             110.7344         estimate D2E/DX2                !
 ! A25   A(12,7,30)            107.3699         estimate D2E/DX2                !
 ! A26   A(12,7,31)            106.9969         estimate D2E/DX2                !
 ! A27   A(30,7,31)            109.0372         estimate D2E/DX2                !
 ! A28   A(9,8,11)             125.0449         estimate D2E/DX2                !
 ! A29   A(9,8,23)             115.4857         estimate D2E/DX2                !
 ! A30   A(11,8,23)            119.4643         estimate D2E/DX2                !
 ! A31   A(8,9,10)             117.9566         estimate D2E/DX2                !
 ! A32   A(9,10,32)            111.0652         estimate D2E/DX2                !
 ! A33   A(9,10,33)            105.5315         estimate D2E/DX2                !
 ! A34   A(9,10,34)            111.0836         estimate D2E/DX2                !
 ! A35   A(32,10,33)           109.6406         estimate D2E/DX2                !
 ! A36   A(32,10,34)           109.8004         estimate D2E/DX2                !
 ! A37   A(33,10,34)           109.6297         estimate D2E/DX2                !
 ! A38   A(3,11,8)             120.9027         estimate D2E/DX2                !
 ! A39   A(3,11,35)            118.8811         estimate D2E/DX2                !
 ! A40   A(8,11,35)            120.2157         estimate D2E/DX2                !
 ! A41   A(7,12,13)            118.8261         estimate D2E/DX2                !
 ! A42   A(7,12,21)            118.804          estimate D2E/DX2                !
 ! A43   A(13,12,21)           122.3239         estimate D2E/DX2                !
 ! A44   A(12,13,14)           121.576          estimate D2E/DX2                !
 ! A45   A(12,13,36)           116.7588         estimate D2E/DX2                !
 ! A46   A(14,13,36)           121.6647         estimate D2E/DX2                !
 ! A47   A(13,14,15)           124.1587         estimate D2E/DX2                !
 ! A48   A(13,14,20)           118.75           estimate D2E/DX2                !
 ! A49   A(15,14,20)           117.0908         estimate D2E/DX2                !
 ! A50   A(5,15,14)            121.1645         estimate D2E/DX2                !
 ! A51   A(5,15,16)            110.833          estimate D2E/DX2                !
 ! A52   A(14,15,16)           127.9982         estimate D2E/DX2                !
 ! A53   A(15,16,17)           105.5543         estimate D2E/DX2                !
 ! A54   A(16,17,18)           107.2938         estimate D2E/DX2                !
 ! A55   A(16,17,37)           109.0551         estimate D2E/DX2                !
 ! A56   A(16,17,38)           109.1135         estimate D2E/DX2                !
 ! A57   A(18,17,37)           109.6229         estimate D2E/DX2                !
 ! A58   A(18,17,38)           109.5761         estimate D2E/DX2                !
 ! A59   A(37,17,38)           112.0587         estimate D2E/DX2                !
 ! A60   A(5,18,17)            105.92           estimate D2E/DX2                !
 ! A61   A(4,19,5)             118.0004         estimate D2E/DX2                !
 ! A62   A(4,19,39)            121.4621         estimate D2E/DX2                !
 ! A63   A(5,19,39)            120.5375         estimate D2E/DX2                !
 ! A64   A(1,20,4)             122.9142         estimate D2E/DX2                !
 ! A65   A(1,20,14)            116.9729         estimate D2E/DX2                !
 ! A66   A(4,20,14)            120.1093         estimate D2E/DX2                !
 ! A67   A(1,21,2)             124.2107         estimate D2E/DX2                !
 ! A68   A(1,21,12)            117.8141         estimate D2E/DX2                !
 ! A69   A(2,21,12)            117.9568         estimate D2E/DX2                !
 ! A70   A(2,22,23)            120.6827         estimate D2E/DX2                !
 ! A71   A(2,22,40)            119.9794         estimate D2E/DX2                !
 ! A72   A(23,22,40)           119.3258         estimate D2E/DX2                !
 ! A73   A(8,23,22)            119.7087         estimate D2E/DX2                !
 ! A74   A(8,23,24)            115.2834         estimate D2E/DX2                !
 ! A75   A(22,23,24)           125.0053         estimate D2E/DX2                !
 ! A76   A(23,24,25)           117.7414         estimate D2E/DX2                !
 ! A77   A(24,25,41)           105.6138         estimate D2E/DX2                !
 ! A78   A(24,25,42)           111.1926         estimate D2E/DX2                !
 ! A79   A(24,25,43)           111.1787         estimate D2E/DX2                !
 ! A80   A(41,25,42)           109.5671         estimate D2E/DX2                !
 ! A81   A(41,25,43)           109.5578         estimate D2E/DX2                !
 ! A82   A(42,25,43)           109.6456         estimate D2E/DX2                !
 ! D1    D(21,1,20,4)          179.7567         estimate D2E/DX2                !
 ! D2    D(21,1,20,14)          -0.9286         estimate D2E/DX2                !
 ! D3    D(26,1,20,4)           -1.4544         estimate D2E/DX2                !
 ! D4    D(26,1,20,14)         177.8603         estimate D2E/DX2                !
 ! D5    D(20,1,21,2)          179.4029         estimate D2E/DX2                !
 ! D6    D(20,1,21,12)           0.9978         estimate D2E/DX2                !
 ! D7    D(26,1,21,2)            0.6223         estimate D2E/DX2                !
 ! D8    D(26,1,21,12)        -177.7828         estimate D2E/DX2                !
 ! D9    D(21,2,3,6)            -3.2373         estimate D2E/DX2                !
 ! D10   D(21,2,3,11)          176.705          estimate D2E/DX2                !
 ! D11   D(22,2,3,6)           178.9482         estimate D2E/DX2                !
 ! D12   D(22,2,3,11)           -1.1095         estimate D2E/DX2                !
 ! D13   D(3,2,21,1)          -157.896          estimate D2E/DX2                !
 ! D14   D(3,2,21,12)           20.507          estimate D2E/DX2                !
 ! D15   D(22,2,21,1)           19.8936         estimate D2E/DX2                !
 ! D16   D(22,2,21,12)        -161.7035         estimate D2E/DX2                !
 ! D17   D(3,2,22,23)            1.0124         estimate D2E/DX2                !
 ! D18   D(3,2,22,40)         -177.7164         estimate D2E/DX2                !
 ! D19   D(21,2,22,23)        -176.7886         estimate D2E/DX2                !
 ! D20   D(21,2,22,40)           4.4826         estimate D2E/DX2                !
 ! D21   D(2,3,6,7)            -34.6889         estimate D2E/DX2                !
 ! D22   D(2,3,6,28)            86.7228         estimate D2E/DX2                !
 ! D23   D(2,3,6,29)          -154.218          estimate D2E/DX2                !
 ! D24   D(11,3,6,7)           145.37           estimate D2E/DX2                !
 ! D25   D(11,3,6,28)          -93.2183         estimate D2E/DX2                !
 ! D26   D(11,3,6,29)           25.8409         estimate D2E/DX2                !
 ! D27   D(2,3,11,8)             0.2746         estimate D2E/DX2                !
 ! D28   D(2,3,11,35)         -179.9752         estimate D2E/DX2                !
 ! D29   D(6,3,11,8)          -179.7849         estimate D2E/DX2                !
 ! D30   D(6,3,11,35)           -0.0347         estimate D2E/DX2                !
 ! D31   D(20,4,19,5)           -0.2932         estimate D2E/DX2                !
 ! D32   D(20,4,19,39)         179.7561         estimate D2E/DX2                !
 ! D33   D(27,4,19,5)          179.781          estimate D2E/DX2                !
 ! D34   D(27,4,19,39)          -0.1697         estimate D2E/DX2                !
 ! D35   D(19,4,20,1)          179.6183         estimate D2E/DX2                !
 ! D36   D(19,4,20,14)           0.3244         estimate D2E/DX2                !
 ! D37   D(27,4,20,1)           -0.4551         estimate D2E/DX2                !
 ! D38   D(27,4,20,14)        -179.749          estimate D2E/DX2                !
 ! D39   D(18,5,15,14)        -179.181          estimate D2E/DX2                !
 ! D40   D(18,5,15,16)           0.1287         estimate D2E/DX2                !
 ! D41   D(19,5,15,14)           0.0297         estimate D2E/DX2                !
 ! D42   D(19,5,15,16)         179.3394         estimate D2E/DX2                !
 ! D43   D(15,5,18,17)          -4.7857         estimate D2E/DX2                !
 ! D44   D(19,5,18,17)         176.0539         estimate D2E/DX2                !
 ! D45   D(15,5,19,4)            0.118          estimate D2E/DX2                !
 ! D46   D(15,5,19,39)        -179.9308         estimate D2E/DX2                !
 ! D47   D(18,5,19,4)          179.1807         estimate D2E/DX2                !
 ! D48   D(18,5,19,39)          -0.8681         estimate D2E/DX2                !
 ! D49   D(3,6,7,12)            55.5971         estimate D2E/DX2                !
 ! D50   D(3,6,7,30)           175.2597         estimate D2E/DX2                !
 ! D51   D(3,6,7,31)           -62.6904         estimate D2E/DX2                !
 ! D52   D(28,6,7,12)          -66.5538         estimate D2E/DX2                !
 ! D53   D(28,6,7,30)           53.1088         estimate D2E/DX2                !
 ! D54   D(28,6,7,31)          175.1588         estimate D2E/DX2                !
 ! D55   D(29,6,7,12)          176.6494         estimate D2E/DX2                !
 ! D56   D(29,6,7,30)          -63.6881         estimate D2E/DX2                !
 ! D57   D(29,6,7,31)           58.3619         estimate D2E/DX2                !
 ! D58   D(6,7,12,13)          140.523          estimate D2E/DX2                !
 ! D59   D(6,7,12,21)          -41.8871         estimate D2E/DX2                !
 ! D60   D(30,7,12,13)          18.0116         estimate D2E/DX2                !
 ! D61   D(30,7,12,21)        -164.3985         estimate D2E/DX2                !
 ! D62   D(31,7,12,13)         -98.9243         estimate D2E/DX2                !
 ! D63   D(31,7,12,21)          78.6656         estimate D2E/DX2                !
 ! D64   D(11,8,9,10)            0.7627         estimate D2E/DX2                !
 ! D65   D(23,8,9,10)          179.9374         estimate D2E/DX2                !
 ! D66   D(9,8,11,3)           179.8114         estimate D2E/DX2                !
 ! D67   D(9,8,11,35)            0.0645         estimate D2E/DX2                !
 ! D68   D(23,8,11,3)            0.6669         estimate D2E/DX2                !
 ! D69   D(23,8,11,35)        -179.08           estimate D2E/DX2                !
 ! D70   D(9,8,23,22)         -179.9892         estimate D2E/DX2                !
 ! D71   D(9,8,23,24)           -0.5481         estimate D2E/DX2                !
 ! D72   D(11,8,23,22)          -0.7652         estimate D2E/DX2                !
 ! D73   D(11,8,23,24)         178.6759         estimate D2E/DX2                !
 ! D74   D(8,9,10,32)           60.8537         estimate D2E/DX2                !
 ! D75   D(8,9,10,33)          179.597          estimate D2E/DX2                !
 ! D76   D(8,9,10,34)          -61.6631         estimate D2E/DX2                !
 ! D77   D(7,12,13,14)         177.25           estimate D2E/DX2                !
 ! D78   D(7,12,13,36)          -2.4912         estimate D2E/DX2                !
 ! D79   D(21,12,13,14)         -0.2508         estimate D2E/DX2                !
 ! D80   D(21,12,13,36)       -179.992          estimate D2E/DX2                !
 ! D81   D(7,12,21,1)         -177.8943         estimate D2E/DX2                !
 ! D82   D(7,12,21,2)            3.5989         estimate D2E/DX2                !
 ! D83   D(13,12,21,1)          -0.3929         estimate D2E/DX2                !
 ! D84   D(13,12,21,2)        -178.8997         estimate D2E/DX2                !
 ! D85   D(12,13,14,15)       -179.9445         estimate D2E/DX2                !
 ! D86   D(12,13,14,20)          0.3063         estimate D2E/DX2                !
 ! D87   D(36,13,14,15)         -0.216          estimate D2E/DX2                !
 ! D88   D(36,13,14,20)       -179.9652         estimate D2E/DX2                !
 ! D89   D(13,14,15,5)        -179.7567         estimate D2E/DX2                !
 ! D90   D(13,14,15,16)          1.062          estimate D2E/DX2                !
 ! D91   D(20,14,15,5)          -0.0036         estimate D2E/DX2                !
 ! D92   D(20,14,15,16)       -179.1849         estimate D2E/DX2                !
 ! D93   D(13,14,20,1)           0.2632         estimate D2E/DX2                !
 ! D94   D(13,14,20,4)         179.5981         estimate D2E/DX2                !
 ! D95   D(15,14,20,1)        -179.5038         estimate D2E/DX2                !
 ! D96   D(15,14,20,4)          -0.1688         estimate D2E/DX2                !
 ! D97   D(5,15,16,17)           4.5556         estimate D2E/DX2                !
 ! D98   D(14,15,16,17)       -176.1939         estimate D2E/DX2                !
 ! D99   D(15,16,17,18)         -7.3544         estimate D2E/DX2                !
 ! D100  D(15,16,17,37)        111.3087         estimate D2E/DX2                !
 ! D101  D(15,16,17,38)       -125.9936         estimate D2E/DX2                !
 ! D102  D(16,17,18,5)           7.4497         estimate D2E/DX2                !
 ! D103  D(37,17,18,5)        -110.8461         estimate D2E/DX2                !
 ! D104  D(38,17,18,5)         125.7896         estimate D2E/DX2                !
 ! D105  D(2,22,23,8)           -0.0737         estimate D2E/DX2                !
 ! D106  D(2,22,23,24)        -179.4567         estimate D2E/DX2                !
 ! D107  D(40,22,23,8)         178.6633         estimate D2E/DX2                !
 ! D108  D(40,22,23,24)         -0.7197         estimate D2E/DX2                !
 ! D109  D(8,23,24,25)        -179.1467         estimate D2E/DX2                !
 ! D110  D(22,23,24,25)          0.2606         estimate D2E/DX2                !
 ! D111  D(23,24,25,41)       -179.8958         estimate D2E/DX2                !
 ! D112  D(23,24,25,42)        -61.124          estimate D2E/DX2                !
 ! D113  D(23,24,25,43)         61.3508         estimate D2E/DX2                !
 --------------------------------------------------------------------------------
 Trust Radius=3.00D-01 FncErr=1.00D-07 GrdErr=1.00D-06 EigMax=2.50D+02 EigMin=1.00D-04
 Number of steps in this run=    252 maximum allowed number of steps=    258.
 GradGradGradGradGradGradGradGradGradGradGradGradGradGradGradGradGradGrad

                          Input orientation:                          
 ---------------------------------------------------------------------
 Center     Atomic      Atomic             Coordinates (Angstroms)
 Number     Number       Type             X           Y           Z
 ---------------------------------------------------------------------
      1          6           0       -0.670318   -1.012289    0.161753
      2          6           0        1.556048    0.148154   -0.053909
      3          6           0        2.227418    1.362224    0.153383
      4          6           0       -2.865375   -2.153834    0.381444
      5          6           0       -4.854194   -0.860537    0.097494
      6          6           0        1.414042    2.625683    0.272960
      7          6           0        0.203307    2.536431   -0.640513
      8          6           0        4.360687    0.202446    0.128477
      9          8           0        5.718087    0.120487    0.200741
     10          6           0        6.452608    1.328865    0.429997
     11          6           0        3.623374    1.377623    0.245473
     12          7           0       -0.590886    1.313814   -0.330955
     13          6           0       -1.920902    1.389318   -0.352122
     14          6           0       -2.721912    0.265244   -0.126604
     15          6           0       -4.126415    0.282623   -0.137403
     16          8           0       -4.952301    1.343199   -0.378704
     17          6           0       -6.296537    0.842175   -0.178326
     18          8           0       -6.198440   -0.582858    0.013779
     19          6           0       -4.252413   -2.096080    0.359087
     20          6           0       -2.082660   -0.999864    0.140810
     21          6           0        0.085972    0.116836   -0.078879
     22          6           0        2.302417   -1.043505   -0.190848
     23          6           0        3.685556   -1.026021   -0.101541
     24          8           0        4.494211   -2.121891   -0.230586
     25          6           0        3.869999   -3.384045   -0.482277
     26          1           0       -0.167390   -1.942779    0.395193
     27          1           0       -2.364306   -3.094337    0.584557
     28          1           0        1.087601    2.788125    1.309167
     29          1           0        2.004291    3.498692   -0.020666
     30          1           0       -0.460401    3.392571   -0.527456
     31          1           0        0.512663    2.460375   -1.687551
     32          1           0        6.173162    1.784067    1.386407
     33          1           0        7.501933    1.032020    0.457910
     34          1           0        6.294608    2.046225   -0.382597
     35          1           0        4.127011    2.323835    0.406181
     36          1           0       -2.350921    2.362139   -0.556639
     37          1           0       -6.720438    1.305278    0.717418
     38          1           0       -6.892071    1.050955   -1.068541
     39          1           0       -4.858650   -2.977292    0.538755
     40          1           0        1.795874   -1.979111   -0.387856
     41          1           0        4.684750   -4.106944   -0.546823
     42          1           0        3.195929   -3.662784    0.335666
     43          1           0        3.315983   -3.370234   -1.427857
 ---------------------------------------------------------------------
                    Distance matrix (angstroms):
                    1          2          3          4          5
     1  C    0.000000
     2  C    2.519890   0.000000
     3  C    3.746366   1.402738   0.000000
     4  C    2.483881   5.003765   6.192836   0.000000
     5  C    4.187120   6.490885   7.422467   2.389277   0.000000
     6  C    4.194254   2.503030   1.507384   6.416304   7.174629
     7  C    3.741693   2.806756   2.471044   5.697349   6.136967
     8  C    5.175684   2.811087   2.428280   7.604737   9.276040
     9  O    6.488175   4.169914   3.705256   8.881498  10.618201
    10  C    7.502602   5.060093   4.234366   9.947681  11.521624
    11  C    4.914721   2.423852   1.399075   7.388744   8.769288
    12  N    2.379039   2.458626   2.860029   4.207778   4.804911
    13  C    2.756038   3.703863   4.179094   3.739529   3.724004
    14  C    2.433984   4.280179   5.077167   2.476011   2.421617
    15  C    3.702823   5.684667   6.451456   2.792086   1.375374
    16  O    4.916889   6.625121   7.199434   4.142744   2.256733
    17  C    5.933720   7.884176   8.546244   4.589367   2.248479
    18  O    5.546750   7.789162   8.648579   3.703035   1.375177
    19  C    3.747659   6.240623   7.347815   1.388420   1.398977
    20  C    1.412552   3.820479   4.914915   1.414989   2.775372
    21  C    1.380145   1.470622   2.488117   3.752105   5.039008
    22  C    2.993736   1.412753   2.431389   5.316618   7.164754
    23  C    4.363846   2.432234   2.809781   6.664828   8.543672
    24  O    5.296934   3.717139   4.174307   7.385060   9.438820
    25  C    5.162798   4.244325   5.062530   6.901065   9.100317
    26  H    1.083163   2.746622   4.088597   2.706262   4.819336
    27  H    2.717220   5.127432   6.413328   1.084837   3.380331
    28  H    4.341657   3.007801   2.160605   6.396065   7.077133
    29  H    5.247453   3.380552   2.155127   7.471706   8.127463
    30  H    4.463392   3.849228   3.436600   6.113314   6.146943
    31  H    4.108377   3.017251   2.745061   6.081349   6.558811
    32  H    7.493504   5.105728   4.155382   9.910205  11.413054
    33  H    8.429270   6.032970   5.293607  10.846040  12.505421
    34  H    7.626337   5.115140   4.158986  10.105916  11.531502
    35  H    5.848404   3.399282   2.144075   8.303228   9.534021
    36  H    3.837614   4.518725   4.739741   4.640978   4.132784
    37  H    6.502602   8.392503   8.965796   5.190361   2.925393
    38  H    6.669393   8.556591   9.206251   5.346720   3.027603
    39  H    4.641712   7.160169   8.318189   2.162400   2.162263
    40  H    2.705350   2.166632   3.412285   4.727536   6.760930
    41  H    6.225409   5.304489   6.036602   7.853707  10.096819
    42  H    4.690761   4.167041   5.120737   6.246474   8.527238
    43  H    4.896668   4.167032   5.107000   6.554570   8.681997
                    6          7          8          9         10
     6  C    0.000000
     7  C    1.519302   0.000000
     8  C    3.817810   4.829352   0.000000
     9  O    4.980565   6.079251   1.361791   0.000000
    10  C    5.205146   6.454299   2.394967   1.432570   0.000000
    11  C    2.537628   3.718154   1.392250   2.443402   2.835664
    12  N    2.470921   1.490423   5.095517   6.442815   7.084496
    13  C    3.611257   2.431317   6.410772   7.763359   8.410174
    14  C    4.778853   3.738890   7.087469   8.447585   9.252725
    15  C    6.029510   4.907063   8.491644   9.851642  10.645764
    16  O    6.526849   5.298362   9.396292  10.755834  11.433554
    17  C    7.927016   6.732911  10.680815  12.042247  12.772925
    18  O    8.265095   7.151253  10.588910  11.938730  12.801443
    19  C    7.376393   6.504829   8.917505  10.215141  11.239784
    20  C    5.038748   4.282697   6.554573   7.881017   8.851972
    21  C    2.860398   2.486693   4.280597   5.639053   6.500925
    22  C    3.803586   4.174255   2.427105   3.629741   4.820547
    23  C    4.316824   5.010750   1.420507   2.353091   3.672138
    24  O    5.681589   6.346642   2.355695   2.590786   4.022363
    25  C    6.535973   6.965752   3.671064   4.020409   5.451021
    26  H    4.835981   4.612312   5.017630   6.239689   7.384392
    27  H    6.862335   6.308643   7.503487   8.706749   9.865423
    28  H    1.098488   2.155592   4.335073   5.457683   5.629003
    29  H    1.093963   2.133940   4.054637   5.025293   4.969786
    30  H    2.177687   1.089158   5.818078   7.029262   7.277726
    31  H    2.164120   1.094429   4.817000   6.011419   6.406814
    32  H    4.959567   6.349301   2.714586   2.092939   1.095454
    33  H    6.295743   7.532578   3.265600   2.019687   1.090862
    34  H    4.958372   6.116434   2.720435   2.093114   1.095390
    35  H    2.732958   4.066475   2.152212   2.725522   2.529611
    36  H    3.864277   2.561541   7.083738   8.408776   8.918701
    37  H    8.252925   7.162259  11.151431  12.505502  13.176202
    38  H    8.559843   7.261834  11.348012  12.707987  13.431430
    39  H    8.414906   7.577283   9.760903  11.026235  12.103693
    40  H    4.667612   4.794812   3.406473   4.487595   5.770335
    41  H    7.529797   8.014146   4.374001   4.415632   5.798924
    42  H    6.536350   6.952624   4.042226   4.548915   5.960823
    43  H    6.516224   6.722898   4.034554   4.539556   5.947400
                   11         12         13         14         15
    11  C    0.000000
    12  N    4.253978   0.000000
    13  C    5.576401   1.332326   0.000000
    14  C    6.452789   2.383806   1.398577   0.000000
    15  C    7.836125   3.687924   2.476927   1.404652   0.000000
    16  O    8.598429   4.361775   3.031866   2.490015   1.365700
    17  C    9.943387   5.727145   4.413134   3.621252   2.241473
    18  O   10.018243   5.929660   4.724478   3.581233   2.250600
    19  C    8.608574   5.050774   4.253206   2.855553   2.433229
    20  C    6.182412   2.793037   2.444860   1.442446   2.428808
    21  C    3.769350   1.398011   2.391948   2.812208   4.216054
    22  C    2.792340   3.734673   4.876583   5.192382   6.564400
    23  C    2.429360   4.880104   6.109748   6.536332   7.920904
    24  O    3.637525   6.137781   7.314167   7.601425   8.950171
    25  C    4.823269   6.480144   7.505762   7.543017   8.803751
    26  H    5.041565   3.363337   3.838770   3.416609   4.572740
    27  H    7.481024   4.838902   4.601862   3.452596   3.876869
    28  H    3.090486   2.771446   3.710476   4.789442   5.962891
    29  H    2.681640   3.406599   4.468385   5.727426   6.924037
    30  H    4.618945   2.092097   2.485322   3.880114   4.823233
    31  H    3.819091   2.091118   2.975361   4.209232   5.354121
    32  H    2.822826   6.994485   8.288075   9.149774  10.519392
    33  H    3.899717   8.136058   9.464335  10.269207  11.667668
    34  H    2.824357   6.924530   8.241787   9.194295  10.572045
    35  H    1.083879   4.880785   6.166490   7.171430   8.519452
    36  H    6.107770   2.060981   1.083109   2.172449   2.766320
    37  H   10.354826   6.218566   4.917980   4.216901   2.916419
    38  H   10.602261   6.349650   5.033912   4.346816   3.017649
    39  H    9.539184   6.114229   5.337725   3.939847   3.408871
    40  H    3.874084   4.067335   5.016175   5.051314   6.344421
    41  H    5.642227   7.567268   8.595432   8.611112   9.852540
    42  H    5.059303   6.288949   7.223486   7.117861   8.331071
    43  H    5.043478   6.197348   7.157898   7.167017   8.390347
                   16         17         18         19         20
    16  O    0.000000
    17  C    1.448498   0.000000
    18  O    2.327359   1.441266   0.000000
    19  C    3.586477   3.619475   2.489197   0.000000
    20  C    3.740946   4.609958   4.138801   2.440730   0.000000
    21  C    5.194040   6.424362   6.323922   4.889826   2.449132
    22  C    7.639541   8.803292   8.515788   6.661542   4.397818
    23  C    8.961172  10.155700   9.894598   8.023002   5.773364
    24  O   10.063070  11.190561  10.805606   8.766517   6.682224
    25  C   10.009522  11.014163  10.462609   8.266821   6.442570
    26  H    5.855932   6.756577   6.194225   4.088058   2.149897
    27  H    5.226597   5.616098   4.618863   2.147627   2.159410
    28  H    6.435615   7.779772   8.131909   7.298894   5.075872
    29  H    7.291674   8.716977   9.162152   8.401906   6.079988
    30  H    4.939556   6.378628   7.001576   6.729829   4.729883
    31  H    5.729485   7.159716   7.562717   6.903330   4.695941
    32  H   11.273239  12.602736  12.670556  11.171551   8.801158
    33  H   12.486180  13.814435  13.802366  12.163857   9.802731
    34  H   11.268861  12.650233  12.772840  11.355547   8.929235
    35  H    9.165784  10.544540  10.733955   9.473786   7.048220
    36  H    2.799478   4.245150   4.878707   4.932539   3.444048
    37  H    2.080680   1.093853   2.081501   4.217675   5.211060
    38  H    2.079420   1.091207   2.078914   4.348534   5.366453
    39  H    4.417821   4.143676   2.793555   1.084591   3.431429
    40  H    7.521682   8.572670   8.125262   6.095357   4.035026
    41  H   11.072718  12.050653  11.453265   9.205277   7.478277
    42  H    9.589778  10.519779   9.891599   7.611367   5.915455
    43  H    9.575056  10.569118  10.018584   7.880181   6.101206
                   21         22         23         24         25
    21  C    0.000000
    22  C    2.504308   0.000000
    23  C    3.776724   1.386129   0.000000
    24  O    4.946462   2.443042   1.368030   0.000000
    25  C    5.170857   2.832026   2.395674   1.430392   0.000000
    26  H    2.128603   2.692969   3.991539   4.706825   4.375810
    27  H    4.093366   5.156110   6.430357   6.974910   6.331558
    28  H    3.172651   4.290363   4.825679   6.171231   7.003334
    29  H    3.888481   4.555150   4.827652   6.150994   7.146049
    30  H    3.351147   5.236911   6.074069   7.419272   8.042197
    31  H    2.874381   4.209574   4.973694   6.242807   6.847017
    32  H    6.479244   5.046342   4.037173   4.548632   5.958685
    33  H    7.491474   5.635926   4.371870   4.412207   5.794526
    34  H    6.508606   5.051810   4.040401   4.542877   5.947814
    35  H    4.629916   3.876153   3.416753   4.506083   5.782327
    36  H    3.347848   5.778042   6.937276   8.189546   8.469003
    37  H    6.955120   9.367691  10.695343  11.764886  11.644156
    38  H    7.109507   9.470782  10.822898  11.849748  11.654831
    39  H    5.865525   7.453371   8.787542   9.423354   8.797572
    40  H    2.722540   1.082015   2.135709   2.706685   2.506940
    41  H    6.261633   3.897036   3.269366   2.019095   1.091132
    42  H    4.912149   2.817127   2.717242   2.092971   1.095946
    43  H    4.940888   2.823327   2.718645   2.092854   1.096014
                   26         27         28         29         30
    26  H    0.000000
    27  H    2.487646   0.000000
    28  H    4.979137   6.858869   0.000000
    29  H    5.873563   7.932148   1.764563   0.000000
    30  H    5.422462   6.851380   2.476863   2.518492   0.000000
    31  H    4.918136   6.655393   3.068924   2.466082   1.778107
    32  H    7.421219   9.865604   5.184306   4.722211   7.089028
    33  H    8.226292  10.695117   6.704640   6.044632   8.363128
    34  H    7.633775  10.116203   5.524980   4.543949   6.889396
    35  H    6.053594   8.457281   3.204522   2.463418   4.801898
    36  H    4.919971   5.574553   3.935242   4.532868   2.153302
    37  H    7.320939   6.192750   7.969597   9.026446   6.715249
    38  H    7.505085   6.357424   8.505670   9.286265   6.866026
    39  H    4.806116   2.497509   8.318141   9.452581   7.813869
    40  H    2.113975   4.415474   5.109606   5.494051   5.827970
    41  H    5.395764   7.210727   7.995383   8.081299   9.094816
    42  H    3.778078   5.594756   6.856164   7.268680   7.993232
    43  H    4.182706   6.032546   7.098054   7.133223   7.797905
                   31         32         33         34         35
    31  H    0.000000
    32  H    6.476717   0.000000
    33  H    7.449369   1.786985   0.000000
    34  H    5.941827   1.792443   1.786812   0.000000
    35  H    4.179219   2.332151   3.614078   2.323298   0.000000
    36  H    3.080378   8.761825   9.993861   8.653049   6.549205
    37  H    7.709467  12.919818  14.227363  13.082448  10.899609
    38  H    7.563050  13.314073  14.474728  13.241963  11.189960
    39  H    7.960883  12.045328  12.994812  12.267020  10.433678
    40  H    4.800508   6.039054   6.507022   6.036718   4.957826
    41  H    7.863666   6.376265   5.946004   6.362397   6.524891
    42  H    6.984726   6.295725   6.371640   6.535327   6.059001
    43  H    6.474724   6.530725   6.360671   6.269195   6.036877
                   36         37         38         39         40
    36  H    0.000000
    37  H    4.672564   0.000000
    38  H    4.754292   1.812122   0.000000
    39  H    5.999843   4.673177   4.790091   0.000000
    40  H    6.005901   9.194368   9.226322   6.792471   0.000000
    41  H    9.557709  12.687347  12.684593   9.671147   3.591455
    42  H    8.237928  11.097825  11.223140   8.086247   2.306164
    43  H    8.107584  11.277959  11.130157   8.417042   2.308150
                   41         42         43
    41  H    0.000000
    42  H    1.786800   0.000000
    43  H    1.786753   1.791651   0.000000
 Symmetry turned off by external request.
 Stoichiometry    C20H18NO4(1+)
 Framework group  C1[X(C20H18NO4)]
 Deg. of freedom   123
 Full point group                 C1      NOp   1
 Rotational constants (GHZ):           0.5872752           0.0990713           0.0858055
 Standard basis: 6-31G(d) (6D, 7F)
   411 basis functions,   772 primitive gaussians,   411 cartesian basis functions
    88 alpha electrons       88 beta electrons
       nuclear repulsion energy      2085.1601156846 Hartrees.
 NAtoms=   43 NActive=   43 NUniq=   43 SFac= 1.00D+00 NAtFMM=   60 NAOKFM=F Big=F
 Integral buffers will be    131072 words long.
 Raffenetti 2 integral format.
 Two-electron integral symmetry is turned off.
 ------------------------------------------------------------------------------
 Polarizable Continuum Model (PCM)
 =================================
 Model                : PCM.
 Atomic radii         : SMD-Coulomb.
 Polarization charges : Total charges.
 Charge compensation  : None.
 Solution method      : On-the-fly selection.
 Cavity type          : VdW (van der Waals Surface) (Alpha=1.000).
 Cavity algorithm     : GePol (No added spheres)
                        Default sphere list used, NSphG=   43.
                        Lebedev-Laikov grids with approx.  5.0 points / Ang**2.
                        Smoothing algorithm: York/Karplus (Gamma=1.0000).
                        Polarization charges: spherical gaussians, with
                                              point-specific exponents (IZeta= 3).
                        Self-potential: point-specific (ISelfS= 7).
                        Self-field    : sphere-specific E.n sum rule (ISelfD= 2).
 1st derivatives      : Analytical E(r).r(x)/FMM algorithm (CHGder, D1EAlg=3).
                        Cavity 1st derivative terms included.
 Solvent              : Water, Eps=  78.355300 Eps(inf)=   1.777849
 ------------------------------------------------------------------------------
 ------------------------------------------------------------------------------
 Atomic radii for non-electrostatic terms: SMD-CDS.
 ------------------------------------------------------------------------------
 Nuclear repulsion after PCM non-electrostatic terms =     2085.1742991270 Hartrees.
 One-electron integrals computed using PRISM.
 NBasis=   411 RedAO= T EigKep=  2.71D-04  NBF=   411
 NBsUse=   411 1.00D-06 EigRej= -1.00D+00 NBFU=   411
 ExpMin= 1.61D-01 ExpMax= 5.48D+03 ExpMxC= 8.25D+02 IAcc=3 IRadAn=         5 AccDes= 0.00D+00
 Harris functional with IExCor=  402 and IRadAn=       5 diagonalized for initial guess.
 HarFok:  IExCor=  402 AccDes= 0.00D+00 IRadAn=         5 IDoV= 1 UseB2=F ITyADJ=14
 ICtDFT=  3500011 ScaDFX=  1.000000  1.000000  1.000000  1.000000
 FoFCou: FMM=F IPFlag=           0 FMFlag=      100000 FMFlg1=           0
         NFxFlg=           0 DoJE=T BraDBF=F KetDBF=T FulRan=T
         wScrn=  0.000000 ICntrl=       500 IOpCl=  0 I1Cent=   200000004 NGrid=           0
         NMat0=    1 NMatS0=      1 NMatT0=    0 NMatD0=    1 NMtDS0=    0 NMtDT0=    0
 Symmetry not used in FoFCou.
 Requested convergence on RMS density matrix=1.00D-08 within 128 cycles.
 Requested convergence on MAX density matrix=1.00D-06.
 Requested convergence on             energy=1.00D-06.
 No special actions if energy rises.
 Inv3:  Mode=1 IEnd=    28792812.
 Iteration    1 A*A^-1 deviation from unit magnitude is 1.07D-14 for    931.
 Iteration    1 A*A^-1 deviation from orthogonality  is 4.29D-15 for   2300    456.
 Iteration    1 A^-1*A deviation from unit magnitude is 1.07D-14 for    931.
 Iteration    1 A^-1*A deviation from orthogonality  is 1.65D-14 for   1549   1534.
 Error on total polarization charges =  0.05077
 SCF Done:  E(RB3LYP) =  -1128.45839169     A.U. after   13 cycles
            NFock= 13  Conv=0.76D-08     -V/T= 2.0094
 SMD-CDS (non-electrostatic) energy       (kcal/mol) =       8.90
 (included in total energy above)

 **********************************************************************

            Population analysis using the SCF Density.

 **********************************************************************

 Alpha  occ. eigenvalues --  -19.21038 -19.20482 -19.18734 -19.18324 -14.44627
 Alpha  occ. eigenvalues --  -10.30578 -10.27559 -10.27418 -10.26771 -10.26692
 Alpha  occ. eigenvalues --  -10.25836 -10.25437 -10.24013 -10.23544 -10.23282
 Alpha  occ. eigenvalues --  -10.23049 -10.22945 -10.21897 -10.21867 -10.21105
 Alpha  occ. eigenvalues --  -10.20864 -10.20692 -10.19789 -10.19728 -10.19280
 Alpha  occ. eigenvalues --   -1.13651  -1.07776  -1.05627  -1.04781  -1.02910
 Alpha  occ. eigenvalues --   -0.89253  -0.87302  -0.83192  -0.81894  -0.79041
 Alpha  occ. eigenvalues --   -0.78300  -0.75086  -0.74979  -0.71012  -0.70408
 Alpha  occ. eigenvalues --   -0.69666  -0.67792  -0.65667  -0.65344  -0.63102
 Alpha  occ. eigenvalues --   -0.60606  -0.58955  -0.56135  -0.55896  -0.54208
 Alpha  occ. eigenvalues --   -0.53448  -0.52218  -0.51688  -0.51074  -0.50096
 Alpha  occ. eigenvalues --   -0.49769  -0.48597  -0.47579  -0.47276  -0.46280
 Alpha  occ. eigenvalues --   -0.45623  -0.45250  -0.44947  -0.44323  -0.43403
 Alpha  occ. eigenvalues --   -0.42680  -0.42188  -0.41601  -0.40970  -0.39696
 Alpha  occ. eigenvalues --   -0.39366  -0.39298  -0.39048  -0.38212  -0.37635
 Alpha  occ. eigenvalues --   -0.37395  -0.36574  -0.35865  -0.34104  -0.33844
 Alpha  occ. eigenvalues --   -0.33391  -0.32894  -0.32485  -0.29261  -0.27622
 Alpha  occ. eigenvalues --   -0.24713  -0.22274  -0.20025
 Alpha virt. eigenvalues --   -0.08523  -0.06047  -0.00108   0.01209   0.01462
 Alpha virt. eigenvalues --    0.07297   0.08492   0.09001   0.09825   0.10408
 Alpha virt. eigenvalues --    0.11005   0.11818   0.12329   0.12527   0.13499
 Alpha virt. eigenvalues --    0.13701   0.14313   0.15044   0.15414   0.15806
 Alpha virt. eigenvalues --    0.16176   0.16866   0.16975   0.17286   0.17616
 Alpha virt. eigenvalues --    0.17827   0.18101   0.18351   0.18510   0.18983
 Alpha virt. eigenvalues --    0.19783   0.20782   0.21700   0.23414   0.23992
 Alpha virt. eigenvalues --    0.25627   0.26297   0.26906   0.27930   0.28504
 Alpha virt. eigenvalues --    0.30357   0.31617   0.32145   0.35275   0.35750
 Alpha virt. eigenvalues --    0.36469   0.38005   0.40124   0.40609   0.43472
 Alpha virt. eigenvalues --    0.44266   0.45624   0.47134   0.47857   0.48452
 Alpha virt. eigenvalues --    0.48701   0.49784   0.50344   0.50444   0.50878
 Alpha virt. eigenvalues --    0.51167   0.52078   0.52346   0.53178   0.53896
 Alpha virt. eigenvalues --    0.54427   0.54940   0.54947   0.55619   0.55692
 Alpha virt. eigenvalues --    0.56437   0.56800   0.57222   0.57894   0.58308
 Alpha virt. eigenvalues --    0.58501   0.59126   0.59762   0.61308   0.61748
 Alpha virt. eigenvalues --    0.62123   0.63408   0.63762   0.64593   0.65204
 Alpha virt. eigenvalues --    0.66239   0.67716   0.67965   0.69181   0.69369
 Alpha virt. eigenvalues --    0.71242   0.72523   0.73866   0.75320   0.75760
 Alpha virt. eigenvalues --    0.76881   0.77630   0.78197   0.78579   0.79198
 Alpha virt. eigenvalues --    0.81248   0.81742   0.81962   0.83527   0.83716
 Alpha virt. eigenvalues --    0.84113   0.84877   0.85162   0.85617   0.86174
 Alpha virt. eigenvalues --    0.86417   0.86740   0.87779   0.88186   0.88946
 Alpha virt. eigenvalues --    0.89489   0.89738   0.90546   0.91596   0.92399
 Alpha virt. eigenvalues --    0.93363   0.94060   0.94533   0.96042   0.96346
 Alpha virt. eigenvalues --    0.97050   0.98304   0.99109   0.99996   1.00636
 Alpha virt. eigenvalues --    1.01316   1.02924   1.03429   1.04413   1.05311
 Alpha virt. eigenvalues --    1.06546   1.07338   1.08042   1.10407   1.11278
 Alpha virt. eigenvalues --    1.13245   1.13430   1.14632   1.15378   1.17317
 Alpha virt. eigenvalues --    1.18896   1.19643   1.20818   1.21527   1.21726
 Alpha virt. eigenvalues --    1.23245   1.24219   1.26971   1.27710   1.28756
 Alpha virt. eigenvalues --    1.31518   1.32173   1.33976   1.34701   1.34790
 Alpha virt. eigenvalues --    1.36363   1.37561   1.38897   1.39106   1.39691
 Alpha virt. eigenvalues --    1.41476   1.42763   1.43318   1.44179   1.45658
 Alpha virt. eigenvalues --    1.46120   1.46649   1.47832   1.49187   1.50297
 Alpha virt. eigenvalues --    1.51224   1.51486   1.52866   1.53606   1.56532
 Alpha virt. eigenvalues --    1.58243   1.61403   1.64089   1.66560   1.68831
 Alpha virt. eigenvalues --    1.70964   1.73346   1.73855   1.74742   1.75173
 Alpha virt. eigenvalues --    1.76155   1.76912   1.77508   1.79118   1.80394
 Alpha virt. eigenvalues --    1.82086   1.83632   1.84110   1.84984   1.85386
 Alpha virt. eigenvalues --    1.86020   1.86222   1.87360   1.87851   1.89543
 Alpha virt. eigenvalues --    1.90132   1.91196   1.92827   1.93359   1.93825
 Alpha virt. eigenvalues --    1.93977   1.96099   1.96741   1.98065   1.98262
 Alpha virt. eigenvalues --    1.98513   1.99432   2.01729   2.03496   2.04019
 Alpha virt. eigenvalues --    2.04665   2.05039   2.06370   2.07266   2.08284
 Alpha virt. eigenvalues --    2.08599   2.09587   2.10833   2.13050   2.13471
 Alpha virt. eigenvalues --    2.15319   2.16080   2.16767   2.19345   2.21283
 Alpha virt. eigenvalues --    2.22182   2.22625   2.23393   2.23780   2.25061
 Alpha virt. eigenvalues --    2.26251   2.27810   2.27824   2.28136   2.29154
 Alpha virt. eigenvalues --    2.30258   2.31273   2.33148   2.34785   2.35137
 Alpha virt. eigenvalues --    2.36500   2.38063   2.38972   2.39769   2.40768
 Alpha virt. eigenvalues --    2.43444   2.44998   2.46925   2.47819   2.48009
 Alpha virt. eigenvalues --    2.52033   2.54133   2.55710   2.57870   2.58803
 Alpha virt. eigenvalues --    2.60628   2.61027   2.62268   2.65133   2.65408
 Alpha virt. eigenvalues --    2.65798   2.66901   2.68693   2.69994   2.70962
 Alpha virt. eigenvalues --    2.72337   2.74082   2.76127   2.76755   2.81502
 Alpha virt. eigenvalues --    2.82287   2.82825   2.85386   2.88028   2.90593
 Alpha virt. eigenvalues --    2.92743   2.95305   2.95538   2.99714   3.01822
 Alpha virt. eigenvalues --    3.05819   3.06199   3.15539   3.19008   3.29446
 Alpha virt. eigenvalues --    3.38194   3.44477   3.52210   3.94262   3.98028
 Alpha virt. eigenvalues --    4.03864   4.08090   4.08580   4.10446   4.10819
 Alpha virt. eigenvalues --    4.15229   4.19684   4.21462   4.23695   4.27405
 Alpha virt. eigenvalues --    4.28522   4.29566   4.30431   4.34763   4.37237
 Alpha virt. eigenvalues --    4.42271   4.46079   4.47957   4.49839   4.61685
 Alpha virt. eigenvalues --    4.71814   4.96372   5.01605
          Condensed to atoms (all electrons):
               1          2          3          4          5          6
     1  C    5.338726  -0.056803   0.008199  -0.081494  -0.001217  -0.001002
     2  C   -0.056803   4.856736   0.513080  -0.000209   0.000000  -0.046659
     3  C    0.008199   0.513080   4.806039   0.000000   0.000000   0.331374
     4  C   -0.081494  -0.000209   0.000000   5.129149   0.008575   0.000000
     5  C   -0.001217   0.000000   0.000000   0.008575   4.734662   0.000000
     6  C   -0.001002  -0.046659   0.331374   0.000000   0.000000   5.198595
     7  C    0.005973  -0.013402  -0.026237   0.000009   0.000002   0.341418
     8  C    0.000003  -0.034312  -0.004293   0.000000   0.000000   0.005932
     9  O    0.000000   0.000069   0.003743   0.000000   0.000000  -0.000042
    10  C    0.000000   0.000012   0.000360   0.000000   0.000000  -0.000013
    11  C   -0.000162  -0.011719   0.469737   0.000000   0.000000  -0.059901
    12  N   -0.050839  -0.033934  -0.026111  -0.000141  -0.000210  -0.033610
    13  C   -0.081620   0.004104   0.000240   0.015806   0.012264   0.001806
    14  C   -0.006735   0.001026   0.000049  -0.026089   0.005579  -0.000334
    15  C    0.018686   0.000007   0.000000  -0.081199   0.398850   0.000002
    16  O   -0.000051   0.000000   0.000000  -0.000190  -0.055369   0.000000
    17  C    0.000006   0.000000   0.000000  -0.000216  -0.056661   0.000000
    18  O   -0.000003   0.000000   0.000000   0.003038   0.225581   0.000000
    19  C    0.008507   0.000002   0.000000   0.460615   0.451731   0.000000
    20  C    0.393014   0.003844  -0.000224   0.455052  -0.053191   0.000071
    21  C    0.466120   0.334867  -0.024415   0.006394   0.000001  -0.035398
    22  C   -0.016869   0.437411  -0.061921   0.000003   0.000000   0.012232
    23  C    0.000585   0.003698  -0.027000   0.000000   0.000000  -0.000338
    24  O    0.000003   0.003321   0.000234   0.000000   0.000000   0.000000
    25  C   -0.000017   0.000425   0.000011   0.000000   0.000000   0.000000
    26  H    0.354803  -0.008707  -0.000074  -0.006535   0.000034  -0.000003
    27  H   -0.007707   0.000004   0.000000   0.365778   0.003494   0.000000
    28  H    0.000052  -0.004770  -0.025652   0.000000   0.000000   0.356952
    29  H    0.000014   0.002600  -0.026898   0.000000   0.000000   0.365041
    30  H   -0.000135   0.000789   0.003174   0.000000   0.000000  -0.026116
    31  H   -0.000257   0.001719  -0.000933   0.000000   0.000000  -0.039557
    32  H    0.000000   0.000001  -0.000154   0.000000   0.000000   0.000007
    33  H    0.000000  -0.000001   0.000002   0.000000   0.000000   0.000000
    34  H    0.000000   0.000006  -0.000045   0.000000   0.000000  -0.000003
    35  H    0.000002   0.004540  -0.032478   0.000000   0.000000  -0.008025
    36  H    0.000176  -0.000173  -0.000010  -0.000095   0.000297   0.000244
    37  H    0.000000   0.000000   0.000000   0.000002   0.003107   0.000000
    38  H    0.000000   0.000000   0.000000   0.000004   0.002918   0.000000
    39  H   -0.000133   0.000000   0.000000  -0.031831  -0.033535   0.000000
    40  H    0.006180  -0.027955   0.004451  -0.000008   0.000000  -0.000150
    41  H    0.000000   0.000003   0.000000   0.000000   0.000000   0.000000
    42  H   -0.000032  -0.000007  -0.000004   0.000000   0.000000   0.000000
    43  H    0.000009  -0.000261   0.000005   0.000000   0.000000   0.000000
               7          8          9         10         11         12
     1  C    0.005973   0.000003   0.000000   0.000000  -0.000162  -0.050839
     2  C   -0.013402  -0.034312   0.000069   0.000012  -0.011719  -0.033934
     3  C   -0.026237  -0.004293   0.003743   0.000360   0.469737  -0.026111
     4  C    0.000009   0.000000   0.000000   0.000000   0.000000  -0.000141
     5  C    0.000002   0.000000   0.000000   0.000000   0.000000  -0.000210
     6  C    0.341418   0.005932  -0.000042  -0.000013  -0.059901  -0.033610
     7  C    4.985173  -0.000197   0.000000   0.000000   0.001888   0.244162
     8  C   -0.000197   4.671955   0.279807  -0.042861   0.453658   0.000015
     9  O    0.000000   0.279807   8.251263   0.228801  -0.061484   0.000000
    10  C    0.000000  -0.042861   0.228801   4.922412  -0.004456   0.000000
    11  C    0.001888   0.453658  -0.061484  -0.004456   5.253790   0.000251
    12  N    0.244162   0.000015   0.000000   0.000000   0.000251   6.881028
    13  C   -0.039610   0.000000   0.000000   0.000000   0.000009   0.352064
    14  C    0.003342   0.000000   0.000000   0.000000  -0.000001   0.013992
    15  C   -0.000087   0.000000   0.000000   0.000000   0.000000   0.004291
    16  O    0.000001   0.000000   0.000000   0.000000   0.000000   0.000087
    17  C    0.000000   0.000000   0.000000   0.000000   0.000000   0.000002
    18  O    0.000000   0.000000   0.000000   0.000000   0.000000   0.000000
    19  C    0.000000   0.000000   0.000000   0.000000   0.000000   0.000033
    20  C    0.000103   0.000000   0.000000   0.000000   0.000001  -0.028363
    21  C   -0.025205  -0.000074   0.000000   0.000000   0.010713   0.276928
    22  C   -0.000585  -0.056724   0.003855  -0.000114  -0.066456   0.006002
    23  C    0.000020   0.470363  -0.058635   0.004936  -0.053695  -0.000094
    24  O    0.000000  -0.058729  -0.000801   0.000029   0.003550   0.000000
    25  C    0.000000   0.004974   0.000030   0.000002  -0.000110   0.000000
    26  H   -0.000098  -0.000002   0.000000   0.000000  -0.000001   0.003695
    27  H    0.000000   0.000000   0.000000   0.000000   0.000000   0.000000
    28  H   -0.034747  -0.000172   0.000000   0.000000  -0.000979  -0.002256
    29  H   -0.026811   0.000157  -0.000001  -0.000002  -0.004259   0.003207
    30  H    0.375563   0.000001   0.000000   0.000000  -0.000107  -0.034528
    31  H    0.378006  -0.000016   0.000000   0.000000   0.000321  -0.040933
    32  H    0.000000  -0.004671  -0.032617   0.369621   0.004755   0.000000
    33  H    0.000000   0.002890  -0.030776   0.384416   0.000123   0.000000
    34  H    0.000000  -0.005085  -0.032483   0.369519   0.004808   0.000000
    35  H    0.000181  -0.042570  -0.007258   0.006718   0.357903  -0.000002
    36  H   -0.003585   0.000000   0.000000   0.000000   0.000000  -0.041056
    37  H    0.000000   0.000000   0.000000   0.000000   0.000000   0.000000
    38  H    0.000000   0.000000   0.000000   0.000000   0.000000   0.000000
    39  H    0.000000   0.000000   0.000000   0.000000   0.000000   0.000000
    40  H    0.000005   0.003430  -0.000045   0.000002   0.000310  -0.000030
    41  H    0.000000   0.000032  -0.000003  -0.000001   0.000006   0.000000
    42  H    0.000000  -0.000371  -0.000004   0.000000  -0.000008   0.000000
    43  H    0.000000  -0.000259  -0.000005   0.000000  -0.000015   0.000000
              13         14         15         16         17         18
     1  C   -0.081620  -0.006735   0.018686  -0.000051   0.000006  -0.000003
     2  C    0.004104   0.001026   0.000007   0.000000   0.000000   0.000000
     3  C    0.000240   0.000049   0.000000   0.000000   0.000000   0.000000
     4  C    0.015806  -0.026089  -0.081199  -0.000190  -0.000216   0.003038
     5  C    0.012264   0.005579   0.398850  -0.055369  -0.056661   0.225581
     6  C    0.001806  -0.000334   0.000002   0.000000   0.000000   0.000000
     7  C   -0.039610   0.003342  -0.000087   0.000001   0.000000   0.000000
     8  C    0.000000   0.000000   0.000000   0.000000   0.000000   0.000000
     9  O    0.000000   0.000000   0.000000   0.000000   0.000000   0.000000
    10  C    0.000000   0.000000   0.000000   0.000000   0.000000   0.000000
    11  C    0.000009  -0.000001   0.000000   0.000000   0.000000   0.000000
    12  N    0.352064   0.013992   0.004291   0.000087   0.000002   0.000000
    13  C    5.067018   0.364830  -0.096989  -0.000214  -0.000561  -0.000020
    14  C    0.364830   4.974323   0.363292  -0.061988   0.005119   0.008448
    15  C   -0.096989   0.363292   4.956758   0.248867  -0.049222  -0.037812
    16  O   -0.000214  -0.061988   0.248867   8.280966   0.241837  -0.046195
    17  C   -0.000561   0.005119  -0.049222   0.241837   4.676697   0.245570
    18  O   -0.000020   0.008448  -0.037812  -0.046195   0.245570   8.277874
    19  C   -0.001931  -0.051185  -0.005409   0.006907   0.004876  -0.049898
    20  C   -0.046586   0.424958   0.013708   0.003094   0.000180  -0.000065
    21  C   -0.034826  -0.028420  -0.000197   0.000005   0.000000   0.000000
    22  C   -0.000046  -0.000043   0.000000   0.000000   0.000000   0.000000
    23  C    0.000001   0.000000   0.000000   0.000000   0.000000   0.000000
    24  O    0.000000   0.000000   0.000000   0.000000   0.000000   0.000000
    25  C    0.000000   0.000000   0.000000   0.000000   0.000000   0.000000
    26  H    0.000375   0.004404  -0.000196   0.000000   0.000000   0.000000
    27  H   -0.000129   0.004945   0.000195   0.000001   0.000002  -0.000034
    28  H    0.000453  -0.000082  -0.000001   0.000000   0.000000   0.000000
    29  H   -0.000107   0.000005   0.000000   0.000000   0.000000   0.000000
    30  H   -0.000395   0.001179   0.000005  -0.000001   0.000000   0.000000
    31  H   -0.000555  -0.000406  -0.000001   0.000000   0.000000   0.000000
    32  H    0.000000   0.000000   0.000000   0.000000   0.000000   0.000000
    33  H    0.000000   0.000000   0.000000   0.000000   0.000000   0.000000
    34  H    0.000000   0.000000   0.000000   0.000000   0.000000   0.000000
    35  H    0.000000   0.000000   0.000000   0.000000   0.000000   0.000000
    36  H    0.367062  -0.032111  -0.005515   0.004465  -0.000102   0.000008
    37  H    0.000002   0.000051   0.003093  -0.038562   0.370981  -0.038893
    38  H    0.000001  -0.000138   0.002364  -0.031505   0.374303  -0.032459
    39  H    0.000013   0.000473   0.004971  -0.000034  -0.000229  -0.001194
    40  H   -0.000006   0.000004   0.000000   0.000000   0.000000   0.000000
    41  H    0.000000   0.000000   0.000000   0.000000   0.000000   0.000000
    42  H    0.000000   0.000000   0.000000   0.000000   0.000000   0.000000
    43  H    0.000000   0.000000   0.000000   0.000000   0.000000   0.000000
              19         20         21         22         23         24
     1  C    0.008507   0.393014   0.466120  -0.016869   0.000585   0.000003
     2  C    0.000002   0.003844   0.334867   0.437411   0.003698   0.003321
     3  C    0.000000  -0.000224  -0.024415  -0.061921  -0.027000   0.000234
     4  C    0.460615   0.455052   0.006394   0.000003   0.000000   0.000000
     5  C    0.451731  -0.053191   0.000001   0.000000   0.000000   0.000000
     6  C    0.000000   0.000071  -0.035398   0.012232  -0.000338   0.000000
     7  C    0.000000   0.000103  -0.025205  -0.000585   0.000020   0.000000
     8  C    0.000000   0.000000  -0.000074  -0.056724   0.470363  -0.058729
     9  O    0.000000   0.000000   0.000000   0.003855  -0.058635  -0.000801
    10  C    0.000000   0.000000   0.000000  -0.000114   0.004936   0.000029
    11  C    0.000000   0.000001   0.010713  -0.066456  -0.053695   0.003550
    12  N    0.000033  -0.028363   0.276928   0.006002  -0.000094   0.000000
    13  C   -0.001931  -0.046586  -0.034826  -0.000046   0.000001   0.000000
    14  C   -0.051185   0.424958  -0.028420  -0.000043   0.000000   0.000000
    15  C   -0.005409   0.013708  -0.000197   0.000000   0.000000   0.000000
    16  O    0.006907   0.003094   0.000005   0.000000   0.000000   0.000000
    17  C    0.004876   0.000180   0.000000   0.000000   0.000000   0.000000
    18  O   -0.049898  -0.000065   0.000000   0.000000   0.000000   0.000000
    19  C    5.024618   0.004278  -0.000286   0.000000   0.000000   0.000000
    20  C    0.004278   4.689368  -0.002713   0.000901  -0.000006   0.000000
    21  C   -0.000286  -0.002713   4.814352  -0.063516   0.004994  -0.000062
    22  C    0.000000   0.000901  -0.063516   5.333084   0.462781  -0.058349
    23  C    0.000000  -0.000006   0.004994   0.462781   4.664214   0.274166
    24  O    0.000000   0.000000  -0.000062  -0.058349   0.274166   8.261800
    25  C    0.000000   0.000000  -0.000006  -0.005037  -0.042922   0.231743
    26  H    0.000066  -0.027897  -0.033680   0.004740   0.000285  -0.000002
    27  H   -0.039304  -0.033088   0.000141  -0.000001   0.000000   0.000000
    28  H    0.000000   0.000011   0.003310  -0.000311   0.000046   0.000000
    29  H    0.000000  -0.000001   0.000535  -0.000171   0.000016   0.000000
    30  H    0.000000  -0.000027   0.001931   0.000014   0.000000   0.000000
    31  H    0.000000   0.000077   0.000430  -0.000206  -0.000009   0.000000
    32  H    0.000000   0.000000   0.000000  -0.000016  -0.000310  -0.000004
    33  H    0.000000   0.000000   0.000000   0.000007   0.000044  -0.000002
    34  H    0.000000   0.000000   0.000000  -0.000008  -0.000340  -0.000005
    35  H    0.000000   0.000000  -0.000129   0.000283   0.003433  -0.000043
    36  H   -0.000026   0.002406   0.002694   0.000002   0.000000   0.000000
    37  H    0.000014  -0.000010   0.000000   0.000000   0.000000   0.000000
    38  H   -0.000090   0.000001   0.000000   0.000000   0.000000   0.000000
    39  H    0.357045   0.002564   0.000002   0.000000   0.000000   0.000000
    40  H    0.000000   0.000237  -0.011084   0.346262  -0.037520  -0.007617
    41  H    0.000000   0.000000   0.000000   0.000177   0.002904  -0.031000
    42  H    0.000000   0.000000   0.000004   0.005866  -0.005486  -0.033062
    43  H    0.000000   0.000000   0.000003   0.003855  -0.004129  -0.033507
              25         26         27         28         29         30
     1  C   -0.000017   0.354803  -0.007707   0.000052   0.000014  -0.000135
     2  C    0.000425  -0.008707   0.000004  -0.004770   0.002600   0.000789
     3  C    0.000011  -0.000074   0.000000  -0.025652  -0.026898   0.003174
     4  C    0.000000  -0.006535   0.365778   0.000000   0.000000   0.000000
     5  C    0.000000   0.000034   0.003494   0.000000   0.000000   0.000000
     6  C    0.000000  -0.000003   0.000000   0.356952   0.365041  -0.026116
     7  C    0.000000  -0.000098   0.000000  -0.034747  -0.026811   0.375563
     8  C    0.004974  -0.000002   0.000000  -0.000172   0.000157   0.000001
     9  O    0.000030   0.000000   0.000000   0.000000  -0.000001   0.000000
    10  C    0.000002   0.000000   0.000000   0.000000  -0.000002   0.000000
    11  C   -0.000110  -0.000001   0.000000  -0.000979  -0.004259  -0.000107
    12  N    0.000000   0.003695   0.000000  -0.002256   0.003207  -0.034528
    13  C    0.000000   0.000375  -0.000129   0.000453  -0.000107  -0.000395
    14  C    0.000000   0.004404   0.004945  -0.000082   0.000005   0.001179
    15  C    0.000000  -0.000196   0.000195  -0.000001   0.000000   0.000005
    16  O    0.000000   0.000000   0.000001   0.000000   0.000000  -0.000001
    17  C    0.000000   0.000000   0.000002   0.000000   0.000000   0.000000
    18  O    0.000000   0.000000  -0.000034   0.000000   0.000000   0.000000
    19  C    0.000000   0.000066  -0.039304   0.000000   0.000000   0.000000
    20  C    0.000000  -0.027897  -0.033088   0.000011  -0.000001  -0.000027
    21  C   -0.000006  -0.033680   0.000141   0.003310   0.000535   0.001931
    22  C   -0.005037   0.004740  -0.000001  -0.000311  -0.000171   0.000014
    23  C   -0.042922   0.000285   0.000000   0.000046   0.000016   0.000000
    24  O    0.231743  -0.000002   0.000000   0.000000   0.000000   0.000000
    25  C    4.920000  -0.000001   0.000000   0.000000   0.000000   0.000000
    26  H   -0.000001   0.484510   0.004908   0.000002   0.000000   0.000003
    27  H    0.000000   0.004908   0.513235   0.000000   0.000000   0.000000
    28  H    0.000000   0.000002   0.000000   0.537503  -0.026592  -0.003190
    29  H    0.000000   0.000000   0.000000  -0.026592   0.514542  -0.001434
    30  H    0.000000   0.000003   0.000000  -0.003190  -0.001434   0.484774
    31  H    0.000000  -0.000001   0.000000   0.004963  -0.002961  -0.025533
    32  H    0.000000   0.000000   0.000000   0.000000  -0.000006   0.000000
    33  H   -0.000001   0.000000   0.000000   0.000000   0.000000   0.000000
    34  H    0.000000   0.000000   0.000000   0.000000   0.000005   0.000000
    35  H    0.000002   0.000000   0.000000   0.000327   0.004557  -0.000004
    36  H    0.000000   0.000016   0.000001   0.000029  -0.000015   0.003453
    37  H    0.000000   0.000000   0.000000   0.000000   0.000000   0.000000
    38  H    0.000000   0.000000   0.000000   0.000000   0.000000   0.000000
    39  H    0.000000  -0.000008  -0.004245   0.000000   0.000000   0.000000
    40  H    0.007337   0.003313   0.000004   0.000000   0.000002   0.000000
    41  H    0.384369   0.000000   0.000000   0.000000   0.000000   0.000000
    42  H    0.368654   0.000167   0.000000   0.000000   0.000000   0.000000
    43  H    0.369132  -0.000054   0.000000   0.000000   0.000000   0.000000
              31         32         33         34         35         36
     1  C   -0.000257   0.000000   0.000000   0.000000   0.000002   0.000176
     2  C    0.001719   0.000001  -0.000001   0.000006   0.004540  -0.000173
     3  C   -0.000933  -0.000154   0.000002  -0.000045  -0.032478  -0.000010
     4  C    0.000000   0.000000   0.000000   0.000000   0.000000  -0.000095
     5  C    0.000000   0.000000   0.000000   0.000000   0.000000   0.000297
     6  C   -0.039557   0.000007   0.000000  -0.000003  -0.008025   0.000244
     7  C    0.378006   0.000000   0.000000   0.000000   0.000181  -0.003585
     8  C   -0.000016  -0.004671   0.002890  -0.005085  -0.042570   0.000000
     9  O    0.000000  -0.032617  -0.030776  -0.032483  -0.007258   0.000000
    10  C    0.000000   0.369621   0.384416   0.369519   0.006718   0.000000
    11  C    0.000321   0.004755   0.000123   0.004808   0.357903   0.000000
    12  N   -0.040933   0.000000   0.000000   0.000000  -0.000002  -0.041056
    13  C   -0.000555   0.000000   0.000000   0.000000   0.000000   0.367062
    14  C   -0.000406   0.000000   0.000000   0.000000   0.000000  -0.032111
    15  C   -0.000001   0.000000   0.000000   0.000000   0.000000  -0.005515
    16  O    0.000000   0.000000   0.000000   0.000000   0.000000   0.004465
    17  C    0.000000   0.000000   0.000000   0.000000   0.000000  -0.000102
    18  O    0.000000   0.000000   0.000000   0.000000   0.000000   0.000008
    19  C    0.000000   0.000000   0.000000   0.000000   0.000000  -0.000026
    20  C    0.000077   0.000000   0.000000   0.000000   0.000000   0.002406
    21  C    0.000430   0.000000   0.000000   0.000000  -0.000129   0.002694
    22  C   -0.000206  -0.000016   0.000007  -0.000008   0.000283   0.000002
    23  C   -0.000009  -0.000310   0.000044  -0.000340   0.003433   0.000000
    24  O    0.000000  -0.000004  -0.000002  -0.000005  -0.000043   0.000000
    25  C    0.000000   0.000000  -0.000001   0.000000   0.000002   0.000000
    26  H   -0.000001   0.000000   0.000000   0.000000   0.000000   0.000016
    27  H    0.000000   0.000000   0.000000   0.000000   0.000000   0.000001
    28  H    0.004963   0.000000   0.000000   0.000000   0.000327   0.000029
    29  H   -0.002961  -0.000006   0.000000   0.000005   0.004557  -0.000015
    30  H   -0.025533   0.000000   0.000000   0.000000  -0.000004   0.003453
    31  H    0.504152   0.000000   0.000000   0.000000  -0.000004   0.000408
    32  H    0.000000   0.549990  -0.028344  -0.041390   0.001322   0.000000
    33  H    0.000000  -0.028344   0.508738  -0.028447  -0.000093   0.000000
    34  H    0.000000  -0.041390  -0.028447   0.550139   0.001503   0.000000
    35  H   -0.000004   0.001322  -0.000093   0.001503   0.525868   0.000000
    36  H    0.000408   0.000000   0.000000   0.000000   0.000000   0.442024
    37  H    0.000000   0.000000   0.000000   0.000000   0.000000   0.000004
    38  H    0.000000   0.000000   0.000000   0.000000   0.000000   0.000003
    39  H    0.000000   0.000000   0.000000   0.000000   0.000000   0.000000
    40  H    0.000002   0.000000   0.000000   0.000000   0.000013   0.000000
    41  H    0.000000   0.000000   0.000000   0.000000   0.000000   0.000000
    42  H    0.000000   0.000000   0.000000   0.000000   0.000000   0.000000
    43  H    0.000000   0.000000   0.000000   0.000000   0.000000   0.000000
              37         38         39         40         41         42
     1  C    0.000000   0.000000  -0.000133   0.006180   0.000000  -0.000032
     2  C    0.000000   0.000000   0.000000  -0.027955   0.000003  -0.000007
     3  C    0.000000   0.000000   0.000000   0.004451   0.000000  -0.000004
     4  C    0.000002   0.000004  -0.031831  -0.000008   0.000000   0.000000
     5  C    0.003107   0.002918  -0.033535   0.000000   0.000000   0.000000
     6  C    0.000000   0.000000   0.000000  -0.000150   0.000000   0.000000
     7  C    0.000000   0.000000   0.000000   0.000005   0.000000   0.000000
     8  C    0.000000   0.000000   0.000000   0.003430   0.000032  -0.000371
     9  O    0.000000   0.000000   0.000000  -0.000045  -0.000003  -0.000004
    10  C    0.000000   0.000000   0.000000   0.000002  -0.000001   0.000000
    11  C    0.000000   0.000000   0.000000   0.000310   0.000006  -0.000008
    12  N    0.000000   0.000000   0.000000  -0.000030   0.000000   0.000000
    13  C    0.000002   0.000001   0.000013  -0.000006   0.000000   0.000000
    14  C    0.000051  -0.000138   0.000473   0.000004   0.000000   0.000000
    15  C    0.003093   0.002364   0.004971   0.000000   0.000000   0.000000
    16  O   -0.038562  -0.031505  -0.000034   0.000000   0.000000   0.000000
    17  C    0.370981   0.374303  -0.000229   0.000000   0.000000   0.000000
    18  O   -0.038893  -0.032459  -0.001194   0.000000   0.000000   0.000000
    19  C    0.000014  -0.000090   0.357045   0.000000   0.000000   0.000000
    20  C   -0.000010   0.000001   0.002564   0.000237   0.000000   0.000000
    21  C    0.000000   0.000000   0.000002  -0.011084   0.000000   0.000004
    22  C    0.000000   0.000000   0.000000   0.346262   0.000177   0.005866
    23  C    0.000000   0.000000   0.000000  -0.037520   0.002904  -0.005486
    24  O    0.000000   0.000000   0.000000  -0.007617  -0.031000  -0.033062
    25  C    0.000000   0.000000   0.000000   0.007337   0.384369   0.368654
    26  H    0.000000   0.000000  -0.000008   0.003313   0.000000   0.000167
    27  H    0.000000   0.000000  -0.004245   0.000004   0.000000   0.000000
    28  H    0.000000   0.000000   0.000000   0.000000   0.000000   0.000000
    29  H    0.000000   0.000000   0.000000   0.000002   0.000000   0.000000
    30  H    0.000000   0.000000   0.000000   0.000000   0.000000   0.000000
    31  H    0.000000   0.000000   0.000000   0.000002   0.000000   0.000000
    32  H    0.000000   0.000000   0.000000   0.000000   0.000000   0.000000
    33  H    0.000000   0.000000   0.000000   0.000000   0.000000   0.000000
    34  H    0.000000   0.000000   0.000000   0.000000   0.000000   0.000000
    35  H    0.000000   0.000000   0.000000   0.000013   0.000000   0.000000
    36  H    0.000004   0.000003   0.000000   0.000000   0.000000   0.000000
    37  H    0.547041  -0.050287   0.000002   0.000000   0.000000   0.000000
    38  H   -0.050287   0.525393   0.000001   0.000000   0.000000   0.000000
    39  H    0.000002   0.000001   0.503252   0.000000   0.000000   0.000000
    40  H    0.000000   0.000000   0.000000   0.512986  -0.000133   0.000631
    41  H    0.000000   0.000000   0.000000  -0.000133   0.511170  -0.028512
    42  H    0.000000   0.000000   0.000000   0.000631  -0.028512   0.556448
    43  H    0.000000   0.000000   0.000000   0.002576  -0.028701  -0.042792
              43
     1  C    0.000009
     2  C   -0.000261
     3  C    0.000005
     4  C    0.000000
     5  C    0.000000
     6  C    0.000000
     7  C    0.000000
     8  C   -0.000259
     9  O   -0.000005
    10  C    0.000000
    11  C   -0.000015
    12  N    0.000000
    13  C    0.000000
    14  C    0.000000
    15  C    0.000000
    16  O    0.000000
    17  C    0.000000
    18  O    0.000000
    19  C    0.000000
    20  C    0.000000
    21  C    0.000003
    22  C    0.003855
    23  C   -0.004129
    24  O   -0.033507
    25  C    0.369132
    26  H   -0.000054
    27  H    0.000000
    28  H    0.000000
    29  H    0.000000
    30  H    0.000000
    31  H    0.000000
    32  H    0.000000
    33  H    0.000000
    34  H    0.000000
    35  H    0.000000
    36  H    0.000000
    37  H    0.000000
    38  H    0.000000
    39  H    0.000000
    40  H    0.002576
    41  H   -0.028701
    42  H   -0.042792
    43  H    0.555123
 Mulliken charges:
               1
     1  C   -0.295982
     2  C    0.070648
     3  C    0.115752
     4  C   -0.216419
     5  C    0.353089
     6  C   -0.362525
     7  C   -0.165280
     8  C    0.357117
     9  O   -0.543412
    10  C   -0.239381
    11  C   -0.298469
[...]
 ! D107  D(40,22,23,8)         178.6633         -DE/DX =    0.0                 !
 ! D108  D(40,22,23,24)         -0.7197         -DE/DX =    0.0                 !
 ! D109  D(8,23,24,25)        -179.1467         -DE/DX =    0.0                 !
 ! D110  D(22,23,24,25)          0.2606         -DE/DX =    0.0                 !
 ! D111  D(23,24,25,41)       -179.8958         -DE/DX =    0.0                 !
 ! D112  D(23,24,25,42)        -61.124          -DE/DX =    0.0                 !
 ! D113  D(23,24,25,43)         61.3508         -DE/DX =    0.0                 !
 --------------------------------------------------------------------------------
 GradGradGradGradGradGradGradGradGradGradGradGradGradGradGradGradGradGrad

                          Input orientation:                          
 ---------------------------------------------------------------------
 Center     Atomic      Atomic             Coordinates (Angstroms)
 Number     Number       Type             X           Y           Z
 ---------------------------------------------------------------------
      1          6           0       -0.670318   -1.012289    0.161753
      2          6           0        1.556048    0.148154   -0.053909
      3          6           0        2.227418    1.362224    0.153383
      4          6           0       -2.865375   -2.153834    0.381444
      5          6           0       -4.854194   -0.860537    0.097494
      6          6           0        1.414042    2.625683    0.272960
      7          6           0        0.203307    2.536431   -0.640513
      8          6           0        4.360687    0.202446    0.128477
      9          8           0        5.718087    0.120487    0.200741
     10          6           0        6.452608    1.328865    0.429997
     11          6           0        3.623374    1.377623    0.245473
     12          7           0       -0.590886    1.313814   -0.330955
     13          6           0       -1.920902    1.389318   -0.352122
     14          6           0       -2.721912    0.265244   -0.126604
     15          6           0       -4.126415    0.282623   -0.137403
     16          8           0       -4.952301    1.343199   -0.378704
     17          6           0       -6.296537    0.842175   -0.178326
     18          8           0       -6.198440   -0.582858    0.013779
     19          6           0       -4.252413   -2.096080    0.359087
     20          6           0       -2.082660   -0.999864    0.140810
     21          6           0        0.085972    0.116836   -0.078879
     22          6           0        2.302417   -1.043505   -0.190848
     23          6           0        3.685556   -1.026021   -0.101541
     24          8           0        4.494211   -2.121891   -0.230586
     25          6           0        3.869999   -3.384045   -0.482277
     26          1           0       -0.167390   -1.942779    0.395193
     27          1           0       -2.364306   -3.094337    0.584557
     28          1           0        1.087601    2.788125    1.309167
     29          1           0        2.004291    3.498692   -0.020666
     30          1           0       -0.460401    3.392571   -0.527456
     31          1           0        0.512663    2.460375   -1.687551
     32          1           0        6.173162    1.784067    1.386407
     33          1           0        7.501933    1.032020    0.457910
     34          1           0        6.294608    2.046225   -0.382597
     35          1           0        4.127011    2.323835    0.406181
     36          1           0       -2.350921    2.362139   -0.556639
     37          1           0       -6.720438    1.305278    0.717418
     38          1           0       -6.892071    1.050955   -1.068541
     39          1           0       -4.858650   -2.977292    0.538755
     40          1           0        1.795874   -1.979111   -0.387856
     41          1           0        4.684750   -4.106944   -0.546823
     42          1           0        3.195929   -3.662784    0.335666
     43          1           0        3.315983   -3.370234   -1.427857
 ---------------------------------------------------------------------
                    Distance matrix (angstroms):
                    1          2          3          4          5
     1  C    0.000000
     2  C    2.519890   0.000000
     3  C    3.746366   1.402738   0.000000
     4  C    2.483881   5.003765   6.192836   0.000000
     5  C    4.187120   6.490885   7.422467   2.389277   0.000000
     6  C    4.194254   2.503030   1.507384   6.416304   7.174629
     7  C    3.741693   2.806756   2.471044   5.697349   6.136967
     8  C    5.175684   2.811087   2.428280   7.604737   9.276040
     9  O    6.488175   4.169914   3.705256   8.881498  10.618201
    10  C    7.502602   5.060093   4.234366   9.947681  11.521624
    11  C    4.914721   2.423852   1.399075   7.388744   8.769288
    12  N    2.379039   2.458626   2.860029   4.207778   4.804911
    13  C    2.756038   3.703863   4.179094   3.739529   3.724004
    14  C    2.433984   4.280179   5.077167   2.476011   2.421617
    15  C    3.702823   5.684667   6.451456   2.792086   1.375374
    16  O    4.916889   6.625121   7.199434   4.142744   2.256733
    17  C    5.933720   7.884176   8.546244   4.589367   2.248479
    18  O    5.546750   7.789162   8.648579   3.703035   1.375177
    19  C    3.747659   6.240623   7.347815   1.388420   1.398977
    20  C    1.412552   3.820479   4.914915   1.414989   2.775372
    21  C    1.380145   1.470622   2.488117   3.752105   5.039008
    22  C    2.993736   1.412753   2.431389   5.316618   7.164754
    23  C    4.363846   2.432234   2.809781   6.664828   8.543672
    24  O    5.296934   3.717139   4.174307   7.385060   9.438820
    25  C    5.162798   4.244325   5.062530   6.901065   9.100317
    26  H    1.083163   2.746622   4.088597   2.706262   4.819336
    27  H    2.717220   5.127432   6.413328   1.084837   3.380331
    28  H    4.341657   3.007801   2.160605   6.396065   7.077133
    29  H    5.247453   3.380552   2.155127   7.471706   8.127463
    30  H    4.463392   3.849228   3.436600   6.113314   6.146943
    31  H    4.108377   3.017251   2.745061   6.081349   6.558811
    32  H    7.493504   5.105728   4.155382   9.910205  11.413054
    33  H    8.429270   6.032970   5.293607  10.846040  12.505421
    34  H    7.626337   5.115140   4.158986  10.105916  11.531502
    35  H    5.848404   3.399282   2.144075   8.303228   9.534021
    36  H    3.837614   4.518725   4.739741   4.640978   4.132784
    37  H    6.502602   8.392503   8.965796   5.190361   2.925393
    38  H    6.669393   8.556591   9.206251   5.346720   3.027603
    39  H    4.641712   7.160169   8.318189   2.162400   2.162263
    40  H    2.705350   2.166632   3.412285   4.727536   6.760930
    41  H    6.225409   5.304489   6.036602   7.853707  10.096819
    42  H    4.690761   4.167041   5.120737   6.246474   8.527238
    43  H    4.896668   4.167032   5.107000   6.554570   8.681997
                    6          7          8          9         10
     6  C    0.000000
     7  C    1.519302   0.000000
     8  C    3.817810   4.829352   0.000000
     9  O    4.980565   6.079251   1.361791   0.000000
    10  C    5.205146   6.454299   2.394967   1.432570   0.000000
    11  C    2.537628   3.718154   1.392250   2.443402   2.835664
    12  N    2.470921   1.490423   5.095517   6.442815   7.084496
    13  C    3.611257   2.431317   6.410772   7.763359   8.410174
    14  C    4.778853   3.738890   7.087469   8.447585   9.252725
    15  C    6.029510   4.907063   8.491644   9.851642  10.645764
    16  O    6.526849   5.298362   9.396292  10.755834  11.433554
    17  C    7.927016   6.732911  10.680815  12.042247  12.772925
    18  O    8.265095   7.151253  10.588910  11.938730  12.801443
    19  C    7.376393   6.504829   8.917505  10.215141  11.239784
    20  C    5.038748   4.282697   6.554573   7.881017   8.851972
    21  C    2.860398   2.486693   4.280597   5.639053   6.500925
    22  C    3.803586   4.174255   2.427105   3.629741   4.820547
    23  C    4.316824   5.010750   1.420507   2.353091   3.672138
    24  O    5.681589   6.346642   2.355695   2.590786   4.022363
    25  C    6.535973   6.965752   3.671064   4.020409   5.451021
    26  H    4.835981   4.612312   5.017630   6.239689   7.384392
    27  H    6.862335   6.308643   7.503487   8.706749   9.865423
    28  H    1.098488   2.155592   4.335073   5.457683   5.629003
    29  H    1.093963   2.133940   4.054637   5.025293   4.969786
    30  H    2.177687   1.089158   5.818078   7.029262   7.277726
    31  H    2.164120   1.094429   4.817000   6.011419   6.406814
    32  H    4.959567   6.349301   2.714586   2.092939   1.095454
    33  H    6.295743   7.532578   3.265600   2.019687   1.090862
    34  H    4.958372   6.116434   2.720435   2.093114   1.095390
    35  H    2.732958   4.066475   2.152212   2.725522   2.529611
    36  H    3.864277   2.561541   7.083738   8.408776   8.918701
    37  H    8.252925   7.162259  11.151431  12.505502  13.176202
    38  H    8.559843   7.261834  11.348012  12.707987  13.431430
    39  H    8.414906   7.577283   9.760903  11.026235  12.103693
    40  H    4.667612   4.794812   3.406473   4.487595   5.770335
    41  H    7.529797   8.014146   4.374001   4.415632   5.798924
    42  H    6.536350   6.952624   4.042226   4.548915   5.960823
    43  H    6.516224   6.722898   4.034554   4.539556   5.947400
                   11         12         13         14         15
    11  C    0.000000
    12  N    4.253978   0.000000
    13  C    5.576401   1.332326   0.000000
    14  C    6.452789   2.383806   1.398577   0.000000
    15  C    7.836125   3.687924   2.476927   1.404652   0.000000
    16  O    8.598429   4.361775   3.031866   2.490015   1.365700
    17  C    9.943387   5.727145   4.413134   3.621252   2.241473
    18  O   10.018243   5.929660   4.724478   3.581233   2.250600
    19  C    8.608574   5.050774   4.253206   2.855553   2.433229
    20  C    6.182412   2.793037   2.444860   1.442446   2.428808
    21  C    3.769350   1.398011   2.391948   2.812208   4.216054
    22  C    2.792340   3.734673   4.876583   5.192382   6.564400
    23  C    2.429360   4.880104   6.109748   6.536332   7.920904
    24  O    3.637525   6.137781   7.314167   7.601425   8.950171
    25  C    4.823269   6.480144   7.505762   7.543017   8.803751
    26  H    5.041565   3.363337   3.838770   3.416609   4.572740
    27  H    7.481024   4.838902   4.601862   3.452596   3.876869
    28  H    3.090486   2.771446   3.710476   4.789442   5.962891
    29  H    2.681640   3.406599   4.468385   5.727426   6.924037
    30  H    4.618945   2.092097   2.485322   3.880114   4.823233
    31  H    3.819091   2.091118   2.975361   4.209232   5.354121
    32  H    2.822826   6.994485   8.288075   9.149774  10.519392
    33  H    3.899717   8.136058   9.464335  10.269207  11.667668
    34  H    2.824357   6.924530   8.241787   9.194295  10.572045
    35  H    1.083879   4.880785   6.166490   7.171430   8.519452
    36  H    6.107770   2.060981   1.083109   2.172449   2.766320
    37  H   10.354826   6.218566   4.917980   4.216901   2.916419
    38  H   10.602261   6.349650   5.033912   4.346816   3.017649
    39  H    9.539184   6.114229   5.337725   3.939847   3.408871
    40  H    3.874084   4.067335   5.016175   5.051314   6.344421
    41  H    5.642227   7.567268   8.595432   8.611112   9.852540
    42  H    5.059303   6.288949   7.223486   7.117861   8.331071
    43  H    5.043478   6.197348   7.157898   7.167017   8.390347
                   16         17         18         19         20
    16  O    0.000000
    17  C    1.448498   0.000000
    18  O    2.327359   1.441266   0.000000
    19  C    3.586477   3.619475   2.489197   0.000000
    20  C    3.740946   4.609958   4.138801   2.440730   0.000000
    21  C    5.194040   6.424362   6.323922   4.889826   2.449132
    22  C    7.639541   8.803292   8.515788   6.661542   4.397818
    23  C    8.961172  10.155700   9.894598   8.023002   5.773364
    24  O   10.063070  11.190561  10.805606   8.766517   6.682224
    25  C   10.009522  11.014163  10.462609   8.266821   6.442570
    26  H    5.855932   6.756577   6.194225   4.088058   2.149897
    27  H    5.226597   5.616098   4.618863   2.147627   2.159410
    28  H    6.435615   7.779772   8.131909   7.298894   5.075872
    29  H    7.291674   8.716977   9.162152   8.401906   6.079988
    30  H    4.939556   6.378628   7.001576   6.729829   4.729883
    31  H    5.729485   7.159716   7.562717   6.903330   4.695941
    32  H   11.273239  12.602736  12.670556  11.171551   8.801158
    33  H   12.486180  13.814435  13.802366  12.163857   9.802731
    34  H   11.268861  12.650233  12.772840  11.355547   8.929235
    35  H    9.165784  10.544540  10.733955   9.473786   7.048220
    36  H    2.799478   4.245150   4.878707   4.932539   3.444048
    37  H    2.080680   1.093853   2.081501   4.217675   5.211060
    38  H    2.079420   1.091207   2.078914   4.348534   5.366453
    39  H    4.417821   4.143676   2.793555   1.084591   3.431429
    40  H    7.521682   8.572670   8.125262   6.095357   4.035026
    41  H   11.072718  12.050653  11.453265   9.205277   7.478277
    42  H    9.589778  10.519779   9.891599   7.611367   5.915455
    43  H    9.575056  10.569118  10.018584   7.880181   6.101206
                   21         22         23         24         25
    21  C    0.000000
    22  C    2.504308   0.000000
    23  C    3.776724   1.386129   0.000000
    24  O    4.946462   2.443042   1.368030   0.000000
    25  C    5.170857   2.832026   2.395674   1.430392   0.000000
    26  H    2.128603   2.692969   3.991539   4.706825   4.375810
    27  H    4.093366   5.156110   6.430357   6.974910   6.331558
    28  H    3.172651   4.290363   4.825679   6.171231   7.003334
    29  H    3.888481   4.555150   4.827652   6.150994   7.146049
    30  H    3.351147   5.236911   6.074069   7.419272   8.042197
    31  H    2.874381   4.209574   4.973694   6.242807   6.847017
    32  H    6.479244   5.046342   4.037173   4.548632   5.958685
    33  H    7.491474   5.635926   4.371870   4.412207   5.794526
    34  H    6.508606   5.051810   4.040401   4.542877   5.947814
    35  H    4.629916   3.876153   3.416753   4.506083   5.782327
    36  H    3.347848   5.778042   6.937276   8.189546   8.469003
    37  H    6.955120   9.367691  10.695343  11.764886  11.644156
    38  H    7.109507   9.470782  10.822898  11.849748  11.654831
    39  H    5.865525   7.453371   8.787542   9.423354   8.797572
    40  H    2.722540   1.082015   2.135709   2.706685   2.506940
    41  H    6.261633   3.897036   3.269366   2.019095   1.091132
    42  H    4.912149   2.817127   2.717242   2.092971   1.095946
    43  H    4.940888   2.823327   2.718645   2.092854   1.096014
                   26         27         28         29         30
    26  H    0.000000
    27  H    2.487646   0.000000
    28  H    4.979137   6.858869   0.000000
    29  H    5.873563   7.932148   1.764563   0.000000
    30  H    5.422462   6.851380   2.476863   2.518492   0.000000
    31  H    4.918136   6.655393   3.068924   2.466082   1.778107
    32  H    7.421219   9.865604   5.184306   4.722211   7.089028
    33  H    8.226292  10.695117   6.704640   6.044632   8.363128
    34  H    7.633775  10.116203   5.524980   4.543949   6.889396
    35  H    6.053594   8.457281   3.204522   2.463418   4.801898
    36  H    4.919971   5.574553   3.935242   4.532868   2.153302
    37  H    7.320939   6.192750   7.969597   9.026446   6.715249
    38  H    7.505085   6.357424   8.505670   9.286265   6.866026
    39  H    4.806116   2.497509   8.318141   9.452581   7.813869
    40  H    2.113975   4.415474   5.109606   5.494051   5.827970
    41  H    5.395764   7.210727   7.995383   8.081299   9.094816
    42  H    3.778078   5.594756   6.856164   7.268680   7.993232
    43  H    4.182706   6.032546   7.098054   7.133223   7.797905
                   31         32         33         34         35
    31  H    0.000000
    32  H    6.476717   0.000000
    33  H    7.449369   1.786985   0.000000
    34  H    5.941827   1.792443   1.786812   0.000000
    35  H    4.179219   2.332151   3.614078   2.323298   0.000000
    36  H    3.080378   8.761825   9.993861   8.653049   6.549205
    37  H    7.709467  12.919818  14.227363  13.082448  10.899609
    38  H    7.563050  13.314073  14.474728  13.241963  11.189960
    39  H    7.960883  12.045328  12.994812  12.267020  10.433678
    40  H    4.800508   6.039054   6.507022   6.036718   4.957826
    41  H    7.863666   6.376265   5.946004   6.362397   6.524891
    42  H    6.984726   6.295725   6.371640   6.535327   6.059001
    43  H    6.474724   6.530725   6.360671   6.269195   6.036877
                   36         37         38         39         40
    36  H    0.000000
    37  H    4.672564   0.000000
    38  H    4.754292   1.812122   0.000000
    39  H    5.999843   4.673177   4.790091   0.000000
    40  H    6.005901   9.194368   9.226322   6.792471   0.000000
    41  H    9.557709  12.687347  12.684593   9.671147   3.591455
    42  H    8.237928  11.097825  11.223140   8.086247   2.306164
    43  H    8.107584  11.277959  11.130157   8.417042   2.308150
                   41         42         43
    41  H    0.000000
    42  H    1.786800   0.000000
    43  H    1.786753   1.791651   0.000000
 Symmetry turned off by external request.
 Stoichiometry    C20H18NO4(1+)
 Framework group  C1[X(C20H18NO4)]
 Deg. of freedom   123
 Full point group                 C1      NOp   1
 Rotational constants (GHZ):           0.5872752           0.0990713           0.0858055

 Test job not archived.
 1\1\GINC-ALLEN-UBUNTU\FOpt\RB3LYP\6-31G(d)\C20H18N1O4(1+)\USER\25-Mar-
 2025\0\\# opt b3lyp/6-31g(d) scrf=(smd,solvent=water) nosymm pop=mk ge
 om=connectivity iop(6/33=2,6/42=6)\\EWV\\1,1\C,-0.670318,-1.012289,0.1
 61753\C,1.556048,0.148154,-0.053909\C,2.227418,1.362224,0.153383\C,-2.
 865375,-2.153834,0.381444\C,-4.854194,-0.860537,0.097494\C,1.414042,2.
 625683,0.27296\C,0.203307,2.536431,-0.640513\C,4.360687,0.202446,0.128
 477\O,5.718087,0.120487,0.200741\C,6.452608,1.328865,0.429997\C,3.6233
 74,1.377623,0.245473\N,-0.590886,1.313814,-0.330955\C,-1.920902,1.3893
 18,-0.352122\C,-2.721912,0.265244,-0.126604\C,-4.126415,0.282623,-0.13
 7403\O,-4.952301,1.343199,-0.378704\C,-6.296537,0.842175,-0.178326\O,-
 6.19844,-0.582858,0.013779\C,-4.252413,-2.09608,0.359087\C,-2.08266,-0
 .999864,0.14081\C,0.085972,0.116836,-0.078879\C,2.302417,-1.043505,-0.
 190848\C,3.685556,-1.026021,-0.101541\O,4.494211,-2.121891,-0.230586\C
 ,3.869999,-3.384045,-0.482277\H,-0.16739,-1.942779,0.395193\H,-2.36430
 6,-3.094337,0.584557\H,1.087601,2.788125,1.309167\H,2.004291,3.498692,
 -0.020666\H,-0.460401,3.392571,-0.527456\H,0.512663,2.460375,-1.687551
 \H,6.173162,1.784067,1.386407\H,7.501933,1.03202,0.45791\H,6.294608,2.
 046225,-0.382597\H,4.127011,2.323835,0.406181\H,-2.350921,2.362139,-0.
 556639\H,-6.720438,1.305278,0.717418\H,-6.892071,1.050955,-1.068541\H,
 -4.85865,-2.977292,0.538755\H,1.795874,-1.979111,-0.387856\H,4.68475,-
 4.106944,-0.546823\H,3.195929,-3.662784,0.335666\H,3.315983,-3.370234,
 -1.427857\\Version=ES64L-G16RevC.01\HF=-1128.4583917\RMSD=7.605e-09\RM
 SF=9.089e-06\Dipole=-2.2744308,1.7671699,-0.1845623\Quadrupole=17.1658
 785,7.3599035,-24.525782,4.6969514,1.3886173,-1.2152342\PG=C01 [X(C20H
 18N1O4)]\\@


 IN SO FAR AS QUANTUM MECHANICS IS CORRECT, CHEMICAL 
 QUESTIONS ARE PROBLEMS IN APPLIED MATHEMATICS.

                    -- EYRING, WALTER, & KIMBALL, 1944
 Job cpu time:       0 days  0 hours 39 minutes 16.3 seconds.
 Elapsed time:       0 days  0 hours  3 minutes 38.2 seconds.
 File lengths (MBytes):  RWF=    255 Int=      0 D2E=      0 Chk=     17 Scr=      1
 Normal termination of Gaussian 16 at Tue Mar 25 20:05:25 2025.
