
                                 *****************
                                 * O   R   C   A *
                                 *****************

                                            #,                                       
                                            ###                                      
                                            ####                                     
                                            #####                                    
                                            ######                                   
                                           ########,                                 
                                     ,,################,,,,,                         
                               ,,#################################,,                 
                          ,,##########################################,,             
                       ,#########################################, ''#####,          
                    ,#############################################,,   '####,        
                  ,##################################################,,,,####,       
                ,###########''''           ''''###############################       
              ,#####''   ,,,,##########,,,,          '''####'''          '####       
            ,##' ,,,,###########################,,,                        '##       
           ' ,,###''''                  '''############,,,                           
         ,,##''                                '''############,,,,        ,,,,,,###''
      ,#''                                            '''#######################'''  
     '                                                          ''''####''''         
             ,#######,   #######,   ,#######,      ##                                
            ,#'     '#,  ##    ##  ,#'     '#,    #''#        ######   ,####,        
            ##       ##  ##   ,#'  ##            #'  '#       #        #'  '#        
            ##       ##  #######   ##           ,######,      #####,   #    #        
            '#,     ,#'  ##    ##  '#,     ,#' ,#      #,         ##   #,  ,#        
             '#######'   ##     ##  '#######'  #'      '#     #####' # '####'        



                  #######################################################
                  #                        -***-                        #
                  #          Department of theory and spectroscopy      #
                  #    Directorship and core code : Frank Neese         #
                  #        Max Planck Institute fuer Kohlenforschung    #
                  #                Kaiser Wilhelm Platz 1               #
                  #                 D-45470 Muelheim/Ruhr               #
                  #                      Germany                        #
                  #                                                     #
                  #                  All rights reserved                #
                  #                        -***-                        #
                  #######################################################


                         Program Version 5.0.4 -  RELEASE  -


 With contributions from (in alphabetic order):
   Daniel Aravena         : Magnetic Suceptibility
   Michael Atanasov       : Ab Initio Ligand Field Theory (pilot matlab implementation)
   Alexander A. Auer      : GIAO ZORA, VPT2 properties, NMR spectrum
   Ute Becker             : Parallelization
   Giovanni Bistoni       : ED, misc. LED, open-shell LED, HFLD
   Martin Brehm           : Molecular dynamics
   Dmytro Bykov           : SCF Hessian
   Vijay G. Chilkuri      : MRCI spin determinant printing, contributions to CSF-ICE
   Dipayan Datta          : RHF DLPNO-CCSD density
   Achintya Kumar Dutta   : EOM-CC, STEOM-CC
   Dmitry Ganyushin       : Spin-Orbit,Spin-Spin,Magnetic field MRCI
   Miquel Garcia          : C-PCM and meta-GGA Hessian, CC/C-PCM, Gaussian charge scheme
   Yang Guo               : DLPNO-NEVPT2, F12-NEVPT2, CIM, IAO-localization
   Andreas Hansen         : Spin unrestricted coupled pair/coupled cluster methods
   Benjamin Helmich-Paris : MC-RPA, TRAH-SCF, COSX integrals
   Lee Huntington         : MR-EOM, pCC
   Robert Izsak           : Overlap fitted RIJCOSX, COSX-SCS-MP3, EOM
   Marcus Kettner         : VPT2
   Christian Kollmar      : KDIIS, OOCD, Brueckner-CCSD(T), CCSD density, CASPT2, CASPT2-K
   Simone Kossmann        : Meta GGA functionals, TD-DFT gradient, OOMP2, MP2 Hessian
   Martin Krupicka        : Initial AUTO-CI
   Lucas Lang             : DCDCAS
   Marvin Lechner         : AUTO-CI (C++ implementation), FIC-MRCC
   Dagmar Lenk            : GEPOL surface, SMD
   Dimitrios Liakos       : Extrapolation schemes; Compound Job, initial MDCI parallelization
   Dimitrios Manganas     : Further ROCIS development; embedding schemes
   Dimitrios Pantazis     : SARC Basis sets
   Anastasios Papadopoulos: AUTO-CI, single reference methods and gradients
   Taras Petrenko         : DFT Hessian,TD-DFT gradient, ASA, ECA, R-Raman, ABS, FL, XAS/XES, NRVS
   Peter Pinski           : DLPNO-MP2, DLPNO-MP2 Gradient
   Christoph Reimann      : Effective Core Potentials
   Marius Retegan         : Local ZFS, SOC
   Christoph Riplinger    : Optimizer, TS searches, QM/MM, DLPNO-CCSD(T), (RO)-DLPNO pert. Triples
   Tobias Risthaus        : Range-separated hybrids, TD-DFT gradient, RPA, STAB
   Michael Roemelt        : Original ROCIS implementation
   Masaaki Saitow         : Open-shell DLPNO-CCSD energy and density
   Barbara Sandhoefer     : DKH picture change effects
   Avijit Sen             : IP-ROCIS
   Kantharuban Sivalingam : CASSCF convergence, NEVPT2, FIC-MRCI
   Bernardo de Souza      : ESD, SOC TD-DFT
   Georgi Stoychev        : AutoAux, RI-MP2 NMR, DLPNO-MP2 response
   Willem Van den Heuvel  : Paramagnetic NMR
   Boris Wezisla          : Elementary symmetry handling
   Frank Wennmohs         : Technical directorship


 We gratefully acknowledge several colleagues who have allowed us to
 interface, adapt or use parts of their codes:
   Stefan Grimme, W. Hujo, H. Kruse, P. Pracht,  : VdW corrections, initial TS optimization,
                  C. Bannwarth, S. Ehlert          DFT functionals, gCP, sTDA/sTD-DF
   Ed Valeev, F. Pavosevic, A. Kumar             : LibInt (2-el integral package), F12 methods
   Garnet Chan, S. Sharma, J. Yang, R. Olivares  : DMRG
   Ulf Ekstrom                                   : XCFun DFT Library
   Mihaly Kallay                                 : mrcc  (arbitrary order and MRCC methods)
   Jiri Pittner, Ondrej Demel                    : Mk-CCSD
   Frank Weinhold                                : gennbo (NPA and NBO analysis)
   Christopher J. Cramer and Donald G. Truhlar   : smd solvation model
   Lars Goerigk                                  : TD-DFT with DH, B97 family of functionals
   V. Asgeirsson, H. Jonsson                     : NEB implementation
   FAccTs GmbH                                   : IRC, NEB, NEB-TS, DLPNO-Multilevel, CI-OPT
                                                   MM, QMMM, 2- and 3-layer-ONIOM, Crystal-QMMM,
                                                   LR-CPCM, SF, NACMEs, symmetry and pop. for TD-DFT,
                                                   nearIR, NL-DFT gradient (VV10), updates on ESD,
                                                   ML-optimized integration grids
   S Lehtola, MJT Oliveira, MAL Marques          : LibXC Library
   Liviu Ungur et al                             : ANISO software


 Your calculation uses the libint2 library for the computation of 2-el integrals
 For citations please refer to: http://libint.valeyev.net

 Your ORCA version has been built with support for libXC version: 5.1.0
 For citations please refer to: https://tddft.org/programs/libxc/

 This ORCA versions uses:
   CBLAS   interface :  Fast vector & matrix operations
   LAPACKE interface :  Fast linear algebra routines
   SCALAPACK package :  Parallel linear algebra routines
   Shared memory     :  Shared parallel matrices
   BLAS/LAPACK       :  OpenBLAS 0.3.15  USE64BITINT DYNAMIC_ARCH NO_AFFINITY Sandybridge SINGLE_THREADED
        Core in use  :  Sandybridge
   Copyright (c) 2011-2014, The OpenBLAS Project


================================================================================

----- Orbital basis set information -----
Your calculation utilizes the basis: cc-pVDZ 
       H, B-Ne : Obtained from the ccRepo (grant-hill.group.shef.ac.uk/ccrepo) Feb. 2017
                 T. H. Dunning, Jr., J. Chem. Phys. 90, 1007 (1989)
            He : Obtained from the ccRepo (grant-hill.group.shef.ac.uk/ccrepo) Feb. 2017
                 D. E. Woon, T. H. Dunning, Jr., J. Chem. Phys. 100, 2975 (1994)
  Li-Be, Na-Mg : Obtained from the ccRepo (grant-hill.group.shef.ac.uk/ccrepo) Feb. 2017
                 B. P. Prascher, D. E. Woon, K. A. Peterson, T. H. Dunning, Jr., A. K. Wilson, Theor. Chem. Acc. 128, 69 (2011)
         Al-Ar : Obtained from the ccRepo (grant-hill.group.shef.ac.uk/ccrepo) Feb. 2017
                 D. E. Woon, T. H. Dunning, Jr., J. Chem. Phys. 98, 1358 (1993)
            Ca : Obtained from the Peterson Research Group Website (tyr0.chem.wsu.edu/~kipeters) Feb. 2017
                 J. Koput, K. A. Peterson, J. Phys. Chem. 106, 9595 (2002)
         Sc-Zn : Obtained from the ccRepo (grant-hill.group.shef.ac.uk/ccrepo) Feb. 2017
                 N. B. Balabanov, K. A. Peterson, J. Chem. Phys. 123, 064107 (2005)
                 N. B. Balabanov, K. A. Peterson, J. Chem. Phys. 125, 074110 (2006)
         Ga-Kr : Obtained from the ccRepo (grant-hill.group.shef.ac.uk/ccrepo) Feb. 2017
                 A. K. Wilson, D. E. Woon, K. A. Peterson, T. H. Dunning, Jr., J. Chem. Phys. 110, 7667 (1999)

================================================================================
                                        WARNINGS
                       Please study these warnings very carefully!
================================================================================


WARNING: No MP2 level density has been requested!
         To caclulate MP2 level properties use
         %mp2 Density relaxed end
         or
         %mp2 Density unrelaxed end

WARNING: Post HF methods need fully converged wavefunctions
  ===> : Setting SCFConvForced true
         You can overwrite this default with %scf ConvForced false 


INFO   : the flag for use of the SHARK integral package has been found!

================================================================================
                                       INPUT FILE
================================================================================
NAME = /scratch/allen/tmpyp4_amber_gaff2/2.Mdgx/conf11/conf11/Conf100.orca
|  1> ! PAL2
|  2> ! mp2 cc-pvdz TightSCF  NoKeepInts
|  3> 
|  4> %scf
|  5>   MaxCore 2000
|  6> end
|  7> %mp2
|  8>   MaxCore 2000
|  9> end
| 10> * xyz 0 1
| 11>    C       -4.13300         5.76700        -1.06900
| 12>    C        1.47400         4.04100         0.05700
| 13>    C       -2.80200         4.09300         0.04900
| 14>    C       -3.05200         4.77100         1.25200
| 15>    C       -3.82900         5.91200         1.25600
| 16>    C       -5.21400         7.60100         0.15000
| 17>    C        0.13200         4.30700         0.06100
| 18>    C       -0.56900         3.05600         0.04700
| 19>    C        1.64900         2.61800         0.02300
| 20>    C       -3.36700         4.61900        -1.12300
| 21>    N       -4.35400         6.39700         0.10700
| 22>    N        0.38800         2.06700         0.02500
| 23>    N       -2.01000         0.39500        -0.07500
| 24>    N       -0.38800        -2.07400        -0.02700
| 25>    N        2.01000        -0.40100         0.06500
| 26>    C       -1.96000         2.86100         0.02400
| 27>    C       -2.62300         1.61500        -0.01800
| 28>    C       -5.57300        -4.32900         1.06600
| 29>    C       -4.07300         1.47100         0.05600
| 30>    C       -4.10600        -2.75600        -0.02600
| 31>    C       -4.99500        -2.75700        -1.11100
| 32>    C       -6.13200        -3.54200        -1.07600
| 33>    C       -7.65100        -5.11300         0.04000
| 34>    C       -4.32400         0.14100         0.03700
| 35>    C       -3.02500        -0.52000        -0.04800
| 36>    C       -4.42200        -3.56600         1.07500
| 37>    N       -6.40700        -4.31300         0.00100
| 38>    C       -2.86700        -1.92200        -0.04000
| 39>    C       -1.65000        -2.62400        -0.02700
| 40>    C        3.56800        -6.14200        -1.04000
| 41>    C       -1.47600        -4.04900        -0.03400
| 42>    C        2.80300        -4.09900        -0.00800
| 43>    C        3.65700        -4.38400         1.06900
| 44>    C        4.42700        -5.53000         1.05900
| 45>    C        5.24500        -7.58800         0.01400
| 46>    C       -0.13400        -4.31500        -0.02200
| 47>    C        0.56800        -3.06400        -0.02700
| 48>    C        2.77500        -5.01200        -1.07400
| 49>    N        4.37600        -6.39100         0.01700
| 50>    C        1.95900        -2.86900        -0.00900
| 51>    C        2.62100        -1.62200         0.00900
| 52>    C        5.54300         4.33900        -1.13000
| 53>    C        4.07000        -1.47900        -0.09400
| 54>    C        4.10400         2.75100        -0.02100
| 55>    C        5.02700         2.72900         1.03600
| 56>    C        6.16600         3.50900         0.97800
| 57>    C        7.61900         5.15300        -0.11500
| 58>    C        4.32100        -0.14800        -0.09200
| 59>    C        3.02500         0.51400         0.01500
| 60>    C        4.38700         3.58200        -1.11500
| 61>    C        2.86600         1.91600         0.01300
| 62>    N        6.41300         4.29600        -0.09500
| 63>    H       -4.57800         6.21500        -1.94900
| 64>    H        2.27400         4.76600         0.08100
| 65>    H       -2.65200         4.40900         2.19100
| 66>    H       -4.05700         6.46400         2.15900
| 67>    H       -6.24000         7.29700         0.36900
| 68>    H       -4.84600         8.26700         0.93000
| 69>    H       -5.16900         8.09800        -0.81800
| 70>    H       -0.33200         5.28200         0.06900
| 71>    H       -3.19900         4.14900        -2.08500
| 72>    H        0.18200         1.07200         0.00500
| 73>    H       -0.18300        -1.08000        -0.02100
| 74>    H       -5.86400        -4.96200         1.89500
| 75>    H       -4.79400         2.27200         0.13900
| 76>    H       -4.80000        -2.16000        -1.99400
| 77>    H       -6.84100        -3.58200        -1.89300
| 78>    H       -8.42800        -4.53600         0.54600
| 79>    H       -7.95600        -5.33700        -0.98100
| 80>    H       -7.45600        -6.03700         0.58400
| 81>    H       -5.28700        -0.34400         0.10000
| 82>    H       -3.78000        -3.60100         1.94700
| 83>    H        3.58700        -6.86800        -1.84300
| 84>    H       -2.27600        -4.77400        -0.05000
| 85>    H        3.71400        -3.72400         1.92600
| 86>    H        5.09200        -5.79500         1.87100
| 87>    H        6.20500        -7.32900        -0.43900
| 88>    H        5.39300        -7.91700         1.04200
| 89>    H        4.75900        -8.37300        -0.56400
| 90>    H        0.32900        -5.29000        -0.00800
| 91>    H        2.14600        -4.84200        -1.94000
| 92>    H        5.80800         4.98600        -1.95600
| 93>    H        4.78800        -2.28100        -0.18500
| 94>    H        4.86000         2.11400         1.91200
| 95>    H        6.90100         3.53100         1.77200
| 96>    H        7.38300         6.10900         0.35600
| 97>    H        8.41400         4.65200         0.43500
| 98>    H        7.92100         5.31000        -1.15000
| 99>    H        5.28300         0.33600        -0.17900
|100>    H        3.72000         3.63200        -1.96700
|101> *
|102> 
|103>                          ****END OF INPUT****
================================================================================

                       ****************************
                       * Single Point Calculation *
                       ****************************

---------------------------------
CARTESIAN COORDINATES (ANGSTROEM)
---------------------------------
  C     -4.133000    5.767000   -1.069000
  C      1.474000    4.041000    0.057000
  C     -2.802000    4.093000    0.049000
  C     -3.052000    4.771000    1.252000
  C     -3.829000    5.912000    1.256000
  C     -5.214000    7.601000    0.150000
  C      0.132000    4.307000    0.061000
  C     -0.569000    3.056000    0.047000
  C      1.649000    2.618000    0.023000
  C     -3.367000    4.619000   -1.123000
  N     -4.354000    6.397000    0.107000
  N      0.388000    2.067000    0.025000
  N     -2.010000    0.395000   -0.075000
  N     -0.388000   -2.074000   -0.027000
  N      2.010000   -0.401000    0.065000
  C     -1.960000    2.861000    0.024000
  C     -2.623000    1.615000   -0.018000
  C     -5.573000   -4.329000    1.066000
  C     -4.073000    1.471000    0.056000
  C     -4.106000   -2.756000   -0.026000
  C     -4.995000   -2.757000   -1.111000
  C     -6.132000   -3.542000   -1.076000
  C     -7.651000   -5.113000    0.040000
  C     -4.324000    0.141000    0.037000
  C     -3.025000   -0.520000   -0.048000
  C     -4.422000   -3.566000    1.075000
  N     -6.407000   -4.313000    0.001000
  C     -2.867000   -1.922000   -0.040000
  C     -1.650000   -2.624000   -0.027000
  C      3.568000   -6.142000   -1.040000
  C     -1.476000   -4.049000   -0.034000
  C      2.803000   -4.099000   -0.008000
  C      3.657000   -4.384000    1.069000
  C      4.427000   -5.530000    1.059000
  C      5.245000   -7.588000    0.014000
  C     -0.134000   -4.315000   -0.022000
  C      0.568000   -3.064000   -0.027000
  C      2.775000   -5.012000   -1.074000
  N      4.376000   -6.391000    0.017000
  C      1.959000   -2.869000   -0.009000
  C      2.621000   -1.622000    0.009000
  C      5.543000    4.339000   -1.130000
  C      4.070000   -1.479000   -0.094000
  C      4.104000    2.751000   -0.021000
  C      5.027000    2.729000    1.036000
  C      6.166000    3.509000    0.978000
  C      7.619000    5.153000   -0.115000
  C      4.321000   -0.148000   -0.092000
  C      3.025000    0.514000    0.015000
  C      4.387000    3.582000   -1.115000
  C      2.866000    1.916000    0.013000
  N      6.413000    4.296000   -0.095000
  H     -4.578000    6.215000   -1.949000
  H      2.274000    4.766000    0.081000
  H     -2.652000    4.409000    2.191000
  H     -4.057000    6.464000    2.159000
  H     -6.240000    7.297000    0.369000
  H     -4.846000    8.267000    0.930000
  H     -5.169000    8.098000   -0.818000
  H     -0.332000    5.282000    0.069000
  H     -3.199000    4.149000   -2.085000
  H      0.182000    1.072000    0.005000
  H     -0.183000   -1.080000   -0.021000
  H     -5.864000   -4.962000    1.895000
  H     -4.794000    2.272000    0.139000
  H     -4.800000   -2.160000   -1.994000
  H     -6.841000   -3.582000   -1.893000
  H     -8.428000   -4.536000    0.546000
  H     -7.956000   -5.337000   -0.981000
  H     -7.456000   -6.037000    0.584000
  H     -5.287000   -0.344000    0.100000
  H     -3.780000   -3.601000    1.947000
  H      3.587000   -6.868000   -1.843000
  H     -2.276000   -4.774000   -0.050000
  H      3.714000   -3.724000    1.926000
  H      5.092000   -5.795000    1.871000
  H      6.205000   -7.329000   -0.439000
  H      5.393000   -7.917000    1.042000
  H      4.759000   -8.373000   -0.564000
  H      0.329000   -5.290000   -0.008000
  H      2.146000   -4.842000   -1.940000
  H      5.808000    4.986000   -1.956000
  H      4.788000   -2.281000   -0.185000
  H      4.860000    2.114000    1.912000
  H      6.901000    3.531000    1.772000
  H      7.383000    6.109000    0.356000
  H      8.414000    4.652000    0.435000
  H      7.921000    5.310000   -1.150000
  H      5.283000    0.336000   -0.179000
  H      3.720000    3.632000   -1.967000

----------------------------
CARTESIAN COORDINATES (A.U.)
----------------------------
  NO LB      ZA    FRAG     MASS         X           Y           Z
   0 C     6.0000    0    12.011   -7.810238   10.898051   -2.020117
   1 C     6.0000    0    12.011    2.785456    7.636383    0.107714
   2 C     6.0000    0    12.011   -5.295013    7.734649    0.092597
   3 C     6.0000    0    12.011   -5.767444    9.015883    2.365937
   4 C     6.0000    0    12.011   -7.235761   11.172061    2.373496
   5 C     6.0000    0    12.011   -9.853032   14.363808    0.283459
   6 C     6.0000    0    12.011    0.249444    8.139050    0.115273
   7 C     6.0000    0    12.011   -1.075254    5.775003    0.088817
   8 C     6.0000    0    12.011    3.116158    4.947303    0.043464
   9 C     6.0000    0    12.011   -6.362708    8.728645   -2.122162
  10 N     7.0000    0    14.007   -8.227868   12.088578    0.202201
  11 N     7.0000    0    14.007    0.733214    3.906064    0.047243
  12 N     7.0000    0    14.007   -3.798350    0.746442   -0.141729
  13 N     7.0000    0    14.007   -0.733214   -3.919292   -0.051023
  14 N     7.0000    0    14.007    3.798350   -0.757780    0.122832
  15 C     6.0000    0    12.011   -3.703863    5.406506    0.045353
  16 C     6.0000    0    12.011   -4.956752    3.051908   -0.034015
  17 C     6.0000    0    12.011  -10.531444   -8.180624    2.014448
  18 C     6.0000    0    12.011   -7.696855    2.779787    0.105825
  19 C     6.0000    0    12.011   -7.759216   -5.208085   -0.049133
  20 C     6.0000    0    12.011   -9.439182   -5.209975   -2.099486
  21 C     6.0000    0    12.011  -11.587801   -6.693410   -2.033345
  22 C     6.0000    0    12.011  -14.458295   -9.662170    0.075589
  23 C     6.0000    0    12.011   -8.171176    0.266451    0.069920
  24 C     6.0000    0    12.011   -5.716422   -0.982658   -0.090707
  25 C     6.0000    0    12.011   -8.356369   -6.738763    2.031456
  26 N     7.0000    0    14.007  -12.107475   -8.150389    0.001890
  27 C     6.0000    0    12.011   -5.417845   -3.632054   -0.075589
  28 C     6.0000    0    12.011   -3.118048   -4.958641   -0.051023
  29 C     6.0000    0    12.011    6.742543  -11.606698   -1.965315
  30 C     6.0000    0    12.011   -2.789236   -7.651501   -0.064251
  31 C     6.0000    0    12.011    5.296902   -7.745987   -0.015118
  32 C     6.0000    0    12.011    6.910728   -8.284559    2.020117
  33 C     6.0000    0    12.011    8.365818  -10.450186    2.001220
  34 C     6.0000    0    12.011    9.911614  -14.339242    0.026456
  35 C     6.0000    0    12.011   -0.253223   -8.154168   -0.041574
  36 C     6.0000    0    12.011    1.073364   -5.790121   -0.051023
  37 C     6.0000    0    12.011    5.243990   -9.471307   -2.029566
  38 N     7.0000    0    14.007    8.269442  -12.077240    0.032125
  39 C     6.0000    0    12.011    3.701973   -5.421624   -0.017008
  40 C     6.0000    0    12.011    4.952972   -3.065136    0.017008
  41 C     6.0000    0    12.011   10.474752    8.199522   -2.135391
  42 C     6.0000    0    12.011    7.691185   -2.794905   -0.177634
  43 C     6.0000    0    12.011    7.755436    5.198637   -0.039684
  44 C     6.0000    0    12.011    9.499653    5.157063    1.957756
  45 C     6.0000    0    12.011   11.652051    6.631049    1.848152
  46 C     6.0000    0    12.011   14.397823    9.737759   -0.217319
  47 C     6.0000    0    12.011    8.165507   -0.279679   -0.173855
  48 C     6.0000    0    12.011    5.716422    0.971319    0.028346
  49 C     6.0000    0    12.011    8.290229    6.768999   -2.107045
  50 C     6.0000    0    12.011    5.415955    3.620715    0.024566
  51 N     7.0000    0    14.007   12.118814    8.118263   -0.179524
  52 H     1.0000    0     1.008   -8.651166   11.744648   -3.683076
  53 H     1.0000    0     1.008    4.297237    9.006435    0.153068
  54 H     1.0000    0     1.008   -5.011554    8.331803    4.140390
  55 H     1.0000    0     1.008   -7.666619   12.215190    4.079919
  56 H     1.0000    0     1.008  -11.791891   13.789332    0.697309
  57 H     1.0000    0     1.008   -9.157613   15.622366    1.757445
  58 H     1.0000    0     1.008   -9.767994   15.303002   -1.545796
  59 H     1.0000    0     1.008   -0.627389    9.981533    0.130391
  60 H     1.0000    0     1.008   -6.045234    7.840474   -3.940079
  61 H     1.0000    0     1.008    0.343930    2.025786    0.009449
  62 H     1.0000    0     1.008   -0.345820   -2.040904   -0.039684
  63 H     1.0000    0     1.008  -11.081354   -9.376821    3.581031
  64 H     1.0000    0     1.008   -9.059347    4.293458    0.262672
  65 H     1.0000    0     1.008   -9.070685   -4.081808   -3.768114
  66 H     1.0000    0     1.008  -12.927616   -6.768999   -3.577252
  67 H     1.0000    0     1.008  -15.926612   -8.571798    1.031790
  68 H     1.0000    0     1.008  -15.034661  -10.085468   -1.853821
  69 H     1.0000    0     1.008  -14.089798  -11.408277    1.103600
  70 H     1.0000    0     1.008   -9.990982   -0.650066    0.188973
  71 H     1.0000    0     1.008   -7.143165   -6.804904    3.679297
  72 H     1.0000    0     1.008    6.778448  -12.978639   -3.482765
  73 H     1.0000    0     1.008   -4.301017   -9.021553   -0.094486
  74 H     1.0000    0     1.008    7.018443   -7.037340    3.639613
  75 H     1.0000    0     1.008    9.622485  -10.950963    3.535678
  76 H     1.0000    0     1.008   11.725751  -13.849803   -0.829590
  77 H     1.0000    0     1.008   10.191293  -14.960962    1.969095
  78 H     1.0000    0     1.008    8.993207  -15.822677   -1.065806
  79 H     1.0000    0     1.008    0.621720   -9.996651   -0.015118
  80 H     1.0000    0     1.008    4.055352   -9.150054   -3.666069
  81 H     1.0000    0     1.008   10.975529    9.422175   -3.696304
  82 H     1.0000    0     1.008    9.048009   -4.310465   -0.349599
  83 H     1.0000    0     1.008    9.184069    3.994881    3.613156
  84 H     1.0000    0     1.008   13.041000    6.672623    3.348595
  85 H     1.0000    0     1.008   13.951848   11.544337    0.672743
  86 H     1.0000    0     1.008   15.900156    8.791006    0.822031
  87 H     1.0000    0     1.008   14.968521   10.034446   -2.173185
  88 H     1.0000    0     1.008    9.983423    0.634948   -0.338261
  89 H     1.0000    0     1.008    7.029781    6.863485   -3.717091

--------------------------------
INTERNAL COORDINATES (ANGSTROEM)
--------------------------------
 C      0   0   0     0.000000000000     0.00000000     0.00000000
 C      1   0   0     5.973725889259     0.00000000     0.00000000
 C      1   2   0     2.413246982801    36.34840517     0.00000000
 C      3   1   2     1.403350633306    87.92252880   101.29618614
 C      4   3   1     1.380444131430   120.13794515     0.13859841
 C      5   4   3     2.448301860474   152.53675573     1.60835165
 C      2   1   3     1.368114030335    12.49370412   330.71200201
 C      7   2   3     1.434084376876   108.05010202     0.84668783
 C      2   1   3     1.434123425651   113.37558336    38.62257816
 C      1   2   3     1.381150245267    41.11852458   311.36522750
 N      1   2   3     1.352300632256    97.12762183    81.24485996
 N      9   2   1     1.376127174356   106.58526707   347.05450438
 N     12   9   2     2.925062050624   168.53581413   171.12065651
 N     13  12   9     2.954513327098    91.55032014    11.12112580
 N     14  13  12     2.925371258490    88.43092389   359.84326247
 C      8   7   2     1.404790019896   127.24786865   181.11170171
 C     13  12   9     1.366535034311    81.72106996   188.00453233
 C     14  13  12     5.758810554272    80.56209567   166.76250791
 C     17  13  12     1.459010623676   111.08861209   183.82872609
 C     18  14  13     2.412235892279    27.27532823    36.33507194
 C     20  18  14     1.402692767501    87.95206320   148.94598259
 C     21  20  18     1.382106725257   120.14573887   359.70382047
 C     18  14  13     2.446510985056   144.15733107    82.80075377
 C     19  17  13     1.353610726908   106.29293361   359.75308708
 C     13  12   9     1.366813447402   172.21332906    33.46711076
 C     18  14  13     1.380960173213    15.08449437   309.23336894
 N     22  21  20     1.352773077792   120.73759875     0.27865223
 C     25  13  17     1.410897586645   125.60330303   182.37774668
 C     14  13  12     1.376642291955    80.24689249   177.85461986
 C     14  13  12     5.764089607215   164.51507311   312.20821879
 C     29  14  13     1.435600919476   106.58649366   178.76395472
 C     30  14  13     2.413316804732    27.10625047    82.12560436
 C     32  30  14     1.403734305344    87.90059683   149.76154742
 C     33  32  30     1.380694028378   120.14881443   359.74174632
 C     34  33  32     2.448777858443   152.49203239     2.45173620
 C     31  29  14     1.368160809262   108.16950133     0.70383075
 C     14  13  12     1.376239804685   169.26375223   353.09862627
 C     30  14  13     1.380907310430    14.68948582   353.70041132
 N     34  33  32     1.352658863128   120.85575621     0.19603406
 C     37  14  29     1.404717053360   126.01551127   180.90772073
 C     15  14  13     1.366491126938    81.61824056   183.09049352
 C      2   1   3     4.249062720177   145.68133064   160.56442337
 C     41  15  14     1.459677704153   111.05201287   175.08990246
 C     42   2   1     2.412953791518    41.78584867   207.62272605
 C     44  42   2     1.403446472082    87.95153797   233.97558675
 C     45  44  42     1.381696421071   120.11137308     0.19721020
 C     42   2   1     2.450019795838   135.97209175   117.93757515
 C     43  41  15     1.354461516618   106.26758155     0.30894352
 C     15  14  13     1.367461151185   171.87382904   332.35056460
 C     42   2   1     1.381886391857    32.59078432   256.47800524
 C      9   2   1     1.404988612053   126.98745415   168.05884191
 N     42   2   1     1.352765315936   113.57249190   145.67416434
 H      1   2   3     1.083110797656   131.16924060   216.26846369
 H      2   1   3     1.079907866440   120.36718744   207.40322323
 H      4   3   1     1.082942750103   121.06391617   179.51674652
 H      5   4   3     1.082634287283   122.84600085   179.43429476
 H      6   5   4     1.092269655351   104.40646041   100.12035605
 H      6   5   4     1.089669674718    84.67722252   209.54585351
 H      6   5   4     1.089062899928   133.86603501   322.42390086
 H      7   2  54     1.079807853278   126.66122480     1.30600390
 H     10   1   2     1.083774884374   118.75982823   243.30561390
 H     12   9   2     1.016297692608   125.29023241   180.00180175
 H     14  13  12     1.014936943854    44.97226959   359.42596618
 H     18  14  13     1.082871645210   128.03556573   234.20482432
 H     19  17  13     1.080893611786   126.41830519   178.11313280
 H     21  20  18     1.083569563987   121.05669627   180.67006309
 H     22  21  20     1.082483256222   122.73097286   180.59748951
 H     23  18  14     1.092105306278   103.92715769   234.93429879
 H     23  18  14     1.088871893291   134.19244188    12.25587044
 H     23  18  14     1.089833473518    84.85857450   125.45241208
 H     24  19  17     1.080075460327   127.28078426   178.44613241
 H     26  18  14     1.083408048706   118.76995697   244.94906660
 H     30  14  13     1.082703098730   127.99711412   279.66882698
 H     31  29  14     1.079759695488   125.22293469   180.92530585
 H     33  32  30     1.083188810873   121.01964473   180.74284758
 H     34  33  32     1.082494341787   122.70821597   180.59516895
 H     35  34  33     1.092652735319   105.73575241    97.19771933
 H     35  34  33     1.089462711615    84.05943581   206.43036958
 H     35  34  33     1.089268102902   133.08365142   318.50306270
 H     36  31  29     1.079439669458   126.61599965   178.98859863
 H     38  30  73     1.083742127999   118.77264435   359.90091293
 H     42   2   1     1.082178358682   119.31790784     2.30569480
 H     43  41  15     1.080281907652   126.36969097   182.06329380
 H     45  44  42     1.083277434455   121.10105945   179.58025624
 H     46  45  44     1.082194529648   122.72144639   179.46906377
 H     47  42   2     1.091546151109   106.65128841   315.16475048
 H     47  42   2     1.088818625851   132.46019523    94.52397119
 H     47  42   2     1.089531091801    83.63838232   206.04504406
 H     48  43  41     1.080402239909   127.23657387   181.62955349
 H     50  42   2     1.083186502870   118.77001737    94.71359229

---------------------------
INTERNAL COORDINATES (A.U.)
---------------------------
 C      0   0   0     0.000000000000     0.00000000     0.00000000
 C      1   0   0    11.288705929814     0.00000000     0.00000000
 C      1   2   0     4.560375891006    36.34840517     0.00000000
 C      3   1   2     2.651948366813    87.92252880   101.29618614
 C      4   3   1     2.608661351582   120.13794515     0.13859841
 C      5   4   3     4.626620009466   152.53675573     1.60835165
 C      2   1   3     2.585360837309    12.49370412   330.71200201
 C      7   2   3     2.710026725231   108.05010202     0.84668783
 C      2   1   3     2.710100516721   113.37558336    38.62257816
 C      1   2   3     2.609995713352    41.11852458   311.36522750
 N      1   2   3     2.555477845692    97.12762183    81.24485996
 N      9   2   1     2.600503484979   106.58526707   347.05450438
 N     12   9   2     5.527566200405   168.53581413   171.12065651
 N     13  12   9     5.583221047236    91.55032014    11.12112580
 N     14  13  12     5.528150518591    88.43092389   359.84326247
 C      8   7   2     2.654668413270   127.24786865   181.11170171
 C     13  12   9     2.582376967257    81.72106996   188.00453233
 C     14  13  12    10.882574804710    80.56209567   166.76250791
 C     17  13  12     2.757130505230   111.08861209   183.82872609
 C     18  14  13     4.558465206823    27.27532823    36.33507194
 C     20  18  14     2.650705180609    87.95206320   148.94598259
 C     21  20  18     2.611803198586   120.14573887   359.70382047
 C     18  14  13     4.623235745386   144.15733107    82.80075377
 C     19  17  13     2.557953565794   106.29293361   359.75308708
 C     13  12   9     2.582903091751   172.21332906    33.46711076
 C     18  14  13     2.609636529225    15.08449437   309.23336894
 N     22  21  20     2.556370638369   120.73759875     0.27865223
 C     25  13  17     2.666210041769   125.60330303   182.37774668
 C     14  13  12     2.601476916169    80.24689249   177.85461986
 C     14  13  12    10.892550769017   164.51507311   312.20821879
 C     29  14  13     2.712892575415   106.58649366   178.76395472
 C     30  14  13     4.560507835333    27.10625047    82.12560436
 C     32  30  14     2.652673401891    87.90059683   149.76154742
 C     33  32  30     2.609133588376   120.14881443   359.74174632
 C     34  33  32     4.627519515267   152.49203239     2.45173620
 C     31  29  14     2.585449236669   108.16950133     0.70383075
 C     14  13  12     2.600716325456   169.26375223   353.09862627
 C     30  14  13     2.609536633043    14.68948582   353.70041132
 N     34  33  32     2.556154803934   120.85575621     0.19603406
 C     37  14  29     2.654530526499   126.01551127   180.90772073
 C     15  14  13     2.582293994346    81.61824056   183.09049352
 C      2   1   3     8.029564866989   145.68133064   160.56442337
 C     41  15  14     2.758391104639   111.05201287   175.08990246
 C     42   2   1     4.559821839776    41.78584867   207.62272605
 C     44  42   2     2.652129475853    87.95153797   233.97558675
 C     45  44  42     2.611027836043   120.11137308     0.19721020
 C     42   2   1     4.629866436820   135.97209175   117.93757515
 C     43  41  15     2.559561325344   106.26758155     0.30894352
 C     15  14  13     2.584127074516   171.87382904   332.35056460
 C     42   2   1     2.611386828803    32.59078432   256.47800524
 C      9   2   1     2.655043698059   126.98745415   168.05884191
 N     42   2   1     2.556355970587   113.57249190   145.67416434
 H      1   2   3     2.046782780264   131.16924060   216.26846369
 H      2   1   3     2.040730117440   120.36718744   207.40322323
 H      4   3   1     2.046465216410   121.06391617   179.51674652
 H      5   4   3     2.045882306157   122.84600085   179.43429476
 H      6   5   4     2.064090513005   104.40646041   100.12035605
 H      6   5   4     2.059177261656    84.67722252   209.54585351
 H      6   5   4     2.058030623478   133.86603501   322.42390086
 H      7   2  54     2.040541119952   126.66122480     1.30600390
 H     10   1   2     2.048037722289   118.75982823   243.30561390
 H     12   9   2     1.920524309565   125.29023241   180.00180175
 H     14  13  12     1.917952867083    44.97226959   359.42596618
 H     18  14  13     2.046330847636   128.03556573   234.20482432
 H     19  17  13     2.042592906181   126.41830519   178.11313280
 H     21  20  18     2.047649722989   121.05669627   180.67006309
 H     22  21  20     2.045596898814   122.73097286   180.59748951
 H     23  18  14     2.063779938267   103.92715769   234.93429879
 H     23  18  14     2.057669673245   134.19244188    12.25587044
 H     23  18  14     2.059486796529    84.85857450   125.45241208
 H     24  19  17     2.041046823986   127.28078426   178.44613241
 H     26  18  14     2.047344503340   118.76995697   244.94906660
 H     30  14  13     2.046012340948   127.99711412   279.66882698
 H     31  29  14     2.040450114918   125.22293469   180.92530585
 H     33  32  30     2.046930203877   121.01964473   180.74284758
 H     34  33  32     2.045617847496   122.70821597   180.59516895
 H     35  34  33     2.064814429233   105.73575241    97.19771933
 H     35  34  33     2.058786158072    84.05943581   206.43036958
 H     35  34  33     2.058418400901   133.08365142   318.50306270
 H     36  31  29     2.039845353366   126.61599965   178.98859863
 H     38  30  73     2.047975821711   118.77264435   359.90091293
 H     42   2   1     2.045020725966   119.31790784     2.30569480
 H     43  41  15     2.041436952892   126.36969097   182.06329380
 H     45  44  42     2.047097678177   121.10105945   179.58025624
 H     46  45  44     2.045051284662   122.72144639   179.46906377
 H     47  42   2     2.062723288131   106.65128841   315.16475048
 H     47  42   2     2.057569012371   132.46019523    94.52397119
 H     47  42   2     2.058915377895    83.63838232   206.04504406
 H     48  43  41     2.041664347903   127.23657387   181.62955349
 H     50  42   2     2.046925842384   118.77001737    94.71359229

---------------------
BASIS SET INFORMATION
---------------------
There are 3 groups of distinct atoms

 Group   1 Type C   : 17s4p1d contracted to 3s2p1d pattern {881/31/1}
 Group   2 Type N   : 17s4p1d contracted to 3s2p1d pattern {881/31/1}
 Group   3 Type H   : 4s1p contracted to 2s1p pattern {31/1}

Atom   0C    basis set group =>   1
Atom   1N    basis set group =>   2
Atom   2C    basis set group =>   1
Atom   3N    basis set group =>   2
Atom   4C    basis set group =>   1
Atom   5N    basis set group =>   2
Atom   6C    basis set group =>   1
Atom   7N    basis set group =>   2
Atom   8C    basis set group =>   1
Atom   9N    basis set group =>   2
Atom  10C    basis set group =>   1
Atom  11N    basis set group =>   2
Atom  12C    basis set group =>   1
Atom  13N    basis set group =>   2
Atom  14C    basis set group =>   1
Atom  15N    basis set group =>   2
Atom  16C    basis set group =>   1
Atom  17C    basis set group =>   1
Atom  18C    basis set group =>   1
Atom  19C    basis set group =>   1
Atom  20C    basis set group =>   1
Atom  21C    basis set group =>   1
Atom  22C    basis set group =>   1
Atom  23C    basis set group =>   1
Atom  24C    basis set group =>   1
Atom  25C    basis set group =>   1
Atom  26C    basis set group =>   1
Atom  27C    basis set group =>   1
Atom  28C    basis set group =>   1
Atom  29C    basis set group =>   1
Atom  30C    basis set group =>   1
Atom  31C    basis set group =>   1
Atom  32C    basis set group =>   1
Atom  33C    basis set group =>   1
Atom  34C    basis set group =>   1
Atom  35C    basis set group =>   1
Atom  36C    basis set group =>   1
Atom  37C    basis set group =>   1
Atom  38C    basis set group =>   1
Atom  39C    basis set group =>   1
Atom  40C    basis set group =>   1
Atom  41C    basis set group =>   1
Atom  42C    basis set group =>   1
Atom  43C    basis set group =>   1
Atom  44C    basis set group =>   1
Atom  45C    basis set group =>   1
Atom  46C    basis set group =>   1
Atom  47C    basis set group =>   1
Atom  48C    basis set group =>   1
Atom  49C    basis set group =>   1
Atom  50C    basis set group =>   1
Atom  51C    basis set group =>   1
Atom  52H    basis set group =>   3
Atom  53H    basis set group =>   3
Atom  54H    basis set group =>   3
Atom  55H    basis set group =>   3
Atom  56H    basis set group =>   3
Atom  57H    basis set group =>   3
Atom  58H    basis set group =>   3
Atom  59H    basis set group =>   3
Atom  60H    basis set group =>   3
Atom  61H    basis set group =>   3
Atom  62H    basis set group =>   3
Atom  63H    basis set group =>   3
Atom  64H    basis set group =>   3
Atom  65H    basis set group =>   3
Atom  66H    basis set group =>   3
Atom  67H    basis set group =>   3
Atom  68H    basis set group =>   3
Atom  69H    basis set group =>   3
Atom  70H    basis set group =>   3
Atom  71H    basis set group =>   3
Atom  72H    basis set group =>   3
Atom  73H    basis set group =>   3
Atom  74H    basis set group =>   3
Atom  75H    basis set group =>   3
Atom  76H    basis set group =>   3
Atom  77H    basis set group =>   3
Atom  78H    basis set group =>   3
Atom  79H    basis set group =>   3
Atom  80H    basis set group =>   3
Atom  81H    basis set group =>   3
Atom  82H    basis set group =>   3
Atom  83H    basis set group =>   3
Atom  84H    basis set group =>   3
Atom  85H    basis set group =>   3
Atom  86H    basis set group =>   3
Atom  87H    basis set group =>   3
Atom  88H    basis set group =>   3
Atom  89H    basis set group =>   3


           ************************************************************
           *        Program running with 16 parallel MPI-processes    *
           *              working on a common directory               *
           ************************************************************
------------------------------------------------------------------------------
                           ORCA GTO INTEGRAL CALCULATION
------------------------------------------------------------------------------
------------------------------------------------------------------------------
                   ___                                                        
                  /   \      - P O W E R E D   B Y -                         
                 /     \                                                     
                 |  |  |   _    _      __       _____    __    __             
                 |  |  |  | |  | |    /  \     |  _  \  |  |  /  |          
                  \  \/   | |  | |   /    \    | | | |  |  | /  /          
                 / \  \   | |__| |  /  /\  \   | |_| |  |  |/  /          
                |  |  |   |  __  | /  /__\  \  |    /   |      \           
                |  |  |   | |  | | |   __   |  |    \   |  |\   \          
                \     /   | |  | | |  |  |  |  | |\  \  |  | \   \       
                 \___/    |_|  |_| |__|  |__|  |_| \__\ |__|  \__/        
                                                                              
                      - O R C A' S   B I G   F R I E N D -                    
                                      &                                       
                       - I N T E G R A L  F E E D E R -                       
                                                                              
 v1 FN, 2020, v2 2021                                                         
------------------------------------------------------------------------------


Reading SHARK input file /scratch/allen/tmpyp4_amber_gaff2/conf1/conf1/Conf100.orca.SHARKINP.tmp ... ok
----------------------
SHARK INTEGRAL PACKAGE
----------------------

Number of atoms                             ...     90
Number of basis functions                   ...   1230
Number of shells                            ...    738
Maximum angular momentum                    ...      2
Integral batch strategy                     ... SHARK/LIBINT Hybrid
RI-J (if used) integral strategy            ... SPLIT-RIJ (Revised 2003 algorithm where possible)
Printlevel                                  ...      1
Contraction scheme used                     ... PARTIAL GENERAL contraction
Coulomb Range Separation                    ... NOT USED
Exchange Range Separation                   ... NOT USED
Finite Nucleus Model                        ... NOT USED
Auxiliary Coulomb fitting basis             ... NOT available
Auxiliary J/K fitting basis                 ... NOT available
Auxiliary Correlation fitting basis         ... NOT available
Auxiliary 'external' fitting basis          ... NOT available
Integral threshold                          ...     2.500000e-11
Primitive cut-off                           ...     2.500000e-12
Primitive pair pre-selection threshold      ...     2.500000e-12

Calculating pre-screening integrals         ... done (  0.1 sec) Dimension = 738
Calculating pre-screening integrals (ORCA)  ... done (  0.3 sec) Dimension = 426
Organizing shell pair data                  ... done (  0.8 sec)
Shell pair information
Total number of shell pairs                 ...    272691
Shell pairs after pre-screening             ...     71604
Total number of primitive shell pairs       ...    422091
Primitive shell pairs kept                  ...     92347
          la=0 lb=0:  29419 shell pairs
          la=1 lb=0:  25958 shell pairs
          la=1 lb=1:   4687 shell pairs
          la=2 lb=0:   7894 shell pairs
          la=2 lb=1:   3115 shell pairs
          la=2 lb=2:    531 shell pairs

Calculating one electron integrals          ... done (  0.3 sec)
Calculating Nuclear repulsion               ... done (  0.0 sec) ENN=   6222.095462807668 Eh

SHARK setup successfully completed in   2.1 seconds

Maximum memory used throughout the entire GTOINT-calculation: 99.0 MB


           ************************************************************
           *        Program running with 16 parallel MPI-processes    *
           *              working on a common directory               *
           ************************************************************
-------------------------------------------------------------------------------
                                 ORCA SCF
-------------------------------------------------------------------------------

------------
SCF SETTINGS
------------
Hamiltonian:
 Ab initio Hamiltonian  Method          .... Hartree-Fock(GTOs)


General Settings:
 Integral files         IntName         .... /scratch/allen/tmpyp4_amber_gaff2/conf1/conf1/Conf100.orca
 Hartree-Fock type      HFTyp           .... RHF
 Total Charge           Charge          ....    0
 Multiplicity           Mult            ....    1
 Number of Electrons    NEL             ....  358
 Basis Dimension        Dim             ....  918
 Nuclear Repulsion      ENuc            ....   6222.0954628077 Eh

Convergence Acceleration:
 DIIS                   CNVDIIS         .... on
   Start iteration      DIISMaxIt       ....    12
   Startup error        DIISStart       ....  0.200000
   # of expansion vecs  DIISMaxEq       ....     5
   Bias factor          DIISBfac        ....   1.050
   Max. coefficient     DIISMaxC        ....  10.000
 Trust-Rad. Augm. Hess. CNVTRAH         .... auto
   Auto Start mean grad. ratio tolernc. ....  1.125000
   Auto Start start iteration           ....    20
   Auto Start num. interpolation iter.  ....    10
   Max. Number of Micro iterations      ....    16
   Max. Number of Macro iterations      .... Maxiter - #DIIS iter
   Number of Davidson start vectors     ....     2
   Converg. threshold I  (grad. norm)   ....   1.000e-05
   Converg. threshold II (energy diff.) ....   1.000e-08
   Grad. Scal. Fac. for Micro threshold ....   0.100
   Minimum threshold for Micro iter.    ....   0.010
   NR start threshold (gradient norm)   ....   0.001
   Initial trust radius                 ....   0.400
   Minimum AH scaling param. (alpha)    ....   1.000
   Maximum AH scaling param. (alpha)    .... 1000.000
   Orbital update algorithm             .... Taylor
   White noise on init. David. guess    .... on
   Maximum white noise                  ....   0.010
   Quad. conv. algorithm                .... NR
 SOSCF                  CNVSOSCF        .... on
   Start iteration      SOSCFMaxIt      ....   150
   Startup grad/error   SOSCFStart      ....  0.003300
 Level Shifting         CNVShift        .... on
   Level shift para.    LevelShift      ....    0.2500
   Turn off err/grad.   ShiftErr        ....    0.0010
 Zerner damping         CNVZerner       .... off
 Static damping         CNVDamp         .... on
   Fraction old density DampFac         ....    0.7000
   Max. Damping (<1)    DampMax         ....    0.9800
   Min. Damping (>=0)   DampMin         ....    0.0000
   Turn off err/grad.   DampErr         ....    0.1000
 Fernandez-Rico         CNVRico         .... off

SCF Procedure:
 Maximum # iterations   MaxIter         ....   125
 SCF integral mode      SCFMode         .... Direct
   Integral package                     .... SHARK and LIBINT hybrid scheme
 Reset frequency        DirectResetFreq ....    20
 Integral Threshold     Thresh          ....  2.500e-11 Eh
 Primitive CutOff       TCut            ....  2.500e-12 Eh

Convergence Tolerance:
 Convergence Check Mode ConvCheckMode   .... Total+1el-Energy
 Convergence forced     ConvForced      .... 1
 Energy Change          TolE            ....  1.000e-08 Eh
 1-El. energy change                    ....  1.000e-05 Eh
 Orbital Gradient       TolG            ....  1.000e-05
 Orbital Rotation angle TolX            ....  1.000e-05
 DIIS Error             TolErr          ....  5.000e-07


Diagonalization of the overlap matrix:
Smallest eigenvalue                        ... 2.263e-04
Time for diagonalization                   ...    0.360 sec
Threshold for overlap eigenvalues          ... 1.000e-08
Number of eigenvalues below threshold      ... 0
Time for construction of square roots      ...    0.257 sec
Total time needed                          ...    0.622 sec

Time for model grid setup =    1.052 sec

------------------------------
INITIAL GUESS: MODEL POTENTIAL
------------------------------
Loading Hartree-Fock densities                     ... done
Calculating cut-offs                               ... done
Initializing the effective Hamiltonian             ... done
Setting up the integral package (SHARK)            ... done
Starting the Coulomb interaction                   ... done (   1.2 sec)
Reading the grid                                   ... done
Mapping shells                                     ... done
Starting the XC term evaluation                    ... done (   0.2 sec)
Transforming the Hamiltonian                       ... done (   0.2 sec)
Diagonalizing the Hamiltonian                      ... done (   0.3 sec)
Back transforming the eigenvectors                 ... done (   0.1 sec)
Now organizing SCF variables                       ... done
                      ------------------
                      INITIAL GUESS DONE (   3.1 sec)
                      ------------------
--------------
SCF ITERATIONS
--------------
ITER       Energy         Delta-E        Max-DP      RMS-DP      [F,P]     Damp
               ***  Starting incremental Fock matrix formation  ***
  0  -2121.6454139016   0.000000000000 0.06931248  0.00121167  0.2348686 0.7000
  1  -2122.3144591775  -0.669045275856 0.05267982  0.00098186  0.1452664 0.7000
                               ***Turning on DIIS***
  2  -2122.7305679798  -0.416108802343 0.11714625  0.00222029  0.0806469 0.0000
  3  -2117.7262865183   5.004281461466 0.03456165  0.00068653  0.0443591 0.0000
  4  -2123.4054846693  -5.679198151001 0.00912721  0.00023028  0.0072519 0.0000
  5  -2123.5810238461  -0.175539176778 0.00526214  0.00013804  0.0051126 0.0000
  6  -2123.5616762041   0.019347641981 0.00419691  0.00009328  0.0023242 0.0000
  7  -2123.6667204528  -0.105044248687 0.00371493  0.00007750  0.0018163 0.0000
  8  -2123.6943994669  -0.027679014112 0.00356023  0.00007784  0.0017030 0.0000
  9  -2123.6537782545   0.040621212394 0.00285105  0.00005653  0.0013634 0.0000
 10  -2123.6761630603  -0.022384805719 0.00283663  0.00005404  0.0010367 0.0000
                      *** Initiating the SOSCF procedure ***
                           *** Shutting down DIIS ***
                      *** Re-Reading the Fockian *** 
                      *** Removing any level shift *** 
ITER      Energy       Delta-E        Grad      Rot      Max-DP    RMS-DP
 11  -2123.67077907   0.0053839893  0.002856  0.002856  0.007454  0.000119
               *** Restarting incremental Fock matrix formation ***
 12  -2123.61153783   0.0592412399  0.001042  0.009341  0.001944  0.000049
 13  -2123.61170471  -0.0001668825  0.001242  0.021908  0.005822  0.000094
 14  -2123.61200135  -0.0002966369  0.000890  0.039874  0.011409  0.000177
 15  -2123.61223392  -0.0002325708  0.000712  0.009029  0.002054  0.000032
 16  -2123.61227756  -0.0000436391  0.000474  0.007545  0.001712  0.000034
 17  -2123.61232320  -0.0000456421  0.000248  0.017010  0.003016  0.000061
 18  -2123.61235668  -0.0000334822  0.000197  0.004211  0.000865  0.000015
 19  -2123.61236727  -0.0000105808  0.000216  0.005149  0.000934  0.000016
 20  -2123.61237495  -0.0000076892  0.000158  0.005412  0.000975  0.000017
 21  -2123.61237920  -0.0000042496  0.000091  0.003560  0.000481  0.000010
 22  -2123.61238164  -0.0000024366  0.000081  0.004507  0.000736  0.000014
 23  -2123.61238394  -0.0000022992  0.000053  0.001610  0.000368  0.000007
 24  -2123.61238467  -0.0000007295  0.000037  0.001034  0.000307  0.000005
 25  -2123.61238508  -0.0000004122  0.000034  0.000856  0.000222  0.000003
 26  -2123.61238531  -0.0000002315  0.000029  0.000860  0.000199  0.000003
 27  -2123.61238548  -0.0000001709  0.000018  0.000801  0.000177  0.000003
 28  -2123.61238561  -0.0000001211  0.000013  0.000547  0.000125  0.000002
 29  -2123.61238567  -0.0000000666  0.000008  0.000226  0.000042  0.000001
 30  -2123.61238569  -0.0000000222  0.000005  0.000059  0.000016  0.000000
 31  -2123.61238571  -0.0000000118  0.000005  0.000054  0.000019  0.000000
               *** Restarting incremental Fock matrix formation ***
 32  -2123.61238569   0.0000000141  0.000003  0.000061  0.000019  0.000000
                  ***Gradient check signals convergence***
              ***Rediagonalizing the Fockian in SOSCF/NRSCF***

               *****************************************************
               *                     SUCCESS                       *
               *           SCF CONVERGED AFTER  33 CYCLES          *
               *****************************************************


----------------
TOTAL SCF ENERGY
----------------

Total Energy       :        -2123.61238568 Eh          -57786.43082 eV

Components:
Nuclear Repulsion  :         6222.09546281 Eh          169311.82519 eV
Electronic Energy  :        -8345.70784848 Eh         -227098.25601 eV
One Electron Energy:       -15285.67080334 Eh         -415944.24876 eV
Two Electron Energy:         6939.96295486 Eh          188845.99275 eV

Virial components:
Potential Energy   :        -4245.59767627 Eh         -115528.58613 eV
Kinetic Energy     :         2121.98529059 Eh           57742.15531 eV
Virial Ratio       :            2.00076678


---------------
SCF CONVERGENCE
---------------

  Last Energy change         ...    1.5250e-08  Tolerance :   1.0000e-08
  Last MAX-Density change    ...    9.7042e-06  Tolerance :   1.0000e-07
  Last RMS-Density change    ...    1.7792e-07  Tolerance :   5.0000e-09
  Last Orbital Gradient      ...    1.6545e-06  Tolerance :   1.0000e-05
  Last Orbital Rotation      ...    3.6544e-05  Tolerance :   1.0000e-05

             **** THE GBW FILE WAS UPDATED (/scratch/allen/tmpyp4_amber_gaff2/conf1/conf1/Conf100.orca.gbw) ****
             **** DENSITY /scratch/allen/tmpyp4_amber_gaff2/conf1/conf1/Conf100.orca.scfp WAS UPDATED ****
             **** ENERGY FILE WAS UPDATED (/scratch/allen/tmpyp4_amber_gaff2/conf1/conf1/Conf100.orca.en.tmp) ****
             **** THE GBW FILE WAS UPDATED (/scratch/allen/tmpyp4_amber_gaff2/conf1/conf1/Conf100.orca.gbw) ****
             **** DENSITY /scratch/allen/tmpyp4_amber_gaff2/conf1/conf1/Conf100.orca.scfp WAS UPDATED ****
----------------
ORBITAL ENERGIES
----------------

  NO   OCC          E(Eh)            E(eV) 
   0   2.0000     -15.701310      -427.2544 
   1   2.0000     -15.632654      -425.3862 
   2   2.0000     -15.620466      -425.0545 
   3   2.0000     -15.586445      -424.1287 
   4   2.0000     -15.519131      -422.2970 
   5   2.0000     -15.506747      -421.9600 
   6   2.0000     -15.450087      -420.4182 
   7   2.0000     -15.429243      -419.8510 
   8   2.0000     -11.343868      -308.6824 
   9   2.0000     -11.342368      -308.6415 
  10   2.0000     -11.339512      -308.5638 
  11   2.0000     -11.298820      -307.4565 
  12   2.0000     -11.297182      -307.4119 
  13   2.0000     -11.293239      -307.3047 
  14   2.0000     -11.290722      -307.2362 
  15   2.0000     -11.284723      -307.0729 
  16   2.0000     -11.282172      -307.0035 
  17   2.0000     -11.275271      -306.8157 
  18   2.0000     -11.275189      -306.8135 
  19   2.0000     -11.273919      -306.7789 
  20   2.0000     -11.269439      -306.6570 
  21   2.0000     -11.251569      -306.1708 
  22   2.0000     -11.247821      -306.0688 
  23   2.0000     -11.236213      -305.7529 
  24   2.0000     -11.229663      -305.5747 
  25   2.0000     -11.228788      -305.5509 
  26   2.0000     -11.224712      -305.4399 
  27   2.0000     -11.220132      -305.3153 
  28   2.0000     -11.219900      -305.3090 
  29   2.0000     -11.207048      -304.9593 
  30   2.0000     -11.206236      -304.9372 
  31   2.0000     -11.195651      -304.6491 
  32   2.0000     -11.194874      -304.6280 
  33   2.0000     -11.192567      -304.5652 
  34   2.0000     -11.190565      -304.5107 
  35   2.0000     -11.189338      -304.4774 
  36   2.0000     -11.189037      -304.4692 
  37   2.0000     -11.183643      -304.3224 
  38   2.0000     -11.183440      -304.3169 
  39   2.0000     -11.172724      -304.0253 
  40   2.0000     -11.166737      -303.8624 
  41   2.0000     -11.164945      -303.8136 
  42   2.0000     -11.162113      -303.7365 
  43   2.0000     -11.160828      -303.7016 
  44   2.0000     -11.158393      -303.6353 
  45   2.0000     -11.148440      -303.3645 
  46   2.0000     -11.147771      -303.3463 
  47   2.0000     -11.144490      -303.2570 
  48   2.0000     -11.142870      -303.2129 
  49   2.0000     -11.135854      -303.0220 
  50   2.0000     -11.120053      -302.5920 
  51   2.0000     -11.115608      -302.4711 
  52   2.0000      -1.376758       -37.4635 
  53   2.0000      -1.320219       -35.9250 
  54   2.0000      -1.309203       -35.6252 
  55   2.0000      -1.280354       -34.8402 
  56   2.0000      -1.221646       -33.2427 
  57   2.0000      -1.203167       -32.7398 
  58   2.0000      -1.173744       -31.9392 
  59   2.0000      -1.154581       -31.4177 
  60   2.0000      -1.139934       -31.0192 
  61   2.0000      -1.108900       -30.1747 
  62   2.0000      -1.098747       -29.8984 
  63   2.0000      -1.096146       -29.8276 
  64   2.0000      -1.073435       -29.2096 
  65   2.0000      -1.047884       -28.5144 
  66   2.0000      -1.044402       -28.4196 
  67   2.0000      -1.034015       -28.1370 
  68   2.0000      -1.014200       -27.5978 
  69   2.0000      -1.007177       -27.4067 
  70   2.0000      -1.004494       -27.3337 
  71   2.0000      -0.990770       -26.9602 
  72   2.0000      -0.983993       -26.7758 
  73   2.0000      -0.979220       -26.6459 
  74   2.0000      -0.965584       -26.2749 
  75   2.0000      -0.961276       -26.1577 
  76   2.0000      -0.951676       -25.8964 
  77   2.0000      -0.942221       -25.6391 
  78   2.0000      -0.922567       -25.1043 
  79   2.0000      -0.922280       -25.0965 
  80   2.0000      -0.915254       -24.9053 
  81   2.0000      -0.889066       -24.1927 
  82   2.0000      -0.881016       -23.9737 
  83   2.0000      -0.870940       -23.6995 
  84   2.0000      -0.861386       -23.4395 
  85   2.0000      -0.849107       -23.1054 
  86   2.0000      -0.834769       -22.7152 
  87   2.0000      -0.828680       -22.5495 
  88   2.0000      -0.821675       -22.3589 
  89   2.0000      -0.795184       -21.6381 
  90   2.0000      -0.788474       -21.4555 
  91   2.0000      -0.762832       -20.7577 
  92   2.0000      -0.733592       -19.9621 
  93   2.0000      -0.728301       -19.8181 
  94   2.0000      -0.726559       -19.7707 
  95   2.0000      -0.721503       -19.6331 
  96   2.0000      -0.716647       -19.5009 
  97   2.0000      -0.707326       -19.2473 
  98   2.0000      -0.702455       -19.1148 
  99   2.0000      -0.697119       -18.9696 
 100   2.0000      -0.695047       -18.9132 
 101   2.0000      -0.691126       -18.8065 
 102   2.0000      -0.683880       -18.6093 
 103   2.0000      -0.675408       -18.3788 
 104   2.0000      -0.672748       -18.3064 
 105   2.0000      -0.669209       -18.2101 
 106   2.0000      -0.664289       -18.0762 
 107   2.0000      -0.659037       -17.9333 
 108   2.0000      -0.653886       -17.7931 
 109   2.0000      -0.651178       -17.7194 
 110   2.0000      -0.648874       -17.6568 
 111   2.0000      -0.643530       -17.5113 
 112   2.0000      -0.640717       -17.4348 
 113   2.0000      -0.638308       -17.3692 
 114   2.0000      -0.632021       -17.1982 
 115   2.0000      -0.625272       -17.0145 
 116   2.0000      -0.623852       -16.9759 
 117   2.0000      -0.620855       -16.8943 
 118   2.0000      -0.613407       -16.6917 
 119   2.0000      -0.611581       -16.6420 
 120   2.0000      -0.609565       -16.5871 
 121   2.0000      -0.602069       -16.3831 
 122   2.0000      -0.591157       -16.0862 
 123   2.0000      -0.585867       -15.9423 
 124   2.0000      -0.582039       -15.8381 
 125   2.0000      -0.580227       -15.7888 
 126   2.0000      -0.577136       -15.7047 
 127   2.0000      -0.576189       -15.6789 
 128   2.0000      -0.571988       -15.5646 
 129   2.0000      -0.559347       -15.2206 
 130   2.0000      -0.556850       -15.1527 
 131   2.0000      -0.549336       -14.9482 
 132   2.0000      -0.542813       -14.7707 
 133   2.0000      -0.539210       -14.6727 
 134   2.0000      -0.534515       -14.5449 
 135   2.0000      -0.530183       -14.4270 
 136   2.0000      -0.518475       -14.1084 
 137   2.0000      -0.515622       -14.0308 
 138   2.0000      -0.515360       -14.0237 
 139   2.0000      -0.512725       -13.9520 
 140   2.0000      -0.510271       -13.8852 
 141   2.0000      -0.503854       -13.7106 
 142   2.0000      -0.501833       -13.6556 
 143   2.0000      -0.500084       -13.6080 
 144   2.0000      -0.495161       -13.4740 
 145   2.0000      -0.493929       -13.4405 
 146   2.0000      -0.491287       -13.3686 
 147   2.0000      -0.477203       -12.9853 
 148   2.0000      -0.475998       -12.9526 
 149   2.0000      -0.464809       -12.6481 
 150   2.0000      -0.462302       -12.5799 
 151   2.0000      -0.459313       -12.4986 
 152   2.0000      -0.451339       -12.2816 
 153   2.0000      -0.441770       -12.0212 
 154   2.0000      -0.435421       -11.8484 
 155   2.0000      -0.433701       -11.8016 
 156   2.0000      -0.421688       -11.4747 
 157   2.0000      -0.415040       -11.2938 
 158   2.0000      -0.409920       -11.1545 
 159   2.0000      -0.399084       -10.8596 
 160   2.0000      -0.382957       -10.4208 
 161   2.0000      -0.370522       -10.0824 
 162   2.0000      -0.355843        -9.6830 
 163   2.0000      -0.354730        -9.6527 
 164   2.0000      -0.346892        -9.4394 
 165   2.0000      -0.339964        -9.2509 
 166   2.0000      -0.338845        -9.2204 
 167   2.0000      -0.323770        -8.8102 
 168   2.0000      -0.314565        -8.5598 
 169   2.0000      -0.301525        -8.2049 
 170   2.0000      -0.298606        -8.1255 
 171   2.0000      -0.283576        -7.7165 
 172   2.0000      -0.278652        -7.5825 
 173   2.0000      -0.264656        -7.2017 
 174   2.0000      -0.232143        -6.3169 
 175   2.0000      -0.183927        -5.0049 
 176   2.0000      -0.173897        -4.7320 
 177   2.0000      -0.062267        -1.6944 
 178   2.0000      -0.051184        -1.3928 
 179   0.0000       0.034730         0.9450 
 180   0.0000       0.058426         1.5899 
 181   0.0000       0.084575         2.3014 
 182   0.0000       0.097934         2.6649 
 183   0.0000       0.102601         2.7919 
 184   0.0000       0.131912         3.5895 
 185   0.0000       0.138682         3.7737 
 186   0.0000       0.147942         4.0257 
 187   0.0000       0.163389         4.4460 
 188   0.0000       0.165360         4.4997 
 189   0.0000       0.171196         4.6585 
 190   0.0000       0.172327         4.6892 
 191   0.0000       0.173167         4.7121 
 192   0.0000       0.174807         4.7567 
 193   0.0000       0.190474         5.1831 
 194   0.0000       0.204165         5.5556 
 195   0.0000       0.208202         5.6655 
 196   0.0000       0.210024         5.7150 
 197   0.0000       0.211863         5.7651 
 198   0.0000       0.216788         5.8991 
 199   0.0000       0.225593         6.1387 
 200   0.0000       0.231357         6.2955 
 201   0.0000       0.234476         6.3804 
 202   0.0000       0.236846         6.4449 
 203   0.0000       0.239865         6.5271 
 204   0.0000       0.245280         6.6744 
 205   0.0000       0.247069         6.7231 
 206   0.0000       0.254182         6.9167 
 207   0.0000       0.256066         6.9679 
 208   0.0000       0.256811         6.9882 
 209   0.0000       0.257986         7.0202 
 210   0.0000       0.263199         7.1620 
 211   0.0000       0.264323         7.1926 
 212   0.0000       0.266965         7.2645 
 213   0.0000       0.273025         7.4294 
 214   0.0000       0.278020         7.5653 
 215   0.0000       0.280022         7.6198 
 216   0.0000       0.282055         7.6751 
 217   0.0000       0.285294         7.7632 
 218   0.0000       0.287616         7.8264 
 219   0.0000       0.288300         7.8451 
 220   0.0000       0.293292         7.9809 
 221   0.0000       0.293675         7.9913 
 222   0.0000       0.297211         8.0875 
 223   0.0000       0.297919         8.1068 
 224   0.0000       0.300468         8.1762 
 225   0.0000       0.302501         8.2315 
 226   0.0000       0.305090         8.3019 
 227   0.0000       0.305733         8.3194 
 228   0.0000       0.314219         8.5503 
 229   0.0000       0.317071         8.6280 
 230   0.0000       0.325627         8.8608 
 231   0.0000       0.325809         8.8657 
 232   0.0000       0.328258         8.9324 
 233   0.0000       0.333779         9.0826 
 234   0.0000       0.337919         9.1952 
 235   0.0000       0.354364         9.6427 
 236   0.0000       0.358915         9.7666 
 237   0.0000       0.363762         9.8985 
 238   0.0000       0.383705        10.4412 
 239   0.0000       0.394444        10.7334 
 240   0.0000       0.400652        10.9023 
 241   0.0000       0.402422        10.9505 
 242   0.0000       0.406852        11.0710 
 243   0.0000       0.419136        11.4053 
 244   0.0000       0.426031        11.5929 
 245   0.0000       0.428451        11.6587 
 246   0.0000       0.435947        11.8627 
 247   0.0000       0.438372        11.9287 
 248   0.0000       0.441219        12.0062 
 249   0.0000       0.445421        12.1205 
 250   0.0000       0.450469        12.2579 
 251   0.0000       0.456045        12.4096 
 252   0.0000       0.464925        12.6513 
 253   0.0000       0.467601        12.7241 
 254   0.0000       0.470117        12.7925 
 255   0.0000       0.473017        12.8714 
 256   0.0000       0.476969        12.9790 
 257   0.0000       0.483907        13.1678 
 258   0.0000       0.488399        13.2900 
 259   0.0000       0.494264        13.4496 
 260   0.0000       0.502549        13.6751 
 261   0.0000       0.503461        13.6999 
 262   0.0000       0.506648        13.7866 
 263   0.0000       0.507993        13.8232 
 264   0.0000       0.514310        13.9951 
 265   0.0000       0.516482        14.0542 
 266   0.0000       0.520458        14.1624 
 267   0.0000       0.524423        14.2703 
 268   0.0000       0.530691        14.4408 
 269   0.0000       0.540326        14.7030 
 270   0.0000       0.543213        14.7816 
 271   0.0000       0.546370        14.8675 
 272   0.0000       0.549468        14.9518 
 273   0.0000       0.551228        14.9997 
 274   0.0000       0.556016        15.1300 
 275   0.0000       0.559366        15.2211 
 276   0.0000       0.567097        15.4315 
 277   0.0000       0.570295        15.5185 
 278   0.0000       0.578150        15.7323 
 279   0.0000       0.584267        15.8987 
 280   0.0000       0.588667        16.0184 
 281   0.0000       0.592823        16.1315 
 282   0.0000       0.594777        16.1847 
 283   0.0000       0.597744        16.2654 
 284   0.0000       0.601828        16.3766 
 285   0.0000       0.603630        16.4256 
 286   0.0000       0.608333        16.5536 
 287   0.0000       0.611146        16.6301 
 288   0.0000       0.613783        16.7019 
 289   0.0000       0.618131        16.8202 
 290   0.0000       0.624007        16.9801 
 291   0.0000       0.627587        17.0775 
 292   0.0000       0.631060        17.1720 
 293   0.0000       0.634469        17.2648 
 294   0.0000       0.642706        17.4889 
 295   0.0000       0.647872        17.6295 
 296   0.0000       0.656558        17.8659 
 297   0.0000       0.657798        17.8996 
 298   0.0000       0.660918        17.9845 
 299   0.0000       0.662684        18.0325 
 300   0.0000       0.667435        18.1618 
 301   0.0000       0.672608        18.3026 
 302   0.0000       0.673615        18.3300 
 303   0.0000       0.674615        18.3572 
 304   0.0000       0.677454        18.4345 
 305   0.0000       0.680286        18.5115 
 306   0.0000       0.684042        18.6137 
 307   0.0000       0.688100        18.7242 
 308   0.0000       0.690083        18.7781 
 309   0.0000       0.696043        18.9403 
 310   0.0000       0.699191        19.0260 
 311   0.0000       0.704526        19.1711 
 312   0.0000       0.705241        19.1906 
 313   0.0000       0.707038        19.2395 
 314   0.0000       0.713512        19.4157 
 315   0.0000       0.713906        19.4264 
 316   0.0000       0.716293        19.4913 
 317   0.0000       0.717295        19.5186 
 318   0.0000       0.720477        19.6052 
 319   0.0000       0.722377        19.6569 
 320   0.0000       0.725104        19.7311 
 321   0.0000       0.728896        19.8343 
 322   0.0000       0.730643        19.8818 
 323   0.0000       0.734365        19.9831 
 324   0.0000       0.740867        20.1600 
 325   0.0000       0.742124        20.1942 
 326   0.0000       0.743925        20.2432 
 327   0.0000       0.746914        20.3245 
 328   0.0000       0.749912        20.4061 
 329   0.0000       0.754578        20.5331 
 330   0.0000       0.756738        20.5919 
 331   0.0000       0.758762        20.6470 
 332   0.0000       0.761363        20.7177 
 333   0.0000       0.762984        20.7618 
 334   0.0000       0.766902        20.8685 
 335   0.0000       0.767344        20.8805 
 336   0.0000       0.776889        21.1402 
 337   0.0000       0.778051        21.1719 
 338   0.0000       0.779805        21.2196 
 339   0.0000       0.786500        21.4018 
 340   0.0000       0.788790        21.4641 
 341   0.0000       0.792661        21.5694 
 342   0.0000       0.794872        21.6296 
 343   0.0000       0.796756        21.6808 
 344   0.0000       0.800769        21.7900 
 345   0.0000       0.801627        21.8134 
 346   0.0000       0.802954        21.8495 
 347   0.0000       0.808593        22.0029 
 348   0.0000       0.813662        22.1409 
 349   0.0000       0.815175        22.1820 
 350   0.0000       0.815955        22.2033 
 351   0.0000       0.821436        22.3524 
 352   0.0000       0.821855        22.3638 
 353   0.0000       0.825161        22.4538 
 354   0.0000       0.825858        22.4727 
 355   0.0000       0.828297        22.5391 
 356   0.0000       0.832926        22.6651 
 357   0.0000       0.835684        22.7401 
 358   0.0000       0.838456        22.8156 
 359   0.0000       0.839722        22.8500 
 360   0.0000       0.843591        22.9553 
 361   0.0000       0.845498        23.0072 
 362   0.0000       0.848287        23.0831 
 363   0.0000       0.850348        23.1391 
 364   0.0000       0.850876        23.1535 
 365   0.0000       0.855532        23.2802 
 366   0.0000       0.858228        23.3536 
 367   0.0000       0.860595        23.4180 
 368   0.0000       0.862595        23.4724 
 369   0.0000       0.866414        23.5763 
 370   0.0000       0.868390        23.6301 
 371   0.0000       0.868830        23.6421 
 372   0.0000       0.871137        23.7049 
 373   0.0000       0.874558        23.7979 
 374   0.0000       0.875813        23.8321 
 375   0.0000       0.877066        23.8662 
 376   0.0000       0.878842        23.9145 
 377   0.0000       0.882468        24.0132 
 378   0.0000       0.887223        24.1426 
 379   0.0000       0.889831        24.2135 
 380   0.0000       0.891270        24.2527 
 381   0.0000       0.895754        24.3747 
 382   0.0000       0.898881        24.4598 
 383   0.0000       0.903129        24.5754 
 384   0.0000       0.904953        24.6250 
 385   0.0000       0.906434        24.6653 
 386   0.0000       0.908669        24.7261 
 387   0.0000       0.914909        24.8959 
 388   0.0000       0.915469        24.9112 
 389   0.0000       0.917978        24.9795 
 390   0.0000       0.920360        25.0443 
 391   0.0000       0.924819        25.1656 
 392   0.0000       0.925588        25.1865 
 393   0.0000       0.929608        25.2959 
 394   0.0000       0.932460        25.3735 
 395   0.0000       0.933122        25.3916 
 396   0.0000       0.935084        25.4449 
 397   0.0000       0.937159        25.5014 
 398   0.0000       0.941471        25.6187 
 399   0.0000       0.941739        25.6260 
 400   0.0000       0.946846        25.7650 
 401   0.0000       0.951014        25.8784 
 402   0.0000       0.952674        25.9236 
 403   0.0000       0.954837        25.9824 
 404   0.0000       0.958260        26.0756 
 405   0.0000       0.959127        26.0992 
 406   0.0000       0.962811        26.1994 
 407   0.0000       0.964623        26.2487 
 408   0.0000       0.964830        26.2543 
 409   0.0000       0.970993        26.4221 
 410   0.0000       0.978323        26.6215 
 411   0.0000       0.983809        26.7708 
 412   0.0000       0.986226        26.8366 
 413   0.0000       0.992707        27.0129 
 414   0.0000       0.994855        27.0714 
 415   0.0000       0.997638        27.1471 
 416   0.0000       1.003552        27.3080 
 417   0.0000       1.007391        27.4125 
 418   0.0000       1.008326        27.4380 
 419   0.0000       1.018115        27.7043 
 420   0.0000       1.023355        27.8469 
 421   0.0000       1.026562        27.9342 
 422   0.0000       1.033416        28.1207 
 423   0.0000       1.036853        28.2142 
 424   0.0000       1.040147        28.3038 
 425   0.0000       1.043924        28.4066 
 426   0.0000       1.054320        28.6895 
 427   0.0000       1.063899        28.9502 
 428   0.0000       1.069364        29.0989 
 429   0.0000       1.072669        29.1888 
 430   0.0000       1.075862        29.2757 
 431   0.0000       1.082819        29.4650 
 432   0.0000       1.086068        29.5534 
 433   0.0000       1.087356        29.5885 
 434   0.0000       1.093317        29.7507 
 435   0.0000       1.099449        29.9175 
 436   0.0000       1.108657        30.1681 
 437   0.0000       1.111726        30.2516 
 438   0.0000       1.112027        30.2598 
 439   0.0000       1.114734        30.3335 
 440   0.0000       1.116616        30.3847 
 441   0.0000       1.119565        30.4649 
 442   0.0000       1.125000        30.6128 
 443   0.0000       1.129101        30.7244 
 444   0.0000       1.133634        30.8478 
 445   0.0000       1.135834        30.9076 
 446   0.0000       1.140548        31.0359 
 447   0.0000       1.142941        31.1010 
 448   0.0000       1.146746        31.2045 
 449   0.0000       1.148664        31.2567 
 450   0.0000       1.155645        31.4467 
 451   0.0000       1.157263        31.4907 
 452   0.0000       1.157986        31.5104 
 453   0.0000       1.159390        31.5486 
 454   0.0000       1.164070        31.6760 
 455   0.0000       1.168915        31.8078 
 456   0.0000       1.170823        31.8597 
 457   0.0000       1.177088        32.0302 
 458   0.0000       1.182843        32.1868 
 459   0.0000       1.188059        32.3287 
 460   0.0000       1.190530        32.3960 
 461   0.0000       1.195281        32.5253 
 462   0.0000       1.196191        32.5500 
 463   0.0000       1.204145        32.7664 
 464   0.0000       1.207141        32.8480 
 465   0.0000       1.210000        32.9258 
 466   0.0000       1.211098        32.9557 
 467   0.0000       1.213232        33.0137 
 468   0.0000       1.222386        33.2628 
 469   0.0000       1.225204        33.3395 
 470   0.0000       1.227682        33.4069 
 471   0.0000       1.231723        33.5169 
 472   0.0000       1.233526        33.5660 
 473   0.0000       1.238033        33.6886 
 474   0.0000       1.241029        33.7701 
 475   0.0000       1.242033        33.7974 
 476   0.0000       1.245397        33.8890 
 477   0.0000       1.248054        33.9613 
 478   0.0000       1.256330        34.1865 
 479   0.0000       1.256717        34.1970 
 480   0.0000       1.260062        34.2880 
 481   0.0000       1.263462        34.3806 
 482   0.0000       1.264413        34.4064 
 483   0.0000       1.269696        34.5502 
 484   0.0000       1.276446        34.7339 
 485   0.0000       1.279352        34.8129 
 486   0.0000       1.281877        34.8816 
 487   0.0000       1.286201        34.9993 
 488   0.0000       1.289399        35.0863 
 489   0.0000       1.292156        35.1613 
 490   0.0000       1.297068        35.2950 
 491   0.0000       1.299688        35.3663 
 492   0.0000       1.300848        35.3979 
 493   0.0000       1.306471        35.5509 
 494   0.0000       1.312414        35.7126 
 495   0.0000       1.314899        35.7802 
 496   0.0000       1.316387        35.8207 
 497   0.0000       1.320614        35.9357 
 498   0.0000       1.329261        36.1710 
 499   0.0000       1.330625        36.2082 
[...]
      pz      :     0.021776  p :     0.079289
      px      :     0.042879
      py      :     0.014633
 77 H s       :     0.895208  s :     0.895208
      pz      :     0.047152  p :     0.078371
      px      :     0.015003
      py      :     0.016215
 78 H s       :     0.895629  s :     0.895629
      pz      :     0.025460  p :     0.078281
      px      :     0.020698
      py      :     0.032123
 79 H s       :     0.907177  s :     0.907177
      pz      :     0.022563  p :     0.087242
      px      :     0.021893
      py      :     0.042786
 80 H s       :     0.879278  s :     0.879278
      pz      :     0.038194  p :     0.083243
      px      :     0.029513
      py      :     0.015535
 81 H s       :     0.888621  s :     0.888621
      pz      :     0.037567  p :     0.083337
      px      :     0.016080
      py      :     0.029690
 82 H s       :     0.914427  s :     0.914427
      pz      :     0.022486  p :     0.087124
      px      :     0.030934
      py      :     0.033703
 83 H s       :     0.872312  s :     0.872312
      pz      :     0.039170  p :     0.083664
      px      :     0.015247
      py      :     0.029247
 84 H s       :     0.888688  s :     0.888688
      pz      :     0.035803  p :     0.084370
      px      :     0.031785
      py      :     0.016781
 85 H s       :     0.895932  s :     0.895932
      pz      :     0.022506  p :     0.079608
      px      :     0.014151
      py      :     0.042950
 86 H s       :     0.890790  s :     0.890790
      pz      :     0.024699  p :     0.078884
      px      :     0.032990
      py      :     0.021195
 87 H s       :     0.891233  s :     0.891233
      pz      :     0.047817  p :     0.078593
      px      :     0.015654
      py      :     0.015122
 88 H s       :     0.918204  s :     0.918204
      pz      :     0.022562  p :     0.086855
      px      :     0.041979
      py      :     0.022314
 89 H s       :     0.875017  s :     0.875017
      pz      :     0.037811  p :     0.084019
      px      :     0.030470
      py      :     0.015738


                      *****************************
                      * MAYER POPULATION ANALYSIS *
                      *****************************

  NA   - Mulliken gross atomic population
  ZA   - Total nuclear charge
  QA   - Mulliken gross atomic charge
  VA   - Mayer's total valence
  BVA  - Mayer's bonded valence
  FA   - Mayer's free valence

  ATOM       NA         ZA         QA         VA         BVA        FA
  0 C      5.7682     6.0000     0.2318     3.8056     3.8056    -0.0000
  1 N      7.4177     7.0000    -0.4177     3.4615     3.4615    -0.0000
  2 C      6.0673     6.0000    -0.0673     3.9192     3.9192    -0.0000
  3 N      7.3432     7.0000    -0.3432     3.4240     3.4240    -0.0000
  4 C      6.0762     6.0000    -0.0762     3.9633     3.9633    -0.0000
  5 N      7.5650     7.0000    -0.5650     3.0694     3.0694     0.0000
  6 C      6.0259     6.0000    -0.0259     3.9644     3.9644    -0.0000
  7 N      7.3371     7.0000    -0.3371     3.4449     3.4449    -0.0000
  8 C      5.7723     6.0000     0.2277     3.8056     3.8056    -0.0000
  9 N      7.5658     7.0000    -0.5658     3.0916     3.0916    -0.0000
 10 C      5.8944     6.0000     0.1056     3.8646     3.8646    -0.0000
 11 N      7.4392     7.0000    -0.4392     3.3761     3.3761    -0.0000
 12 C      6.0588     6.0000    -0.0588     3.9104     3.9104    -0.0000
 13 N      7.4499     7.0000    -0.4499     3.3239     3.3239    -0.0000
 14 C      5.7797     6.0000     0.2203     3.8087     3.8087    -0.0000
 15 N      7.4416     7.0000    -0.4416     3.3641     3.3641    -0.0000
 16 C      5.7453     6.0000     0.2547     3.8046     3.8046     0.0000
 17 C      6.0332     6.0000    -0.0332     3.9678     3.9678    -0.0000
 18 C      6.1754     6.0000    -0.1754     3.6839     3.6839     0.0000
 19 C      5.7727     6.0000     0.2273     3.9020     3.9020    -0.0000
 20 C      5.8092     6.0000     0.1908     3.8212     3.8212    -0.0000
 21 C      6.0663     6.0000    -0.0663     3.8922     3.8922    -0.0000
 22 C      6.0897     6.0000    -0.0897     3.9850     3.9850     0.0000
 23 C      6.0656     6.0000    -0.0656     3.9881     3.9881     0.0000
 24 C      5.7828     6.0000     0.2172     3.8294     3.8294     0.0000
 25 C      5.8854     6.0000     0.1146     3.8927     3.8927     0.0000
 26 C      6.0674     6.0000    -0.0674     3.9075     3.9075     0.0000
 27 C      5.7551     6.0000     0.2449     3.9014     3.9014     0.0000
 28 C      6.0407     6.0000    -0.0407     3.9902     3.9902    -0.0000
 29 C      6.1951     6.0000    -0.1951     3.7286     3.7286     0.0000
 30 C      5.7780     6.0000     0.2220     3.7800     3.7800    -0.0000
 31 C      5.8096     6.0000     0.1904     3.8333     3.8333    -0.0000
 32 C      6.0644     6.0000    -0.0644     3.9137     3.9137    -0.0000
 33 C      6.1007     6.0000    -0.1007     3.9849     3.9849     0.0000
 34 C      6.0500     6.0000    -0.0500     3.9990     3.9990     0.0000
 35 C      5.8196     6.0000     0.1804     3.8294     3.8294    -0.0000
 36 C      5.8796     6.0000     0.1204     3.9087     3.9087     0.0000
 37 C      6.0701     6.0000    -0.0701     3.9142     3.9142    -0.0000
 38 C      5.7556     6.0000     0.2444     3.7955     3.7955    -0.0000
 39 C      6.0654     6.0000    -0.0654     3.9983     3.9983    -0.0000
 40 C      6.2026     6.0000    -0.2026     3.7518     3.7518    -0.0000
 41 C      5.7841     6.0000     0.2159     3.8742     3.8742     0.0000
 42 C      5.7889     6.0000     0.2111     3.8321     3.8321    -0.0000
 43 C      6.0771     6.0000    -0.0771     3.9050     3.9050    -0.0000
 44 C      6.0915     6.0000    -0.0915     3.9837     3.9837     0.0000
 45 C      6.0398     6.0000    -0.0398     3.9956     3.9956     0.0000
 46 C      5.8138     6.0000     0.1862     3.8207     3.8207     0.0000
 47 C      5.8834     6.0000     0.1166     3.8969     3.8969     0.0000
 48 C      6.0821     6.0000    -0.0821     3.8978     3.8978    -0.0000
 49 C      5.7906     6.0000     0.2094     3.8654     3.8654    -0.0000
 50 C      6.0657     6.0000    -0.0657     3.9902     3.9902     0.0000
 51 C      6.1898     6.0000    -0.1898     3.7409     3.7409    -0.0000
 52 H      0.9216     1.0000     0.0784     0.9826     0.9826    -0.0000
 53 H      1.0081     1.0000    -0.0081     1.0021     1.0021    -0.0000
 54 H      0.9356     1.0000     0.0644     1.0049     1.0049    -0.0000
 55 H      0.9228     1.0000     0.0772     0.9833     0.9833    -0.0000
 56 H      0.9185     1.0000     0.0815     0.9727     0.9727    -0.0000
 57 H      0.9263     1.0000     0.0737     0.9844     0.9844    -0.0000
 58 H      0.9280     1.0000     0.0720     0.9871     0.9871    -0.0000
 59 H      1.0275     1.0000    -0.0275     0.9960     0.9960    -0.0000
 60 H      0.9370     1.0000     0.0630     1.0058     1.0058    -0.0000
 61 H      0.8235     1.0000     0.1765     1.0436     1.0436     0.0000
 62 H      0.8315     1.0000     0.1685     1.0433     1.0433    -0.0000
 63 H      0.9464     1.0000     0.0536     0.9862     0.9862    -0.0000
 64 H      1.0336     1.0000    -0.0336     0.9933     0.9933    -0.0000
 65 H      0.9584     1.0000     0.0416     1.0080     1.0080     0.0000
 66 H      0.9444     1.0000     0.0556     0.9846     0.9846    -0.0000
 67 H      0.9409     1.0000     0.0591     0.9717     0.9717    -0.0000
 68 H      0.9436     1.0000     0.0564     0.9864     0.9864    -0.0000
 69 H      0.9408     1.0000     0.0592     0.9831     0.9831    -0.0000
 70 H      1.0149     1.0000    -0.0149     0.9977     0.9977    -0.0000
 71 H      0.9527     1.0000     0.0473     1.0075     1.0075    -0.0000
 72 H      0.9608     1.0000     0.0392     0.9859     0.9859     0.0000
 73 H      1.0189     1.0000    -0.0189     0.9964     0.9964    -0.0000
 74 H      0.9690     1.0000     0.0310     1.0092     1.0092    -0.0000
 75 H      0.9621     1.0000     0.0379     0.9867     0.9867    -0.0000
 76 H      0.9523     1.0000     0.0477     0.9703     0.9703    -0.0000
 77 H      0.9528     1.0000     0.0472     0.9843     0.9843     0.0000
 78 H      0.9536     1.0000     0.0464     0.9836     0.9836     0.0000
 79 H      1.0117     1.0000    -0.0117     1.0017     1.0017    -0.0000
 80 H      0.9692     1.0000     0.0308     1.0063     1.0063    -0.0000
 81 H      0.9494     1.0000     0.0506     0.9853     0.9853     0.0000
 82 H      1.0234     1.0000    -0.0234     0.9950     0.9950    -0.0000
 83 H      0.9574     1.0000     0.0426     1.0106     1.0106     0.0000
 84 H      0.9504     1.0000     0.0496     0.9863     0.9863    -0.0000
 85 H      0.9454     1.0000     0.0546     0.9713     0.9713    -0.0000
 86 H      0.9437     1.0000     0.0563     0.9841     0.9841    -0.0000
 87 H      0.9454     1.0000     0.0546     0.9852     0.9852    -0.0000
 88 H      1.0301     1.0000    -0.0301     0.9914     0.9914    -0.0000
 89 H      0.9603     1.0000     0.0397     1.0059     1.0059     0.0000

  Mayer bond orders larger than 0.100000
B(  0-C ,  1-N ) :   1.1911 B(  0-C , 17-C ) :   1.5362 B(  0-C , 52-H ) :   0.9672 
B(  1-N ,  8-C ) :   1.1844 B(  1-N , 10-C ) :   0.9314 B(  2-C , 12-C ) :   1.5724 
B(  2-C , 16-C ) :   1.2807 B(  2-C , 53-H ) :   0.9791 B(  3-N , 14-C ) :   1.1777 
B(  3-N , 16-C ) :   1.2024 B(  3-N , 61-H ) :   0.8958 B(  4-C ,  6-C ) :   1.3429 
B(  4-C , 17-C ) :   1.3455 B(  4-C , 18-C ) :   1.0827 B(  5-N , 19-C ) :   1.3720 
B(  5-N , 27-C ) :   1.4429 B(  6-C ,  8-C ) :   1.5397 B(  6-C , 54-H ) :   0.9708 
B(  7-N , 30-C ) :   1.1843 B(  7-N , 38-C ) :   1.2144 B(  7-N , 62-H ) :   0.9009 
B(  8-C , 55-H ) :   0.9682 B(  9-N , 41-C ) :   1.4300 B(  9-N , 49-C ) :   1.3975 
B( 10-C , 56-H ) :   0.9766 B( 10-C , 57-H ) :   0.9811 B( 10-C , 58-H ) :   0.9818 
B( 11-N , 20-C ) :   1.1022 B( 11-N , 24-C ) :   1.1350 B( 11-N , 25-C ) :   0.9609 
B( 12-C , 14-C ) :   1.2815 B( 12-C , 59-H ) :   0.9773 B( 13-N , 31-C ) :   1.0879 
B( 13-N , 35-C ) :   1.0771 B( 13-N , 36-C ) :   0.9794 B( 14-C , 18-C ) :   1.2544 
B( 15-N , 42-C ) :   1.1248 B( 15-N , 46-C ) :   1.0932 B( 15-N , 47-C ) :   0.9658 
B( 16-C , 51-C ) :   1.2401 B( 17-C , 60-H ) :   0.9710 B( 18-C , 19-C ) :   1.2980 
B( 19-C , 21-C ) :   1.1708 B( 20-C , 28-C ) :   1.6263 B( 20-C , 63-H ) :   0.9708 
B( 21-C , 26-C ) :   1.6756 B( 21-C , 64-H ) :   0.9724 B( 22-C , 23-C ) :   1.2605 
B( 22-C , 28-C ) :   1.2810 B( 22-C , 29-C ) :   1.2504 B( 23-C , 24-C ) :   1.6307 
B( 23-C , 65-H ) :   0.9720 B( 24-C , 66-H ) :   0.9690 B( 25-C , 67-H ) :   0.9763 
B( 25-C , 68-H ) :   0.9833 B( 25-C , 69-H ) :   0.9819 B( 26-C , 27-C ) :   1.1777 
B( 26-C , 70-H ) :   0.9753 B( 27-C , 29-C ) :   1.2393 B( 28-C , 71-H ) :   0.9709 
B( 29-C , 30-C ) :   1.1828 B( 30-C , 32-C ) :   1.3437 B( 31-C , 39-C ) :   1.6773 
B( 31-C , 72-H ) :   0.9707 B( 32-C , 37-C ) :   1.5160 B( 32-C , 73-H ) :   0.9772 
B( 33-C , 34-C ) :   1.2387 B( 33-C , 39-C ) :   1.2304 B( 33-C , 40-C ) :   1.3418 
B( 34-C , 35-C ) :   1.6755 B( 34-C , 74-H ) :   0.9709 B( 35-C , 75-H ) :   0.9708 
B( 36-C , 76-H ) :   0.9756 B( 36-C , 77-H ) :   0.9825 B( 36-C , 78-H ) :   0.9837 
B( 37-C , 38-C ) :   1.3386 B( 37-C , 79-H ) :   0.9791 B( 38-C , 40-C ) :   1.1840 
B( 39-C , 80-H ) :   0.9721 B( 40-C , 41-C ) :   1.1744 B( 41-C , 43-C ) :   1.2522 
B( 42-C , 50-C ) :   1.6409 B( 42-C , 81-H ) :   0.9696 B( 43-C , 48-C ) :   1.5988 
B( 43-C , 82-H ) :   0.9753 B( 44-C , 45-C ) :   1.2793 B( 44-C , 50-C ) :   1.2517 
B( 44-C , 51-C ) :   1.2504 B( 45-C , 46-C ) :   1.6330 B( 45-C , 83-H ) :   0.9703 
B( 46-C , 84-H ) :   0.9708 B( 47-C , 85-H ) :   0.9760 B( 47-C , 86-H ) :   0.9826 
B( 47-C , 87-H ) :   0.9829 B( 48-C , 49-C ) :   1.2471 B( 48-C , 88-H ) :   0.9727 
B( 49-C , 51-C ) :   1.1916 B( 50-C , 89-H ) :   0.9721 

-------
TIMINGS
-------

Total SCF time: 0 days 0 hours 36 min 39 sec 

Total time                  ....    2199.768 sec
Sum of individual times     ....    2194.760 sec  ( 99.8%)

Fock matrix formation       ....    2168.830 sec  ( 98.6%)
Diagonalization             ....       6.857 sec  (  0.3%)
Density matrix formation    ....       0.826 sec  (  0.0%)
Population analysis         ....       0.527 sec  (  0.0%)
Initial guess               ....       2.068 sec  (  0.1%)
Orbital Transformation      ....       0.000 sec  (  0.0%)
Orbital Orthonormalization  ....       0.000 sec  (  0.0%)
DIIS solution               ....       3.565 sec  (  0.2%)
SOSCF solution              ....      11.035 sec  (  0.5%)

Maximum memory used throughout the entire SCF-calculation: 302.6 MB


           ************************************************************
           *        Program running with 16 parallel MPI-processes    *
           *              working on a common directory               *
           ************************************************************

------------------------------------------------------------------------------
                                ORCA  MP2 
------------------------------------------------------------------------------

Freezing NCore=104 chemical core electrons

----------
MP2 ENERGY (disk based algorithm)
----------

Dimension of the basis                    ...  918
Memory devoted to MP2                     ... 2000 MB   
Data format for buffers                   ... DOUBLE
Compression type for matrix containers    ... UNCOMPRESSED

-------------------------------
PARTIAL EXCHANGE TRANSFORMATION
-------------------------------

Transformation type                        ... one-operator
Generation of integrals (i,mue|j,nue)      ... ON
Generation of integrals (mue,kappa|nue,tau)... OFF
Generation of integrals (i,mue|a,nue)      ... OFF
Dimension of the basis                     ...  918
Number of internal MOs                     ...  127 (  52- 178)
Pair cutoff                                ... 2.500e-12 Eh
Number of AO pairs in the trafo            ... 421821
Total Number of distinct AO pairs          ... 421821
Memory devoted for trafo                   ... 2000.0 MB 
Max. Number of MO pairs treated together   ...  311      
Number Format for Storage                  ... Double (8 Byte)
Integral package used                      ... LIBINT

Starting integral evaluation:
    ... done with AO integral generation
Closing buffer AOK     (37.84 GB; CompressionRatio= 1.34)
Collecting buffer AOK 
Number of MO pairs included in the trafo   ... 8128
------------------------
SORTING OF (i,mue|j,nue)
------------------------

IBATCH = 1 of  2
IBATCH = 2 of  2
Closing buffer KAO     (51.03 GB; CompressionRatio= 1.00)
Collecting buffer KAO 
N(AO-Batches) Done                         ...  85705620 
N(AO-Batches) Skipped                      ...  81794603 
N(IJ)-pairs Skipped                        ...         0 
TOTAL TIME for half transformation         ...  3155.923 sec
AO-integral generation                     ...   211.120 sec
Half transformation                        ...   376.785 sec
K-integral sorting                         ...  2395.816 sec
Process 10:   Internal MO 132
Process 13:   Internal MO 156

Finished integral transformation - now doing MP2 part

OPERATOR COMBINATION   0   0: ij=( 52..178, 52..178)
Process  1:   Internal MO  60
Process  4:   Internal MO  84
Process  7:   Internal MO 108
Process  0:   Internal MO  54
Process  2:   Internal MO  69
Process  0:   Internal MO  57
Process  1:   Internal MO  63
Process  5:   Internal MO  93
Process  3:   Internal MO  78
Process  2:   Internal MO  72
Process  8:   Internal MO 117
Process  1:   Internal MO  66
Process  4:   Internal MO  87
Process  6:   Internal MO 102
Process 14:   Internal MO 165
Process 11:   Internal MO 141
Process  2:   Internal MO  75
Process  3:   Internal MO  81
Process  9:   Internal MO 126
Process 12:   Internal MO 150
Process  5:   Internal MO  96
Process  4:   Internal MO  90
Process 10:   Internal MO 135
Process  6:   Internal MO 105
Process 15:   Internal MO 174
Process  8:   Internal MO 120
Process  7:   Internal MO 111
Process  5:   Internal MO  99
Process 13:   Internal MO 159
Process 11:   Internal MO 144
Process  9:   Internal MO 129
Process 12:   Internal MO 153
Process 14:   Internal MO 168
Process  8:   Internal MO 123
Process  7:   Internal MO 114
Process 10:   Internal MO 138
Process 15:   Internal MO 177
Process 11:   Internal MO 147
Process 13:   Internal MO 162
Process 14:   Internal MO 171
-----------------------------------------------
 MP2 CORRELATION ENERGY   :     -7.269510932 Eh
-----------------------------------------------


-------
TIMINGS
-------
Total time                : 3721.017 sec
Integral trafo            : 3158.155 sec ( 84.9%)
K(i,j)                    :    6.230 sec (  0.2%)
T(i,j)                    :    0.216 sec (  0.0%)

---------------------------------------
MP2 TOTAL ENERGY:    -2130.881896609 Eh
---------------------------------------

Maximum memory used throughout the entire MP2-calculation: 2275.2 MB

-------------------------   --------------------
FINAL SINGLE POINT ENERGY     -2130.881896608751
-------------------------   --------------------


                            ***************************************
                            *     ORCA property calculations      *
                            ***************************************


  WARNING: The energy has been calculated at the MP2 level but the densities
           used in the property calculations are still SCF densities
           MP2 response densities have not been calculated 
           use %mp2 Density relaxed end
           or  %mp2 Density unrelaxed end

                                    ---------------------
                                    Active property flags
                                    ---------------------
   (+) Dipole Moment


------------------------------------------------------------------------------
                       ORCA ELECTRIC PROPERTIES CALCULATION
------------------------------------------------------------------------------

Dipole Moment Calculation                       ... on
Quadrupole Moment Calculation                   ... off
Polarizability Calculation                      ... off
GBWName                                         ... /scratch/allen/tmpyp4_amber_gaff2/conf1/conf1/Conf100.orca.gbw
Electron density                                ... /scratch/allen/tmpyp4_amber_gaff2/conf1/conf1/Conf100.orca.scfp
The origin for moment calculation is the CENTER OF MASS  = ( 0.002120, -0.002714  0.003803)

-------------
DIPOLE MOMENT
-------------
                                X             Y             Z
Electronic contribution:     -3.97016       4.31441      -0.16500
Nuclear contribution   :     -0.02019       0.17215       0.21628
                        -----------------------------------------
Total Dipole Moment    :     -3.99036       4.48657       0.05127
                        -----------------------------------------
Magnitude (a.u.)       :      6.00457
Magnitude (Debye)      :     15.26240



--------------------
Rotational spectrum 
--------------------
 
Rotational constants in cm-1:     0.001498     0.001473     0.000763 
Rotational constants in MHz :    44.899074    44.145913    22.867137 

 Dipole components along the rotational axes: 
x,y,z [a.u.] :    -5.411796     2.601004     0.045453 
x,y,z [Debye]:   -13.755693     6.611228     0.115533 

 

Timings for individual modules:

Sum of individual times         ...     5944.998 sec (=  99.083 min)
GTO integral calculation        ...        3.223 sec (=   0.054 min)   0.1 %
SCF iterations                  ...     2200.862 sec (=  36.681 min)  37.0 %
MP2 module                      ...     3740.913 sec (=  62.349 min)  62.9 %
                             ****ORCA TERMINATED NORMALLY****
TOTAL RUN TIME: 0 days 1 hours 39 minutes 8 seconds 272 msec
# of primitive gaussian functions

