
                                 *****************
                                 * O   R   C   A *
                                 *****************

                                            #,                                       
                                            ###                                      
                                            ####                                     
                                            #####                                    
                                            ######                                   
                                           ########,                                 
                                     ,,################,,,,,                         
                               ,,#################################,,                 
                          ,,##########################################,,             
                       ,#########################################, ''#####,          
                    ,#############################################,,   '####,        
                  ,##################################################,,,,####,       
                ,###########''''           ''''###############################       
              ,#####''   ,,,,##########,,,,          '''####'''          '####       
            ,##' ,,,,###########################,,,                        '##       
           ' ,,###''''                  '''############,,,                           
         ,,##''                                '''############,,,,        ,,,,,,###''
      ,#''                                            '''#######################'''  
     '                                                          ''''####''''         
             ,#######,   #######,   ,#######,      ##                                
            ,#'     '#,  ##    ##  ,#'     '#,    #''#        ######   ,####,        
            ##       ##  ##   ,#'  ##            #'  '#       #        #'  '#        
            ##       ##  #######   ##           ,######,      #####,   #    #        
            '#,     ,#'  ##    ##  '#,     ,#' ,#      #,         ##   #,  ,#        
             '#######'   ##     ##  '#######'  #'      '#     #####' # '####'        



                  #######################################################
                  #                        -***-                        #
                  #          Department of theory and spectroscopy      #
                  #    Directorship and core code : Frank Neese         #
                  #        Max Planck Institute fuer Kohlenforschung    #
                  #                Kaiser Wilhelm Platz 1               #
                  #                 D-45470 Muelheim/Ruhr               #
                  #                      Germany                        #
                  #                                                     #
                  #                  All rights reserved                #
                  #                        -***-                        #
                  #######################################################


                         Program Version 5.0.4 -  RELEASE  -


 With contributions from (in alphabetic order):
   Daniel Aravena         : Magnetic Suceptibility
   Michael Atanasov       : Ab Initio Ligand Field Theory (pilot matlab implementation)
   Alexander A. Auer      : GIAO ZORA, VPT2 properties, NMR spectrum
   Ute Becker             : Parallelization
   Giovanni Bistoni       : ED, misc. LED, open-shell LED, HFLD
   Martin Brehm           : Molecular dynamics
   Dmytro Bykov           : SCF Hessian
   Vijay G. Chilkuri      : MRCI spin determinant printing, contributions to CSF-ICE
   Dipayan Datta          : RHF DLPNO-CCSD density
   Achintya Kumar Dutta   : EOM-CC, STEOM-CC
   Dmitry Ganyushin       : Spin-Orbit,Spin-Spin,Magnetic field MRCI
   Miquel Garcia          : C-PCM and meta-GGA Hessian, CC/C-PCM, Gaussian charge scheme
   Yang Guo               : DLPNO-NEVPT2, F12-NEVPT2, CIM, IAO-localization
   Andreas Hansen         : Spin unrestricted coupled pair/coupled cluster methods
   Benjamin Helmich-Paris : MC-RPA, TRAH-SCF, COSX integrals
   Lee Huntington         : MR-EOM, pCC
   Robert Izsak           : Overlap fitted RIJCOSX, COSX-SCS-MP3, EOM
   Marcus Kettner         : VPT2
   Christian Kollmar      : KDIIS, OOCD, Brueckner-CCSD(T), CCSD density, CASPT2, CASPT2-K
   Simone Kossmann        : Meta GGA functionals, TD-DFT gradient, OOMP2, MP2 Hessian
   Martin Krupicka        : Initial AUTO-CI
   Lucas Lang             : DCDCAS
   Marvin Lechner         : AUTO-CI (C++ implementation), FIC-MRCC
   Dagmar Lenk            : GEPOL surface, SMD
   Dimitrios Liakos       : Extrapolation schemes; Compound Job, initial MDCI parallelization
   Dimitrios Manganas     : Further ROCIS development; embedding schemes
   Dimitrios Pantazis     : SARC Basis sets
   Anastasios Papadopoulos: AUTO-CI, single reference methods and gradients
   Taras Petrenko         : DFT Hessian,TD-DFT gradient, ASA, ECA, R-Raman, ABS, FL, XAS/XES, NRVS
   Peter Pinski           : DLPNO-MP2, DLPNO-MP2 Gradient
   Christoph Reimann      : Effective Core Potentials
   Marius Retegan         : Local ZFS, SOC
   Christoph Riplinger    : Optimizer, TS searches, QM/MM, DLPNO-CCSD(T), (RO)-DLPNO pert. Triples
   Tobias Risthaus        : Range-separated hybrids, TD-DFT gradient, RPA, STAB
   Michael Roemelt        : Original ROCIS implementation
   Masaaki Saitow         : Open-shell DLPNO-CCSD energy and density
   Barbara Sandhoefer     : DKH picture change effects
   Avijit Sen             : IP-ROCIS
   Kantharuban Sivalingam : CASSCF convergence, NEVPT2, FIC-MRCI
   Bernardo de Souza      : ESD, SOC TD-DFT
   Georgi Stoychev        : AutoAux, RI-MP2 NMR, DLPNO-MP2 response
   Willem Van den Heuvel  : Paramagnetic NMR
   Boris Wezisla          : Elementary symmetry handling
   Frank Wennmohs         : Technical directorship


 We gratefully acknowledge several colleagues who have allowed us to
 interface, adapt or use parts of their codes:
   Stefan Grimme, W. Hujo, H. Kruse, P. Pracht,  : VdW corrections, initial TS optimization,
                  C. Bannwarth, S. Ehlert          DFT functionals, gCP, sTDA/sTD-DF
   Ed Valeev, F. Pavosevic, A. Kumar             : LibInt (2-el integral package), F12 methods
   Garnet Chan, S. Sharma, J. Yang, R. Olivares  : DMRG
   Ulf Ekstrom                                   : XCFun DFT Library
   Mihaly Kallay                                 : mrcc  (arbitrary order and MRCC methods)
   Jiri Pittner, Ondrej Demel                    : Mk-CCSD
   Frank Weinhold                                : gennbo (NPA and NBO analysis)
   Christopher J. Cramer and Donald G. Truhlar   : smd solvation model
   Lars Goerigk                                  : TD-DFT with DH, B97 family of functionals
   V. Asgeirsson, H. Jonsson                     : NEB implementation
   FAccTs GmbH                                   : IRC, NEB, NEB-TS, DLPNO-Multilevel, CI-OPT
                                                   MM, QMMM, 2- and 3-layer-ONIOM, Crystal-QMMM,
                                                   LR-CPCM, SF, NACMEs, symmetry and pop. for TD-DFT,
                                                   nearIR, NL-DFT gradient (VV10), updates on ESD,
                                                   ML-optimized integration grids
   S Lehtola, MJT Oliveira, MAL Marques          : LibXC Library
   Liviu Ungur et al                             : ANISO software


 Your calculation uses the libint2 library for the computation of 2-el integrals
 For citations please refer to: http://libint.valeyev.net

 Your ORCA version has been built with support for libXC version: 5.1.0
 For citations please refer to: https://tddft.org/programs/libxc/

 This ORCA versions uses:
   CBLAS   interface :  Fast vector & matrix operations
   LAPACKE interface :  Fast linear algebra routines
   SCALAPACK package :  Parallel linear algebra routines
   Shared memory     :  Shared parallel matrices
   BLAS/LAPACK       :  OpenBLAS 0.3.15  USE64BITINT DYNAMIC_ARCH NO_AFFINITY Sandybridge SINGLE_THREADED
        Core in use  :  Sandybridge
   Copyright (c) 2011-2014, The OpenBLAS Project


================================================================================

----- Orbital basis set information -----
Your calculation utilizes the basis: cc-pVDZ 
       H, B-Ne : Obtained from the ccRepo (grant-hill.group.shef.ac.uk/ccrepo) Feb. 2017
                 T. H. Dunning, Jr., J. Chem. Phys. 90, 1007 (1989)
            He : Obtained from the ccRepo (grant-hill.group.shef.ac.uk/ccrepo) Feb. 2017
                 D. E. Woon, T. H. Dunning, Jr., J. Chem. Phys. 100, 2975 (1994)
  Li-Be, Na-Mg : Obtained from the ccRepo (grant-hill.group.shef.ac.uk/ccrepo) Feb. 2017
                 B. P. Prascher, D. E. Woon, K. A. Peterson, T. H. Dunning, Jr., A. K. Wilson, Theor. Chem. Acc. 128, 69 (2011)
         Al-Ar : Obtained from the ccRepo (grant-hill.group.shef.ac.uk/ccrepo) Feb. 2017
                 D. E. Woon, T. H. Dunning, Jr., J. Chem. Phys. 98, 1358 (1993)
            Ca : Obtained from the Peterson Research Group Website (tyr0.chem.wsu.edu/~kipeters) Feb. 2017
                 J. Koput, K. A. Peterson, J. Phys. Chem. 106, 9595 (2002)
         Sc-Zn : Obtained from the ccRepo (grant-hill.group.shef.ac.uk/ccrepo) Feb. 2017
                 N. B. Balabanov, K. A. Peterson, J. Chem. Phys. 123, 064107 (2005)
                 N. B. Balabanov, K. A. Peterson, J. Chem. Phys. 125, 074110 (2006)
         Ga-Kr : Obtained from the ccRepo (grant-hill.group.shef.ac.uk/ccrepo) Feb. 2017
                 A. K. Wilson, D. E. Woon, K. A. Peterson, T. H. Dunning, Jr., J. Chem. Phys. 110, 7667 (1999)

================================================================================
                                        WARNINGS
                       Please study these warnings very carefully!
================================================================================


WARNING: No MP2 level density has been requested!
         To caclulate MP2 level properties use
         %mp2 Density relaxed end
         or
         %mp2 Density unrelaxed end

WARNING: Post HF methods need fully converged wavefunctions
  ===> : Setting SCFConvForced true
         You can overwrite this default with %scf ConvForced false 


INFO   : the flag for use of the SHARK integral package has been found!

================================================================================
                                       INPUT FILE
================================================================================
NAME = /scratch/allen/tmpyp4_amber_gaff2/2.Mdgx/conf11/conf11/Conf126.orca
|  1> ! PAL2
|  2> ! mp2 cc-pvdz TightSCF  NoKeepInts
|  3> 
|  4> %scf
|  5>   MaxCore 2000
|  6> end
|  7> %mp2
|  8>   MaxCore 2000
|  9> end
| 10> * xyz 0 1
| 11>    C       -4.53700         5.48800        -0.88400
| 12>    C        1.47400         4.04100         0.05700
| 13>    C       -2.80200         4.09300         0.04900
| 14>    C       -2.63700         5.05900         1.05400
| 15>    C       -3.42100         6.19500         1.05900
| 16>    C       -5.20200         7.60900         0.15300
| 17>    C        0.13200         4.30700         0.06100
| 18>    C       -0.56900         3.05600         0.04700
| 19>    C        1.64900         2.61800         0.02300
| 20>    C       -3.78000         4.33200        -0.92800
| 21>    N       -4.35200         6.39900         0.09800
| 22>    N        0.38800         2.06700         0.02500
| 23>    N       -2.01000         0.39500        -0.07500
| 24>    N       -0.38800        -2.07400        -0.02700
| 25>    N        2.01000        -0.40100         0.06500
| 26>    C       -1.96000         2.86100         0.02400
| 27>    C       -2.62300         1.61500        -0.01800
| 28>    C       -5.57300        -4.32900         1.06600
| 29>    C       -4.07300         1.47100         0.05600
| 30>    C       -4.10600        -2.75600        -0.02600
| 31>    C       -4.99500        -2.75700        -1.11100
| 32>    C       -6.13200        -3.54200        -1.07600
| 33>    C       -7.65100        -5.11300         0.04000
| 34>    C       -4.32400         0.14100         0.03700
| 35>    C       -3.02500        -0.52000        -0.04800
| 36>    C       -4.42200        -3.56600         1.07500
| 37>    N       -6.40700        -4.31300         0.00100
| 38>    C       -2.86700        -1.92200        -0.04000
| 39>    C       -1.65000        -2.62400        -0.02700
| 40>    C        3.56800        -6.14200        -1.04000
| 41>    C       -1.47600        -4.04900        -0.03400
| 42>    C        2.80300        -4.09900        -0.00800
| 43>    C        3.65700        -4.38400         1.06900
| 44>    C        4.42700        -5.53000         1.05900
| 45>    C        5.24500        -7.58800         0.01400
| 46>    C       -0.13400        -4.31500        -0.02200
| 47>    C        0.56800        -3.06400        -0.02700
| 48>    C        2.77500        -5.01200        -1.07400
| 49>    N        4.37600        -6.39100         0.01700
| 50>    C        1.95900        -2.86900        -0.00900
| 51>    C        2.62100        -1.62200         0.00900
| 52>    C        5.54300         4.33900        -1.13000
| 53>    C        4.07000        -1.47900        -0.09400
| 54>    C        4.10400         2.75100        -0.02100
| 55>    C        5.02700         2.72900         1.03600
| 56>    C        6.16600         3.50900         0.97800
| 57>    C        7.61900         5.15300        -0.11500
| 58>    C        4.32100        -0.14800        -0.09200
| 59>    C        3.02500         0.51400         0.01500
| 60>    C        4.38700         3.58200        -1.11500
| 61>    C        2.86600         1.91600         0.01300
| 62>    N        6.41300         4.29600        -0.09500
| 63>    H       -5.29300         5.71900        -1.62400
| 64>    H        2.27400         4.76600         0.08100
| 65>    H       -1.90500         4.92700         1.84100
| 66>    H       -3.33700         6.96300         1.81700
| 67>    H       -6.06200         7.41000         0.79700
| 68>    H       -4.61400         8.43300         0.55600
| 69>    H       -5.53700         7.84800        -0.85600
| 70>    H       -0.33200         5.28200         0.06900
| 71>    H       -3.94600         3.63100        -1.73800
| 72>    H        0.18200         1.07200         0.00500
| 73>    H       -0.18300        -1.08000        -0.02100
| 74>    H       -5.86400        -4.96200         1.89500
| 75>    H       -4.79400         2.27200         0.13900
| 76>    H       -4.80000        -2.16000        -1.99400
| 77>    H       -6.84100        -3.58200        -1.89300
| 78>    H       -8.42800        -4.53600         0.54600
| 79>    H       -7.95600        -5.33700        -0.98100
| 80>    H       -7.45600        -6.03700         0.58400
| 81>    H       -5.28700        -0.34400         0.10000
| 82>    H       -3.78000        -3.60100         1.94700
| 83>    H        3.58700        -6.86800        -1.84300
| 84>    H       -2.27600        -4.77400        -0.05000
| 85>    H        3.71400        -3.72400         1.92600
| 86>    H        5.09200        -5.79500         1.87100
| 87>    H        6.20500        -7.32900        -0.43900
| 88>    H        5.39300        -7.91700         1.04200
| 89>    H        4.75900        -8.37300        -0.56400
| 90>    H        0.32900        -5.29000        -0.00800
| 91>    H        2.14600        -4.84200        -1.94000
| 92>    H        5.80800         4.98600        -1.95600
| 93>    H        4.78800        -2.28100        -0.18500
| 94>    H        4.86000         2.11400         1.91200
| 95>    H        6.90100         3.53100         1.77200
| 96>    H        7.38300         6.10900         0.35600
| 97>    H        8.41400         4.65200         0.43500
| 98>    H        7.92100         5.31000        -1.15000
| 99>    H        5.28300         0.33600        -0.17900
|100>    H        3.72000         3.63200        -1.96700
|101> *
|102> 
|103>                          ****END OF INPUT****
================================================================================

                       ****************************
                       * Single Point Calculation *
                       ****************************

---------------------------------
CARTESIAN COORDINATES (ANGSTROEM)
---------------------------------
  C     -4.537000    5.488000   -0.884000
  C      1.474000    4.041000    0.057000
  C     -2.802000    4.093000    0.049000
  C     -2.637000    5.059000    1.054000
  C     -3.421000    6.195000    1.059000
  C     -5.202000    7.609000    0.153000
  C      0.132000    4.307000    0.061000
  C     -0.569000    3.056000    0.047000
  C      1.649000    2.618000    0.023000
  C     -3.780000    4.332000   -0.928000
  N     -4.352000    6.399000    0.098000
  N      0.388000    2.067000    0.025000
  N     -2.010000    0.395000   -0.075000
  N     -0.388000   -2.074000   -0.027000
  N      2.010000   -0.401000    0.065000
  C     -1.960000    2.861000    0.024000
  C     -2.623000    1.615000   -0.018000
  C     -5.573000   -4.329000    1.066000
  C     -4.073000    1.471000    0.056000
  C     -4.106000   -2.756000   -0.026000
  C     -4.995000   -2.757000   -1.111000
  C     -6.132000   -3.542000   -1.076000
  C     -7.651000   -5.113000    0.040000
  C     -4.324000    0.141000    0.037000
  C     -3.025000   -0.520000   -0.048000
  C     -4.422000   -3.566000    1.075000
  N     -6.407000   -4.313000    0.001000
  C     -2.867000   -1.922000   -0.040000
  C     -1.650000   -2.624000   -0.027000
  C      3.568000   -6.142000   -1.040000
  C     -1.476000   -4.049000   -0.034000
  C      2.803000   -4.099000   -0.008000
  C      3.657000   -4.384000    1.069000
  C      4.427000   -5.530000    1.059000
  C      5.245000   -7.588000    0.014000
  C     -0.134000   -4.315000   -0.022000
  C      0.568000   -3.064000   -0.027000
  C      2.775000   -5.012000   -1.074000
  N      4.376000   -6.391000    0.017000
  C      1.959000   -2.869000   -0.009000
  C      2.621000   -1.622000    0.009000
  C      5.543000    4.339000   -1.130000
  C      4.070000   -1.479000   -0.094000
  C      4.104000    2.751000   -0.021000
  C      5.027000    2.729000    1.036000
  C      6.166000    3.509000    0.978000
  C      7.619000    5.153000   -0.115000
  C      4.321000   -0.148000   -0.092000
  C      3.025000    0.514000    0.015000
  C      4.387000    3.582000   -1.115000
  C      2.866000    1.916000    0.013000
  N      6.413000    4.296000   -0.095000
  H     -5.293000    5.719000   -1.624000
  H      2.274000    4.766000    0.081000
  H     -1.905000    4.927000    1.841000
  H     -3.337000    6.963000    1.817000
  H     -6.062000    7.410000    0.797000
  H     -4.614000    8.433000    0.556000
  H     -5.537000    7.848000   -0.856000
  H     -0.332000    5.282000    0.069000
  H     -3.946000    3.631000   -1.738000
  H      0.182000    1.072000    0.005000
  H     -0.183000   -1.080000   -0.021000
  H     -5.864000   -4.962000    1.895000
  H     -4.794000    2.272000    0.139000
  H     -4.800000   -2.160000   -1.994000
  H     -6.841000   -3.582000   -1.893000
  H     -8.428000   -4.536000    0.546000
  H     -7.956000   -5.337000   -0.981000
  H     -7.456000   -6.037000    0.584000
  H     -5.287000   -0.344000    0.100000
  H     -3.780000   -3.601000    1.947000
  H      3.587000   -6.868000   -1.843000
  H     -2.276000   -4.774000   -0.050000
  H      3.714000   -3.724000    1.926000
  H      5.092000   -5.795000    1.871000
  H      6.205000   -7.329000   -0.439000
  H      5.393000   -7.917000    1.042000
  H      4.759000   -8.373000   -0.564000
  H      0.329000   -5.290000   -0.008000
  H      2.146000   -4.842000   -1.940000
  H      5.808000    4.986000   -1.956000
  H      4.788000   -2.281000   -0.185000
  H      4.860000    2.114000    1.912000
  H      6.901000    3.531000    1.772000
  H      7.383000    6.109000    0.356000
  H      8.414000    4.652000    0.435000
  H      7.921000    5.310000   -1.150000
  H      5.283000    0.336000   -0.179000
  H      3.720000    3.632000   -1.967000

----------------------------
CARTESIAN COORDINATES (A.U.)
----------------------------
  NO LB      ZA    FRAG     MASS         X           Y           Z
   0 C     6.0000    0    12.011   -8.573687   10.370817   -1.670518
   1 C     6.0000    0    12.011    2.785456    7.636383    0.107714
   2 C     6.0000    0    12.011   -5.295013    7.734649    0.092597
   3 C     6.0000    0    12.011   -4.983208    9.560125    1.991771
   4 C     6.0000    0    12.011   -6.464753   11.706853    2.001220
   5 C     6.0000    0    12.011   -9.830355   14.378926    0.289128
   6 C     6.0000    0    12.011    0.249444    8.139050    0.115273
   7 C     6.0000    0    12.011   -1.075254    5.775003    0.088817
   8 C     6.0000    0    12.011    3.116158    4.947303    0.043464
   9 C     6.0000    0    12.011   -7.143165    8.186294   -1.753666
  10 N     7.0000    0    14.007   -8.224088   12.092358    0.185193
  11 N     7.0000    0    14.007    0.733214    3.906064    0.047243
  12 N     7.0000    0    14.007   -3.798350    0.746442   -0.141729
  13 N     7.0000    0    14.007   -0.733214   -3.919292   -0.051023
  14 N     7.0000    0    14.007    3.798350   -0.757780    0.122832
  15 C     6.0000    0    12.011   -3.703863    5.406506    0.045353
  16 C     6.0000    0    12.011   -4.956752    3.051908   -0.034015
  17 C     6.0000    0    12.011  -10.531444   -8.180624    2.014448
  18 C     6.0000    0    12.011   -7.696855    2.779787    0.105825
  19 C     6.0000    0    12.011   -7.759216   -5.208085   -0.049133
  20 C     6.0000    0    12.011   -9.439182   -5.209975   -2.099486
  21 C     6.0000    0    12.011  -11.587801   -6.693410   -2.033345
  22 C     6.0000    0    12.011  -14.458295   -9.662170    0.075589
  23 C     6.0000    0    12.011   -8.171176    0.266451    0.069920
  24 C     6.0000    0    12.011   -5.716422   -0.982658   -0.090707
  25 C     6.0000    0    12.011   -8.356369   -6.738763    2.031456
  26 N     7.0000    0    14.007  -12.107475   -8.150389    0.001890
  27 C     6.0000    0    12.011   -5.417845   -3.632054   -0.075589
  28 C     6.0000    0    12.011   -3.118048   -4.958641   -0.051023
  29 C     6.0000    0    12.011    6.742543  -11.606698   -1.965315
  30 C     6.0000    0    12.011   -2.789236   -7.651501   -0.064251
  31 C     6.0000    0    12.011    5.296902   -7.745987   -0.015118
  32 C     6.0000    0    12.011    6.910728   -8.284559    2.020117
  33 C     6.0000    0    12.011    8.365818  -10.450186    2.001220
  34 C     6.0000    0    12.011    9.911614  -14.339242    0.026456
  35 C     6.0000    0    12.011   -0.253223   -8.154168   -0.041574
  36 C     6.0000    0    12.011    1.073364   -5.790121   -0.051023
  37 C     6.0000    0    12.011    5.243990   -9.471307   -2.029566
  38 N     7.0000    0    14.007    8.269442  -12.077240    0.032125
  39 C     6.0000    0    12.011    3.701973   -5.421624   -0.017008
  40 C     6.0000    0    12.011    4.952972   -3.065136    0.017008
  41 C     6.0000    0    12.011   10.474752    8.199522   -2.135391
  42 C     6.0000    0    12.011    7.691185   -2.794905   -0.177634
  43 C     6.0000    0    12.011    7.755436    5.198637   -0.039684
  44 C     6.0000    0    12.011    9.499653    5.157063    1.957756
  45 C     6.0000    0    12.011   11.652051    6.631049    1.848152
  46 C     6.0000    0    12.011   14.397823    9.737759   -0.217319
  47 C     6.0000    0    12.011    8.165507   -0.279679   -0.173855
  48 C     6.0000    0    12.011    5.716422    0.971319    0.028346
  49 C     6.0000    0    12.011    8.290229    6.768999   -2.107045
  50 C     6.0000    0    12.011    5.415955    3.620715    0.024566
  51 N     7.0000    0    14.007   12.118814    8.118263   -0.179524
  52 H     1.0000    0     1.008  -10.002320   10.807344   -3.068915
  53 H     1.0000    0     1.008    4.297237    9.006435    0.153068
  54 H     1.0000    0     1.008   -3.599928    9.310681    3.478986
  55 H     1.0000    0     1.008   -6.306016   13.158163    3.433632
  56 H     1.0000    0     1.008  -11.455520   14.002871    1.506112
  57 H     1.0000    0     1.008   -8.719196   15.936060    1.050688
  58 H     1.0000    0     1.008  -10.463414   14.830571   -1.617606
  59 H     1.0000    0     1.008   -0.627389    9.981533    0.130391
  60 H     1.0000    0     1.008   -7.456859    6.861596   -3.284344
  61 H     1.0000    0     1.008    0.343930    2.025786    0.009449
  62 H     1.0000    0     1.008   -0.345820   -2.040904   -0.039684
  63 H     1.0000    0     1.008  -11.081354   -9.376821    3.581031
  64 H     1.0000    0     1.008   -9.059347    4.293458    0.262672
  65 H     1.0000    0     1.008   -9.070685   -4.081808   -3.768114
  66 H     1.0000    0     1.008  -12.927616   -6.768999   -3.577252
  67 H     1.0000    0     1.008  -15.926612   -8.571798    1.031790
  68 H     1.0000    0     1.008  -15.034661  -10.085468   -1.853821
  69 H     1.0000    0     1.008  -14.089798  -11.408277    1.103600
  70 H     1.0000    0     1.008   -9.990982   -0.650066    0.188973
  71 H     1.0000    0     1.008   -7.143165   -6.804904    3.679297
  72 H     1.0000    0     1.008    6.778448  -12.978639   -3.482765
  73 H     1.0000    0     1.008   -4.301017   -9.021553   -0.094486
  74 H     1.0000    0     1.008    7.018443   -7.037340    3.639613
  75 H     1.0000    0     1.008    9.622485  -10.950963    3.535678
  76 H     1.0000    0     1.008   11.725751  -13.849803   -0.829590
  77 H     1.0000    0     1.008   10.191293  -14.960962    1.969095
  78 H     1.0000    0     1.008    8.993207  -15.822677   -1.065806
  79 H     1.0000    0     1.008    0.621720   -9.996651   -0.015118
  80 H     1.0000    0     1.008    4.055352   -9.150054   -3.666069
  81 H     1.0000    0     1.008   10.975529    9.422175   -3.696304
  82 H     1.0000    0     1.008    9.048009   -4.310465   -0.349599
  83 H     1.0000    0     1.008    9.184069    3.994881    3.613156
  84 H     1.0000    0     1.008   13.041000    6.672623    3.348595
  85 H     1.0000    0     1.008   13.951848   11.544337    0.672743
  86 H     1.0000    0     1.008   15.900156    8.791006    0.822031
  87 H     1.0000    0     1.008   14.968521   10.034446   -2.173185
  88 H     1.0000    0     1.008    9.983423    0.634948   -0.338261
  89 H     1.0000    0     1.008    7.029781    6.863485   -3.717091

--------------------------------
INTERNAL COORDINATES (ANGSTROEM)
--------------------------------
 C      0   0   0     0.000000000000     0.00000000     0.00000000
 C      1   0   0     6.253911655916     0.00000000     0.00000000
 C      1   2   0     2.413863914971    28.02791730     0.00000000
 C      3   1   2     1.403711508822    87.90900851    78.49166701
 C      4   3   1     1.380281493030   120.14634024     0.13252085
 C      5   4   3     2.447895626860   152.53891944     1.62004267
 C      2   1   3     1.368114030335     9.12013216   317.92122113
 C      7   2   3     1.434084376876   108.05010202     0.84668783
 C      2   1   3     1.434123425651   110.07802249    37.75623418
 C      1   2   3     1.382505334529    44.35947711   315.26367119
 N      1   2   3     1.352209303325    85.13030436   100.49051939
 N      9   2   1     1.376127174356   106.58526707   349.78366728
 N     12   9   2     2.925062050624   168.53581413   171.12065651
 N     13  12   9     2.954513327098    91.55032014    11.12112580
 N     14  13  12     2.925371258490    88.43092389   359.84326247
 C      8   7   2     1.404790019896   127.24786865   181.11170171
 C     13  12   9     1.366535034311    81.72106996   188.00453233
 C     14  13  12     5.758810554272    80.56209567   166.76250791
 C     17  13  12     1.459010623676   111.08861209   183.82872609
 C     18  14  13     2.412235892279    27.27532823    36.33507194
 C     20  18  14     1.402692767501    87.95206320   148.94598259
 C     21  20  18     1.382106725257   120.14573887   359.70382047
 C     18  14  13     2.446510985056   144.15733107    82.80075377
 C     19  17  13     1.353610726908   106.29293361   359.75308708
 C     13  12   9     1.366813447402   172.21332906    33.46711076
 C     18  14  13     1.380960173213    15.08449437   309.23336894
 N     22  21  20     1.352773077792   120.73759875     0.27865223
 C     25  13  17     1.410897586645   125.60330303   182.37774668
 C     14  13  12     1.376642291955    80.24689249   177.85461986
 C     14  13  12     5.764089607215   164.51507311   312.20821879
 C     29  14  13     1.435600919476   106.58649366   178.76395472
 C     30  14  13     2.413316804732    27.10625047    82.12560436
 C     32  30  14     1.403734305344    87.90059683   149.76154742
 C     33  32  30     1.380694028378   120.14881443   359.74174632
 C     34  33  32     2.448777858443   152.49203239     2.45173620
 C     31  29  14     1.368160809262   108.16950133     0.70383075
 C     14  13  12     1.376239804685   169.26375223   353.09862627
 C     30  14  13     1.380907310430    14.68948582   353.70041132
 N     34  33  32     1.352658863128   120.85575621     0.19603406
 C     37  14  29     1.404717053360   126.01551127   180.90772073
 C     15  14  13     1.366491126938    81.61824056   183.09049352
 C      2   1   3     4.249062720177   149.56075276   158.33851085
 C     41  15  14     1.459677704153   111.05201287   175.08990246
 C     42   2   1     2.412953791518    41.78584867   210.42778755
 C     44  42   2     1.403446472082    87.95153797   233.97558675
 C     45  44  42     1.381696421071   120.11137308     0.19721020
 C     42   2   1     2.450019795838   135.97209175   120.74263665
 C     43  41  15     1.354461516618   106.26758155     0.30894352
 C     15  14  13     1.367461151185   171.87382904   332.35056460
 C     42   2   1     1.381886391857    32.59078432   259.28306674
 C      9   2   1     1.404988612053   126.98745415   170.78800481
 N     42   2   1     1.352765315936   113.57249190   148.47922584
 H      1   2   3     1.082819006113   145.41122663   232.45324809
 H      2   1   3     1.079907866440   124.05852057   208.75643028
 H      4   3   1     1.082874415618   121.05818881   179.56165645
 H      5   4   3     1.082332666051   122.85071704   179.43980026
 H      6   5   4     1.092674242398   104.43596542   100.07009898
 H      6   5   4     1.089554496113    84.68172702   209.53897849
 H      6   5   4     1.089691240673   133.87377301   322.35102039
 H      7   2  54     1.079807853278   126.66122480     1.30600390
 H     10   1   2     1.084000461255   118.72849116   222.27409242
 H     12   9   2     1.016297692608   125.29023241   180.00180175
 H     14  13  12     1.014936943854    44.97226959   359.42596618
 H     18  14  13     1.082871645210   128.03556573   234.20482432
 H     19  17  13     1.080893611786   126.41830519   178.11313280
 H     21  20  18     1.083569563987   121.05669627   180.67006309
 H     22  21  20     1.082483256222   122.73097286   180.59748951
 H     23  18  14     1.092105306278   103.92715769   234.93429879
 H     23  18  14     1.088871893291   134.19244188    12.25587044
 H     23  18  14     1.089833473518    84.85857450   125.45241208
 H     24  19  17     1.080075460327   127.28078426   178.44613241
 H     26  18  14     1.083408048706   118.76995697   244.94906660
 H     30  14  13     1.082703098730   127.99711412   279.66882698
 H     31  29  14     1.079759695488   125.22293469   180.92530585
 H     33  32  30     1.083188810873   121.01964473   180.74284758
 H     34  33  32     1.082494341787   122.70821597   180.59516895
 H     35  34  33     1.092652735319   105.73575241    97.19771933
 H     35  34  33     1.089462711615    84.05943581   206.43036958
 H     35  34  33     1.089268102902   133.08365142   318.50306270
 H     36  31  29     1.079439669458   126.61599965   178.98859863
 H     38  30  73     1.083742127999   118.77264435   359.90091293
 H     42   2   1     1.082178358682   119.31790784     5.11075629
 H     43  41  15     1.080281907652   126.36969097   182.06329380
 H     45  44  42     1.083277434455   121.10105945   179.58025624
 H     46  45  44     1.082194529648   122.72144639   179.46906377
 H     47  42   2     1.091546151109   106.65128841   315.16475048
 H     47  42   2     1.088818625851   132.46019523    94.52397119
 H     47  42   2     1.089531091801    83.63838232   206.04504406
 H     48  43  41     1.080402239909   127.23657387   181.62955349
 H     50  42   2     1.083186502870   118.77001737    94.71359229

---------------------------
INTERNAL COORDINATES (A.U.)
---------------------------
 C      0   0   0     0.000000000000     0.00000000     0.00000000
 C      1   0   0    11.818180295419     0.00000000     0.00000000
 C      1   2   0     4.561541723851    28.02791730     0.00000000
 C      3   1   2     2.652630322707    87.90900851    78.49166701
 C      4   3   1     2.608354009546   120.14634024     0.13252085
 C      5   4   3     4.625852339189   152.53891944     1.62004267
 C      2   1   3     2.585360837309     9.12013216   317.92122113
 C      7   2   3     2.710026725231   108.05010202     0.84668783
 C      2   1   3     2.710100516721   110.07802249    37.75623418
 C      1   2   3     2.612556460944    44.35947711   315.26367119
 N      1   2   3     2.555305259026    85.13030436   100.49051939
 N      9   2   1     2.600503484979   106.58526707   349.78366728
 N     12   9   2     5.527566200405   168.53581413   171.12065651
 N     13  12   9     5.583221047236    91.55032014    11.12112580
 N     14  13  12     5.528150518591    88.43092389   359.84326247
 C      8   7   2     2.654668413270   127.24786865   181.11170171
 C     13  12   9     2.582376967257    81.72106996   188.00453233
 C     14  13  12    10.882574804710    80.56209567   166.76250791
 C     17  13  12     2.757130505230   111.08861209   183.82872609
 C     18  14  13     4.558465206823    27.27532823    36.33507194
 C     20  18  14     2.650705180609    87.95206320   148.94598259
 C     21  20  18     2.611803198586   120.14573887   359.70382047
 C     18  14  13     4.623235745386   144.15733107    82.80075377
 C     19  17  13     2.557953565794   106.29293361   359.75308708
 C     13  12   9     2.582903091751   172.21332906    33.46711076
 C     18  14  13     2.609636529225    15.08449437   309.23336894
 N     22  21  20     2.556370638369   120.73759875     0.27865223
 C     25  13  17     2.666210041769   125.60330303   182.37774668
 C     14  13  12     2.601476916169    80.24689249   177.85461986
 C     14  13  12    10.892550769017   164.51507311   312.20821879
 C     29  14  13     2.712892575415   106.58649366   178.76395472
 C     30  14  13     4.560507835333    27.10625047    82.12560436
 C     32  30  14     2.652673401891    87.90059683   149.76154742
 C     33  32  30     2.609133588376   120.14881443   359.74174632
 C     34  33  32     4.627519515267   152.49203239     2.45173620
 C     31  29  14     2.585449236669   108.16950133     0.70383075
 C     14  13  12     2.600716325456   169.26375223   353.09862627
 C     30  14  13     2.609536633043    14.68948582   353.70041132
 N     34  33  32     2.556154803934   120.85575621     0.19603406
 C     37  14  29     2.654530526499   126.01551127   180.90772073
 C     15  14  13     2.582293994346    81.61824056   183.09049352
 C      2   1   3     8.029564866989   149.56075276   158.33851085
 C     41  15  14     2.758391104639   111.05201287   175.08990246
 C     42   2   1     4.559821839776    41.78584867   210.42778755
 C     44  42   2     2.652129475853    87.95153797   233.97558675
 C     45  44  42     2.611027836043   120.11137308     0.19721020
 C     42   2   1     4.629866436820   135.97209175   120.74263665
 C     43  41  15     2.559561325344   106.26758155     0.30894352
 C     15  14  13     2.584127074516   171.87382904   332.35056460
 C     42   2   1     2.611386828803    32.59078432   259.28306674
 C      9   2   1     2.655043698059   126.98745415   170.78800481
 N     42   2   1     2.556355970587   113.57249190   148.47922584
 H      1   2   3     2.046231374159   145.41122663   232.45324809
 H      2   1   3     2.040730117440   124.05852057   208.75643028
 H      4   3   1     2.046336082948   121.05818881   179.56165645
 H      5   4   3     2.045312324632   122.85071704   179.43980026
 H      6   5   4     2.064855071722   104.43596542   100.07009898
 H      6   5   4     2.058959605636    84.68172702   209.53897849
 H      6   5   4     2.059218015405   133.87377301   322.35102039
 H      7   2  54     2.040541119952   126.66122480     1.30600390
 H     10   1   2     2.048464000815   118.72849116   222.27409242
 H     12   9   2     1.920524309565   125.29023241   180.00180175
 H     14  13  12     1.917952867083    44.97226959   359.42596618
 H     18  14  13     2.046330847636   128.03556573   234.20482432
 H     19  17  13     2.042592906181   126.41830519   178.11313280
 H     21  20  18     2.047649722989   121.05669627   180.67006309
 H     22  21  20     2.045596898814   122.73097286   180.59748951
 H     23  18  14     2.063779938267   103.92715769   234.93429879
 H     23  18  14     2.057669673245   134.19244188    12.25587044
 H     23  18  14     2.059486796529    84.85857450   125.45241208
 H     24  19  17     2.041046823986   127.28078426   178.44613241
 H     26  18  14     2.047344503340   118.76995697   244.94906660
 H     30  14  13     2.046012340948   127.99711412   279.66882698
 H     31  29  14     2.040450114918   125.22293469   180.92530585
 H     33  32  30     2.046930203877   121.01964473   180.74284758
 H     34  33  32     2.045617847496   122.70821597   180.59516895
 H     35  34  33     2.064814429233   105.73575241    97.19771933
 H     35  34  33     2.058786158072    84.05943581   206.43036958
 H     35  34  33     2.058418400901   133.08365142   318.50306270
 H     36  31  29     2.039845353366   126.61599965   178.98859863
 H     38  30  73     2.047975821711   118.77264435   359.90091293
 H     42   2   1     2.045020725966   119.31790784     5.11075629
 H     43  41  15     2.041436952892   126.36969097   182.06329380
 H     45  44  42     2.047097678177   121.10105945   179.58025624
 H     46  45  44     2.045051284662   122.72144639   179.46906377
 H     47  42   2     2.062723288131   106.65128841   315.16475048
 H     47  42   2     2.057569012371   132.46019523    94.52397119
 H     47  42   2     2.058915377895    83.63838232   206.04504406
 H     48  43  41     2.041664347903   127.23657387   181.62955349
 H     50  42   2     2.046925842384   118.77001737    94.71359229

---------------------
BASIS SET INFORMATION
---------------------
There are 3 groups of distinct atoms

 Group   1 Type C   : 17s4p1d contracted to 3s2p1d pattern {881/31/1}
 Group   2 Type N   : 17s4p1d contracted to 3s2p1d pattern {881/31/1}
 Group   3 Type H   : 4s1p contracted to 2s1p pattern {31/1}

Atom   0C    basis set group =>   1
Atom   1N    basis set group =>   2
Atom   2C    basis set group =>   1
Atom   3N    basis set group =>   2
Atom   4C    basis set group =>   1
Atom   5N    basis set group =>   2
Atom   6C    basis set group =>   1
Atom   7N    basis set group =>   2
Atom   8C    basis set group =>   1
Atom   9N    basis set group =>   2
Atom  10C    basis set group =>   1
Atom  11N    basis set group =>   2
Atom  12C    basis set group =>   1
Atom  13N    basis set group =>   2
Atom  14C    basis set group =>   1
Atom  15N    basis set group =>   2
Atom  16C    basis set group =>   1
Atom  17C    basis set group =>   1
Atom  18C    basis set group =>   1
Atom  19C    basis set group =>   1
Atom  20C    basis set group =>   1
Atom  21C    basis set group =>   1
Atom  22C    basis set group =>   1
Atom  23C    basis set group =>   1
Atom  24C    basis set group =>   1
Atom  25C    basis set group =>   1
Atom  26C    basis set group =>   1
Atom  27C    basis set group =>   1
Atom  28C    basis set group =>   1
Atom  29C    basis set group =>   1
Atom  30C    basis set group =>   1
Atom  31C    basis set group =>   1
Atom  32C    basis set group =>   1
Atom  33C    basis set group =>   1
Atom  34C    basis set group =>   1
Atom  35C    basis set group =>   1
Atom  36C    basis set group =>   1
Atom  37C    basis set group =>   1
Atom  38C    basis set group =>   1
Atom  39C    basis set group =>   1
Atom  40C    basis set group =>   1
Atom  41C    basis set group =>   1
Atom  42C    basis set group =>   1
Atom  43C    basis set group =>   1
Atom  44C    basis set group =>   1
Atom  45C    basis set group =>   1
Atom  46C    basis set group =>   1
Atom  47C    basis set group =>   1
Atom  48C    basis set group =>   1
Atom  49C    basis set group =>   1
Atom  50C    basis set group =>   1
Atom  51C    basis set group =>   1
Atom  52H    basis set group =>   3
Atom  53H    basis set group =>   3
Atom  54H    basis set group =>   3
Atom  55H    basis set group =>   3
Atom  56H    basis set group =>   3
Atom  57H    basis set group =>   3
Atom  58H    basis set group =>   3
Atom  59H    basis set group =>   3
Atom  60H    basis set group =>   3
Atom  61H    basis set group =>   3
Atom  62H    basis set group =>   3
Atom  63H    basis set group =>   3
Atom  64H    basis set group =>   3
Atom  65H    basis set group =>   3
Atom  66H    basis set group =>   3
Atom  67H    basis set group =>   3
Atom  68H    basis set group =>   3
Atom  69H    basis set group =>   3
Atom  70H    basis set group =>   3
Atom  71H    basis set group =>   3
Atom  72H    basis set group =>   3
Atom  73H    basis set group =>   3
Atom  74H    basis set group =>   3
Atom  75H    basis set group =>   3
Atom  76H    basis set group =>   3
Atom  77H    basis set group =>   3
Atom  78H    basis set group =>   3
Atom  79H    basis set group =>   3
Atom  80H    basis set group =>   3
Atom  81H    basis set group =>   3
Atom  82H    basis set group =>   3
Atom  83H    basis set group =>   3
Atom  84H    basis set group =>   3
Atom  85H    basis set group =>   3
Atom  86H    basis set group =>   3
Atom  87H    basis set group =>   3
Atom  88H    basis set group =>   3
Atom  89H    basis set group =>   3


           ************************************************************
           *        Program running with 16 parallel MPI-processes    *
           *              working on a common directory               *
           ************************************************************
------------------------------------------------------------------------------
                           ORCA GTO INTEGRAL CALCULATION
------------------------------------------------------------------------------
------------------------------------------------------------------------------
                   ___                                                        
                  /   \      - P O W E R E D   B Y -                         
                 /     \                                                     
                 |  |  |   _    _      __       _____    __    __             
                 |  |  |  | |  | |    /  \     |  _  \  |  |  /  |          
                  \  \/   | |  | |   /    \    | | | |  |  | /  /          
                 / \  \   | |__| |  /  /\  \   | |_| |  |  |/  /          
                |  |  |   |  __  | /  /__\  \  |    /   |      \           
                |  |  |   | |  | | |   __   |  |    \   |  |\   \          
                \     /   | |  | | |  |  |  |  | |\  \  |  | \   \       
                 \___/    |_|  |_| |__|  |__|  |_| \__\ |__|  \__/        
                                                                              
                      - O R C A' S   B I G   F R I E N D -                    
                                      &                                       
                       - I N T E G R A L  F E E D E R -                       
                                                                              
 v1 FN, 2020, v2 2021                                                         
------------------------------------------------------------------------------


Reading SHARK input file /scratch/allen/tmpyp4_amber_gaff2/conf1/conf1/Conf126.orca.SHARKINP.tmp ... ok
----------------------
SHARK INTEGRAL PACKAGE
----------------------

Number of atoms                             ...     90
Number of basis functions                   ...   1230
Number of shells                            ...    738
Maximum angular momentum                    ...      2
Integral batch strategy                     ... SHARK/LIBINT Hybrid
RI-J (if used) integral strategy            ... SPLIT-RIJ (Revised 2003 algorithm where possible)
Printlevel                                  ...      1
Contraction scheme used                     ... PARTIAL GENERAL contraction
Coulomb Range Separation                    ... NOT USED
Exchange Range Separation                   ... NOT USED
Finite Nucleus Model                        ... NOT USED
Auxiliary Coulomb fitting basis             ... NOT available
Auxiliary J/K fitting basis                 ... NOT available
Auxiliary Correlation fitting basis         ... NOT available
Auxiliary 'external' fitting basis          ... NOT available
Integral threshold                          ...     2.500000e-11
Primitive cut-off                           ...     2.500000e-12
Primitive pair pre-selection threshold      ...     2.500000e-12

Calculating pre-screening integrals         ... done (  0.1 sec) Dimension = 738
Calculating pre-screening integrals (ORCA)  ... done (  0.3 sec) Dimension = 426
Organizing shell pair data                  ... done (  0.5 sec)
Shell pair information
Total number of shell pairs                 ...    272691
Shell pairs after pre-screening             ...     71597
Total number of primitive shell pairs       ...    422091
Primitive shell pairs kept                  ...     92353
          la=0 lb=0:  29410 shell pairs
          la=1 lb=0:  25963 shell pairs
          la=1 lb=1:   4701 shell pairs
          la=2 lb=0:   7868 shell pairs
          la=2 lb=1:   3124 shell pairs
          la=2 lb=2:    531 shell pairs

Calculating one electron integrals          ... done (  0.2 sec)
Calculating Nuclear repulsion               ... done (  0.0 sec) ENN=   6225.576108524835 Eh

SHARK setup successfully completed in   1.7 seconds

Maximum memory used throughout the entire GTOINT-calculation: 98.9 MB


           ************************************************************
           *        Program running with 16 parallel MPI-processes    *
           *              working on a common directory               *
           ************************************************************
-------------------------------------------------------------------------------
                                 ORCA SCF
-------------------------------------------------------------------------------

------------
SCF SETTINGS
------------
Hamiltonian:
 Ab initio Hamiltonian  Method          .... Hartree-Fock(GTOs)


General Settings:
 Integral files         IntName         .... /scratch/allen/tmpyp4_amber_gaff2/conf1/conf1/Conf126.orca
 Hartree-Fock type      HFTyp           .... RHF
 Total Charge           Charge          ....    0
 Multiplicity           Mult            ....    1
 Number of Electrons    NEL             ....  358
 Basis Dimension        Dim             ....  918
 Nuclear Repulsion      ENuc            ....   6225.5761085248 Eh

Convergence Acceleration:
 DIIS                   CNVDIIS         .... on
   Start iteration      DIISMaxIt       ....    12
   Startup error        DIISStart       ....  0.200000
   # of expansion vecs  DIISMaxEq       ....     5
   Bias factor          DIISBfac        ....   1.050
   Max. coefficient     DIISMaxC        ....  10.000
 Trust-Rad. Augm. Hess. CNVTRAH         .... auto
   Auto Start mean grad. ratio tolernc. ....  1.125000
   Auto Start start iteration           ....    20
   Auto Start num. interpolation iter.  ....    10
   Max. Number of Micro iterations      ....    16
   Max. Number of Macro iterations      .... Maxiter - #DIIS iter
   Number of Davidson start vectors     ....     2
   Converg. threshold I  (grad. norm)   ....   1.000e-05
   Converg. threshold II (energy diff.) ....   1.000e-08
   Grad. Scal. Fac. for Micro threshold ....   0.100
   Minimum threshold for Micro iter.    ....   0.010
   NR start threshold (gradient norm)   ....   0.001
   Initial trust radius                 ....   0.400
   Minimum AH scaling param. (alpha)    ....   1.000
   Maximum AH scaling param. (alpha)    .... 1000.000
   Orbital update algorithm             .... Taylor
   White noise on init. David. guess    .... on
   Maximum white noise                  ....   0.010
   Quad. conv. algorithm                .... NR
 SOSCF                  CNVSOSCF        .... on
   Start iteration      SOSCFMaxIt      ....   150
   Startup grad/error   SOSCFStart      ....  0.003300
 Level Shifting         CNVShift        .... on
   Level shift para.    LevelShift      ....    0.2500
   Turn off err/grad.   ShiftErr        ....    0.0010
 Zerner damping         CNVZerner       .... off
 Static damping         CNVDamp         .... on
   Fraction old density DampFac         ....    0.7000
   Max. Damping (<1)    DampMax         ....    0.9800
   Min. Damping (>=0)   DampMin         ....    0.0000
   Turn off err/grad.   DampErr         ....    0.1000
 Fernandez-Rico         CNVRico         .... off

SCF Procedure:
 Maximum # iterations   MaxIter         ....   125
 SCF integral mode      SCFMode         .... Direct
   Integral package                     .... SHARK and LIBINT hybrid scheme
 Reset frequency        DirectResetFreq ....    20
 Integral Threshold     Thresh          ....  2.500e-11 Eh
 Primitive CutOff       TCut            ....  2.500e-12 Eh

Convergence Tolerance:
 Convergence Check Mode ConvCheckMode   .... Total+1el-Energy
 Convergence forced     ConvForced      .... 1
 Energy Change          TolE            ....  1.000e-08 Eh
 1-El. energy change                    ....  1.000e-05 Eh
 Orbital Gradient       TolG            ....  1.000e-05
 Orbital Rotation angle TolX            ....  1.000e-05
 DIIS Error             TolErr          ....  5.000e-07


Diagonalization of the overlap matrix:
Smallest eigenvalue                        ... 2.252e-04
Time for diagonalization                   ...    0.403 sec
Threshold for overlap eigenvalues          ... 1.000e-08
Number of eigenvalues below threshold      ... 0
Time for construction of square roots      ...    0.192 sec
Total time needed                          ...    0.601 sec

Time for model grid setup =    1.002 sec

------------------------------
INITIAL GUESS: MODEL POTENTIAL
------------------------------
Loading Hartree-Fock densities                     ... done
Calculating cut-offs                               ... done
Initializing the effective Hamiltonian             ... done
Setting up the integral package (SHARK)            ... done
Starting the Coulomb interaction                   ... done (   1.1 sec)
Reading the grid                                   ... done
Mapping shells                                     ... done
Starting the XC term evaluation                    ... done (   0.2 sec)
Transforming the Hamiltonian                       ... done (   0.2 sec)
Diagonalizing the Hamiltonian                      ... done (   0.3 sec)
Back transforming the eigenvectors                 ... done (   0.1 sec)
Now organizing SCF variables                       ... done
                      ------------------
                      INITIAL GUESS DONE (   2.9 sec)
                      ------------------
--------------
SCF ITERATIONS
--------------
ITER       Energy         Delta-E        Max-DP      RMS-DP      [F,P]     Damp
               ***  Starting incremental Fock matrix formation  ***
  0  -2121.6805168903   0.000000000000 0.06894251  0.00120798  0.2328606 0.7000
  1  -2122.3443641020  -0.663847211688 0.05230255  0.00098008  0.1441024 0.7000
                               ***Turning on DIIS***
  2  -2122.7565781281  -0.412214026095 0.11590406  0.00222082  0.0802480 0.0000
  3  -2117.7635398545   4.993038273606 0.03019809  0.00067886  0.0442198 0.0000
  4  -2123.4205137077  -5.656973853223 0.00874755  0.00022749  0.0071117 0.0000
  5  -2123.5970106508  -0.176496943093 0.00508356  0.00013438  0.0049427 0.0000
  6  -2123.5793592049   0.017651445867 0.00336639  0.00008713  0.0019252 0.0000
  7  -2123.6830077265  -0.103648521541 0.00284259  0.00006877  0.0015043 0.0000
  8  -2123.7002004860  -0.017192759527 0.00289506  0.00006463  0.0013982 0.0000
  9  -2123.6651576147   0.035042871246 0.00233949  0.00004424  0.0011015 0.0000
 10  -2123.6784908057  -0.013333190935 0.00485008  0.00008720  0.0008388 0.0000
                      *** Initiating the SOSCF procedure ***
                           *** Shutting down DIIS ***
                      *** Re-Reading the Fockian *** 
                      *** Removing any level shift *** 
ITER      Energy       Delta-E        Grad      Rot      Max-DP    RMS-DP
 11  -2123.56343874   0.1150520651  0.000296  0.000296  0.000290  0.000007
               *** Restarting incremental Fock matrix formation ***
 12  -2123.62760274  -0.0641639963  0.000888  0.006001  0.001080  0.000027
 13  -2123.62766735  -0.0000646107  0.000949  0.024634  0.004806  0.000091
 14  -2123.62774994  -0.0000825947  0.000452  0.002171  0.000507  0.000011
 15  -2123.62776189  -0.0000119442  0.000162  0.002402  0.000626  0.000011
 16  -2123.62776718  -0.0000052931  0.000102  0.003744  0.000743  0.000014
 17  -2123.62777083  -0.0000036517  0.000142  0.003299  0.000510  0.000010
 18  -2123.62777252  -0.0000016920  0.000060  0.001589  0.000222  0.000006
 19  -2123.62777353  -0.0000010039  0.000060  0.000737  0.000160  0.000003
 20  -2123.62777388  -0.0000003529  0.000028  0.000516  0.000125  0.000002
 21  -2123.62777398  -0.0000001046  0.000023  0.000195  0.000047  0.000001
 22  -2123.62777406  -0.0000000789  0.000016  0.000386  0.000077  0.000001
 23  -2123.62777412  -0.0000000564  0.000011  0.000201  0.000054  0.000001
 24  -2123.62777414  -0.0000000192  0.000004  0.000103  0.000026  0.000000
 25  -2123.62777414  -0.0000000040  0.000003  0.000028  0.000015  0.000000
                  ***Gradient check signals convergence***
              ***Rediagonalizing the Fockian in SOSCF/NRSCF***

               *****************************************************
               *                     SUCCESS                       *
               *           SCF CONVERGED AFTER  26 CYCLES          *
               *****************************************************


----------------
TOTAL SCF ENERGY
----------------

Total Energy       :        -2123.62777415 Eh          -57786.84956 eV

Components:
Nuclear Repulsion  :         6225.57610852 Eh          169406.53837 eV
Electronic Energy  :        -8349.20388267 Eh         -227193.38794 eV
One Electron Energy:       -15292.26770133 Eh         -416123.75948 eV
Two Electron Energy:         6943.06381866 Eh          188930.37154 eV

Virial components:
Potential Energy   :        -4245.63030587 Eh         -115529.47403 eV
Kinetic Energy     :         2122.00253172 Eh           57742.62447 eV
Virial Ratio       :            2.00076590


---------------
SCF CONVERGENCE
---------------

  Last Energy change         ...   -5.7389e-09  Tolerance :   1.0000e-08
  Last MAX-Density change    ...    7.8777e-06  Tolerance :   1.0000e-07
  Last RMS-Density change    ...    1.0559e-07  Tolerance :   5.0000e-09
  Last Orbital Gradient      ...    1.8450e-06  Tolerance :   1.0000e-05
  Last Orbital Rotation      ...    2.0014e-05  Tolerance :   1.0000e-05

             **** THE GBW FILE WAS UPDATED (/scratch/allen/tmpyp4_amber_gaff2/conf1/conf1/Conf126.orca.gbw) ****
             **** DENSITY /scratch/allen/tmpyp4_amber_gaff2/conf1/conf1/Conf126.orca.scfp WAS UPDATED ****
             **** ENERGY FILE WAS UPDATED (/scratch/allen/tmpyp4_amber_gaff2/conf1/conf1/Conf126.orca.en.tmp) ****
             **** THE GBW FILE WAS UPDATED (/scratch/allen/tmpyp4_amber_gaff2/conf1/conf1/Conf126.orca.gbw) ****
             **** DENSITY /scratch/allen/tmpyp4_amber_gaff2/conf1/conf1/Conf126.orca.scfp WAS UPDATED ****
----------------
ORBITAL ENERGIES
----------------

  NO   OCC          E(Eh)            E(eV) 
   0   2.0000     -15.646966      -425.7756 
   1   2.0000     -15.639700      -425.5779 
   2   2.0000     -15.628467      -425.2722 
   3   2.0000     -15.615386      -424.9163 
   4   2.0000     -15.520461      -422.3332 
   5   2.0000     -15.515546      -422.1995 
   6   2.0000     -15.445646      -420.2974 
   7   2.0000     -15.443938      -420.2509 
   8   2.0000     -11.307561      -307.6944 
   9   2.0000     -11.302795      -307.5647 
  10   2.0000     -11.302548      -307.5580 
  11   2.0000     -11.299919      -307.4864 
  12   2.0000     -11.295912      -307.3774 
  13   2.0000     -11.295670      -307.3708 
  14   2.0000     -11.293660      -307.3161 
  15   2.0000     -11.288521      -307.1763 
  16   2.0000     -11.286185      -307.1127 
  17   2.0000     -11.284898      -307.0777 
  18   2.0000     -11.276177      -306.8404 
  19   2.0000     -11.275507      -306.8221 
  20   2.0000     -11.250995      -306.1551 
  21   2.0000     -11.243089      -305.9400 
  22   2.0000     -11.240011      -305.8562 
  23   2.0000     -11.239125      -305.8321 
  24   2.0000     -11.234934      -305.7181 
  25   2.0000     -11.234318      -305.7013 
  26   2.0000     -11.232904      -305.6629 
  27   2.0000     -11.226576      -305.4907 
  28   2.0000     -11.226429      -305.4867 
  29   2.0000     -11.222888      -305.3903 
  30   2.0000     -11.217253      -305.2370 
  31   2.0000     -11.216731      -305.2228 
  32   2.0000     -11.203039      -304.8502 
  33   2.0000     -11.202335      -304.8310 
  34   2.0000     -11.192868      -304.5734 
  35   2.0000     -11.192407      -304.5609 
  36   2.0000     -11.175884      -304.1113 
  37   2.0000     -11.173939      -304.0583 
  38   2.0000     -11.173846      -304.0558 
  39   2.0000     -11.173061      -304.0345 
  40   2.0000     -11.168472      -303.9096 
  41   2.0000     -11.167904      -303.8941 
  42   2.0000     -11.166814      -303.8645 
  43   2.0000     -11.164635      -303.8052 
  44   2.0000     -11.163029      -303.7615 
  45   2.0000     -11.161558      -303.7214 
  46   2.0000     -11.151369      -303.4442 
  47   2.0000     -11.149149      -303.3838 
  48   2.0000     -11.146169      -303.3027 
  49   2.0000     -11.143555      -303.2315 
  50   2.0000     -11.140370      -303.1449 
  51   2.0000     -11.137062      -303.0549 
  52   2.0000      -1.332366       -36.2555 
  53   2.0000      -1.326082       -36.0845 
  54   2.0000      -1.316427       -35.8218 
  55   2.0000      -1.306008       -35.5383 
  56   2.0000      -1.219689       -33.1894 
  57   2.0000      -1.211891       -32.9772 
  58   2.0000      -1.162661       -31.6376 
  59   2.0000      -1.156797       -31.4780 
  60   2.0000      -1.119954       -30.4755 
  61   2.0000      -1.113937       -30.3118 
  62   2.0000      -1.105638       -30.0859 
  63   2.0000      -1.097251       -29.8577 
  64   2.0000      -1.055974       -28.7345 
  65   2.0000      -1.049908       -28.5695 
  66   2.0000      -1.041047       -28.3283 
  67   2.0000      -1.031753       -28.0754 
  68   2.0000      -1.028060       -27.9749 
  69   2.0000      -1.011118       -27.5139 
  70   2.0000      -1.009293       -27.4643 
  71   2.0000      -0.996403       -27.1135 
  72   2.0000      -0.984060       -26.7776 
  73   2.0000      -0.974817       -26.5261 
  74   2.0000      -0.970908       -26.4198 
  75   2.0000      -0.959147       -26.0997 
  76   2.0000      -0.952261       -25.9123 
  77   2.0000      -0.944050       -25.6889 
  78   2.0000      -0.939490       -25.5648 
  79   2.0000      -0.923101       -25.1189 
  80   2.0000      -0.894022       -24.3276 
  81   2.0000      -0.881931       -23.9986 
  82   2.0000      -0.876533       -23.8517 
  83   2.0000      -0.868558       -23.6347 
  84   2.0000      -0.862436       -23.4681 
  85   2.0000      -0.856608       -23.3095 
  86   2.0000      -0.848540       -23.0900 
  87   2.0000      -0.842650       -22.9297 
  88   2.0000      -0.821696       -22.3595 
  89   2.0000      -0.798646       -21.7322 
  90   2.0000      -0.797319       -21.6962 
  91   2.0000      -0.739943       -20.1349 
  92   2.0000      -0.731615       -19.9083 
  93   2.0000      -0.729788       -19.8586 
  94   2.0000      -0.721541       -19.6341 
  95   2.0000      -0.719646       -19.5826 
  96   2.0000      -0.712356       -19.3842 
  97   2.0000      -0.707608       -19.2550 
  98   2.0000      -0.699223       -19.0268 
  99   2.0000      -0.693759       -18.8781 
 100   2.0000      -0.686569       -18.6825 
 101   2.0000      -0.681013       -18.5313 
 102   2.0000      -0.679305       -18.4848 
 103   2.0000      -0.673116       -18.3164 
 104   2.0000      -0.668951       -18.2031 
 105   2.0000      -0.665302       -18.1038 
 106   2.0000      -0.662961       -18.0401 
 107   2.0000      -0.660873       -17.9833 
 108   2.0000      -0.657714       -17.8973 
 109   2.0000      -0.657120       -17.8811 
 110   2.0000      -0.651969       -17.7410 
 111   2.0000      -0.649760       -17.6809 
 112   2.0000      -0.645997       -17.5785 
 113   2.0000      -0.641225       -17.4486 
 114   2.0000      -0.634928       -17.2773 
 115   2.0000      -0.622831       -16.9481 
 116   2.0000      -0.622107       -16.9284 
 117   2.0000      -0.616649       -16.7799 
 118   2.0000      -0.611106       -16.6290 
 119   2.0000      -0.609632       -16.5889 
 120   2.0000      -0.608200       -16.5500 
 121   2.0000      -0.603605       -16.4249 
 122   2.0000      -0.599270       -16.3070 
 123   2.0000      -0.592509       -16.1230 
 124   2.0000      -0.590290       -16.0626 
 125   2.0000      -0.585306       -15.9270 
 126   2.0000      -0.578194       -15.7335 
 127   2.0000      -0.573440       -15.6041 
 128   2.0000      -0.569811       -15.5054 
 129   2.0000      -0.560026       -15.2391 
 130   2.0000      -0.553834       -15.0706 
 131   2.0000      -0.545826       -14.8527 
 132   2.0000      -0.541785       -14.7427 
 133   2.0000      -0.535902       -14.5826 
 134   2.0000      -0.533842       -14.5266 
 135   2.0000      -0.529032       -14.3957 
 136   2.0000      -0.524937       -14.2843 
 137   2.0000      -0.522437       -14.2162 
 138   2.0000      -0.519825       -14.1452 
 139   2.0000      -0.517197       -14.0736 
 140   2.0000      -0.509387       -13.8611 
 141   2.0000      -0.506007       -13.7691 
 142   2.0000      -0.505066       -13.7435 
 143   2.0000      -0.501728       -13.6527 
 144   2.0000      -0.499972       -13.6049 
 145   2.0000      -0.498488       -13.5646 
 146   2.0000      -0.495417       -13.4810 
 147   2.0000      -0.492332       -13.3970 
 148   2.0000      -0.490125       -13.3370 
 149   2.0000      -0.469190       -12.7673 
 150   2.0000      -0.460957       -12.5433 
 151   2.0000      -0.452109       -12.3025 
 152   2.0000      -0.448483       -12.2038 
 153   2.0000      -0.446212       -12.1420 
 154   2.0000      -0.445611       -12.1257 
 155   2.0000      -0.439091       -11.9483 
 156   2.0000      -0.435426       -11.8485 
 157   2.0000      -0.431479       -11.7412 
 158   2.0000      -0.392764       -10.6877 
 159   2.0000      -0.382696       -10.4137 
 160   2.0000      -0.379719       -10.3327 
 161   2.0000      -0.372196       -10.1280 
 162   2.0000      -0.365460        -9.9447 
 163   2.0000      -0.360208        -9.8018 
 164   2.0000      -0.352791        -9.5999 
 165   2.0000      -0.344401        -9.3716 
 166   2.0000      -0.337206        -9.1758 
 167   2.0000      -0.333178        -9.0662 
 168   2.0000      -0.329394        -8.9633 
 169   2.0000      -0.300147        -8.1674 
 170   2.0000      -0.297523        -8.0960 
 171   2.0000      -0.288269        -7.8442 
 172   2.0000      -0.286934        -7.8079 
 173   2.0000      -0.255587        -6.9549 
 174   2.0000      -0.247832        -6.7438 
 175   2.0000      -0.188399        -5.1266 
 176   2.0000      -0.178330        -4.8526 
 177   2.0000      -0.067613        -1.8398 
 178   2.0000      -0.055290        -1.5045 
 179   0.0000       0.030454         0.8287 
 180   0.0000       0.070218         1.9107 
 181   0.0000       0.093029         2.5315 
 182   0.0000       0.098881         2.6907 
 183   0.0000       0.128673         3.5014 
 184   0.0000       0.133662         3.6371 
 185   0.0000       0.141914         3.8617 
 186   0.0000       0.150760         4.1024 
 187   0.0000       0.158128         4.3029 
 188   0.0000       0.161636         4.3983 
 189   0.0000       0.162331         4.4173 
 190   0.0000       0.167920         4.5693 
 191   0.0000       0.174047         4.7360 
 192   0.0000       0.197887         5.3848 
 193   0.0000       0.201271         5.4769 
 194   0.0000       0.201802         5.4913 
 195   0.0000       0.205513         5.5923 
 196   0.0000       0.208047         5.6612 
 197   0.0000       0.211112         5.7446 
 198   0.0000       0.213802         5.8178 
 199   0.0000       0.218198         5.9375 
 200   0.0000       0.232527         6.3274 
 201   0.0000       0.237044         6.4503 
 202   0.0000       0.242061         6.5868 
 203   0.0000       0.248023         6.7490 
 204   0.0000       0.250264         6.8100 
 205   0.0000       0.254045         6.9129 
 206   0.0000       0.256790         6.9876 
 207   0.0000       0.259747         7.0681 
 208   0.0000       0.263619         7.1734 
 209   0.0000       0.264028         7.1846 
 210   0.0000       0.267712         7.2848 
 211   0.0000       0.268921         7.3177 
 212   0.0000       0.271870         7.3979 
 213   0.0000       0.275278         7.4907 
 214   0.0000       0.278377         7.5750 
 215   0.0000       0.280355         7.6288 
 216   0.0000       0.280713         7.6386 
 217   0.0000       0.282188         7.6787 
 218   0.0000       0.286651         7.8002 
 219   0.0000       0.288311         7.8453 
 220   0.0000       0.290213         7.8971 
 221   0.0000       0.291693         7.9374 
 222   0.0000       0.293320         7.9817 
 223   0.0000       0.295335         8.0365 
 224   0.0000       0.299169         8.1408 
 225   0.0000       0.301632         8.2078 
 226   0.0000       0.304120         8.2755 
 227   0.0000       0.306618         8.3435 
 228   0.0000       0.307317         8.3625 
 229   0.0000       0.308627         8.3982 
 230   0.0000       0.315010         8.5719 
 231   0.0000       0.318488         8.6665 
 232   0.0000       0.325451         8.8560 
 233   0.0000       0.327892         8.9224 
 234   0.0000       0.332392         9.0448 
 235   0.0000       0.337110         9.1732 
 236   0.0000       0.355749         9.6804 
 237   0.0000       0.386203        10.5091 
 238   0.0000       0.395169        10.7531 
 239   0.0000       0.400277        10.8921 
 240   0.0000       0.406113        11.0509 
 241   0.0000       0.411091        11.1864 
 242   0.0000       0.421538        11.4706 
 243   0.0000       0.423137        11.5141 
 244   0.0000       0.431057        11.7296 
 245   0.0000       0.432314        11.7639 
 246   0.0000       0.433735        11.8025 
 247   0.0000       0.437854        11.9146 
 248   0.0000       0.441258        12.0072 
 249   0.0000       0.444197        12.0872 
 250   0.0000       0.446352        12.1459 
 251   0.0000       0.453114        12.3299 
 252   0.0000       0.455776        12.4023 
 253   0.0000       0.465939        12.6789 
 254   0.0000       0.470484        12.8025 
 255   0.0000       0.475120        12.9287 
 256   0.0000       0.482457        13.1283 
 257   0.0000       0.486237        13.2312 
 258   0.0000       0.492078        13.3901 
 259   0.0000       0.496121        13.5001 
 260   0.0000       0.500629        13.6228 
 261   0.0000       0.502474        13.6730 
 262   0.0000       0.506923        13.7941 
 263   0.0000       0.509837        13.8734 
 264   0.0000       0.511523        13.9192 
 265   0.0000       0.515047        14.0151 
 266   0.0000       0.517523        14.0825 
 267   0.0000       0.522370        14.2144 
 268   0.0000       0.535993        14.5851 
 269   0.0000       0.538088        14.6421 
 270   0.0000       0.541383        14.7318 
 271   0.0000       0.545374        14.8404 
 272   0.0000       0.546333        14.8665 
 273   0.0000       0.553507        15.0617 
 274   0.0000       0.559617        15.2279 
 275   0.0000       0.563427        15.3316 
 276   0.0000       0.574791        15.6409 
 277   0.0000       0.576515        15.6878 
 278   0.0000       0.580667        15.8008 
 279   0.0000       0.584837        15.9142 
 280   0.0000       0.587191        15.9783 
 281   0.0000       0.590787        16.0761 
 282   0.0000       0.594138        16.1673 
 283   0.0000       0.596988        16.2449 
 284   0.0000       0.600163        16.3313 
 285   0.0000       0.601258        16.3611 
 286   0.0000       0.607024        16.5180 
 287   0.0000       0.608511        16.5584 
 288   0.0000       0.611250        16.6329 
 289   0.0000       0.616054        16.7637 
 290   0.0000       0.618758        16.8373 
 291   0.0000       0.627656        17.0794 
 292   0.0000       0.638560        17.3761 
 293   0.0000       0.638998        17.3880 
 294   0.0000       0.644351        17.5337 
 295   0.0000       0.650437        17.6993 
 296   0.0000       0.657131        17.8815 
 297   0.0000       0.659307        17.9406 
 298   0.0000       0.661151        17.9908 
 299   0.0000       0.664838        18.0912 
 300   0.0000       0.670498        18.2452 
 301   0.0000       0.672840        18.3089 
 302   0.0000       0.678924        18.4745 
 303   0.0000       0.681570        18.5465 
 304   0.0000       0.683200        18.5908 
 305   0.0000       0.686302        18.6752 
 306   0.0000       0.690129        18.7794 
 307   0.0000       0.692704        18.8494 
 308   0.0000       0.697255        18.9733 
 309   0.0000       0.700822        19.0703 
 310   0.0000       0.704022        19.1574 
 311   0.0000       0.705625        19.2010 
 312   0.0000       0.706312        19.2197 
 313   0.0000       0.709010        19.2931 
 314   0.0000       0.712475        19.3874 
 315   0.0000       0.713907        19.4264 
 316   0.0000       0.715022        19.4567 
 317   0.0000       0.718382        19.5482 
 318   0.0000       0.719035        19.5659 
 319   0.0000       0.723229        19.6801 
 320   0.0000       0.727197        19.7880 
 321   0.0000       0.730494        19.8777 
 322   0.0000       0.730712        19.8837 
 323   0.0000       0.734319        19.9818 
 324   0.0000       0.738068        20.0838 
 325   0.0000       0.741847        20.1867 
 326   0.0000       0.744706        20.2645 
 327   0.0000       0.745679        20.2910 
 328   0.0000       0.746443        20.3117 
 329   0.0000       0.749649        20.3990 
 330   0.0000       0.751788        20.4572 
 331   0.0000       0.753979        20.5168 
 332   0.0000       0.756833        20.5945 
 333   0.0000       0.763562        20.7776 
 334   0.0000       0.767255        20.8781 
 335   0.0000       0.772385        21.0177 
 336   0.0000       0.774678        21.0800 
 337   0.0000       0.778813        21.1926 
 338   0.0000       0.782935        21.3047 
 339   0.0000       0.788366        21.4525 
 340   0.0000       0.791520        21.5384 
 341   0.0000       0.792972        21.5779 
 342   0.0000       0.794814        21.6280 
 343   0.0000       0.800094        21.7717 
 344   0.0000       0.804220        21.8840 
 345   0.0000       0.807324        21.9684 
 346   0.0000       0.808639        22.0042 
 347   0.0000       0.811523        22.0827 
 348   0.0000       0.814360        22.1599 
 349   0.0000       0.817308        22.2401 
 350   0.0000       0.819915        22.3110 
 351   0.0000       0.824227        22.4284 
 352   0.0000       0.827051        22.5052 
 353   0.0000       0.827817        22.5261 
 354   0.0000       0.831495        22.6261 
 355   0.0000       0.831833        22.6353 
 356   0.0000       0.834725        22.7140 
 357   0.0000       0.834782        22.7156 
 358   0.0000       0.835859        22.7449 
 359   0.0000       0.838839        22.8260 
 360   0.0000       0.840370        22.8676 
 361   0.0000       0.841639        22.9022 
 362   0.0000       0.843777        22.9603 
 363   0.0000       0.844599        22.9827 
 364   0.0000       0.846648        23.0385 
 365   0.0000       0.849448        23.1147 
 366   0.0000       0.850874        23.1535 
 367   0.0000       0.853401        23.2222 
 368   0.0000       0.858834        23.3701 
 369   0.0000       0.861286        23.4368 
 370   0.0000       0.865412        23.5491 
 371   0.0000       0.867348        23.6017 
 372   0.0000       0.872205        23.7339 
 373   0.0000       0.875996        23.8371 
 374   0.0000       0.879028        23.9196 
 375   0.0000       0.882769        24.0214 
 376   0.0000       0.885286        24.0899 
 377   0.0000       0.889920        24.2160 
 378   0.0000       0.894743        24.3472 
 379   0.0000       0.895098        24.3569 
 380   0.0000       0.897302        24.4168 
 381   0.0000       0.900287        24.4980 
 382   0.0000       0.902407        24.5557 
 383   0.0000       0.903989        24.5988 
 384   0.0000       0.905710        24.6456 
 385   0.0000       0.906242        24.6601 
 386   0.0000       0.909291        24.7431 
 387   0.0000       0.911108        24.7925 
 388   0.0000       0.911508        24.8034 
 389   0.0000       0.914234        24.8776 
 390   0.0000       0.919187        25.0124 
 391   0.0000       0.920073        25.0365 
 392   0.0000       0.922961        25.1151 
 393   0.0000       0.924298        25.1514 
 394   0.0000       0.925821        25.1929 
 395   0.0000       0.931430        25.3455 
 396   0.0000       0.933457        25.4007 
 397   0.0000       0.936788        25.4913 
 398   0.0000       0.937466        25.5097 
 399   0.0000       0.942111        25.6362 
 400   0.0000       0.942681        25.6517 
 401   0.0000       0.945809        25.7368 
 402   0.0000       0.950216        25.8567 
 403   0.0000       0.951289        25.8859 
 404   0.0000       0.953226        25.9386 
 405   0.0000       0.958159        26.0728 
 406   0.0000       0.960210        26.1286 
 407   0.0000       0.962079        26.1795 
 408   0.0000       0.966164        26.2907 
 409   0.0000       0.971198        26.4276 
 410   0.0000       0.974584        26.5198 
 411   0.0000       0.976095        26.5609 
 412   0.0000       0.981580        26.7102 
 413   0.0000       0.985141        26.8070 
 414   0.0000       0.988663        26.9029 
 415   0.0000       0.989799        26.9338 
 416   0.0000       0.998980        27.1836 
 417   0.0000       1.001218        27.2445 
 418   0.0000       1.007153        27.4060 
 419   0.0000       1.014448        27.6045 
 420   0.0000       1.023416        27.8486 
 421   0.0000       1.025645        27.9092 
 422   0.0000       1.032547        28.0970 
 423   0.0000       1.039784        28.2940 
 424   0.0000       1.046261        28.4702 
 425   0.0000       1.048593        28.5337 
 426   0.0000       1.054448        28.6930 
 427   0.0000       1.062348        28.9079 
 428   0.0000       1.064812        28.9750 
 429   0.0000       1.072324        29.1794 
 430   0.0000       1.076871        29.3031 
 431   0.0000       1.080587        29.4043 
 432   0.0000       1.085756        29.5449 
 433   0.0000       1.089864        29.6567 
 434   0.0000       1.096120        29.8269 
 435   0.0000       1.103302        30.0224 
 436   0.0000       1.107766        30.1438 
 437   0.0000       1.109806        30.1994 
 438   0.0000       1.115811        30.3628 
 439   0.0000       1.118318        30.4310 
 440   0.0000       1.120415        30.4881 
 441   0.0000       1.125012        30.6131 
 442   0.0000       1.130121        30.7522 
 443   0.0000       1.131314        30.7846 
 444   0.0000       1.133811        30.8526 
 445   0.0000       1.134546        30.8726 
 446   0.0000       1.135242        30.8915 
 447   0.0000       1.140296        31.0290 
 448   0.0000       1.144870        31.1535 
 449   0.0000       1.145839        31.1799 
 450   0.0000       1.151808        31.3423 
 451   0.0000       1.153398        31.3856 
 452   0.0000       1.154686        31.4206 
 453   0.0000       1.155301        31.4373 
 454   0.0000       1.159501        31.5516 
 455   0.0000       1.167234        31.7620 
 456   0.0000       1.174456        31.9586 
 457   0.0000       1.177494        32.0412 
 458   0.0000       1.181883        32.1607 
 459   0.0000       1.185333        32.2545 
 460   0.0000       1.188362        32.3370 
 461   0.0000       1.189847        32.3774 
 462   0.0000       1.200026        32.6544 
 463   0.0000       1.203832        32.7579 
 464   0.0000       1.206872        32.8406 
 465   0.0000       1.208894        32.8957 
 466   0.0000       1.214788        33.0560 
 467   0.0000       1.215563        33.0772 
 468   0.0000       1.221627        33.2422 
 469   0.0000       1.228863        33.4391 
 470   0.0000       1.233129        33.5552 
 471   0.0000       1.234658        33.5967 
 472   0.0000       1.235469        33.6188 
 473   0.0000       1.239919        33.7399 
 474   0.0000       1.242114        33.7996 
 475   0.0000       1.247229        33.9388 
 476   0.0000       1.250750        34.0346 
 477   0.0000       1.253328        34.1048 
 478   0.0000       1.254652        34.1408 
 479   0.0000       1.256313        34.1860 
 480   0.0000       1.260610        34.3029 
 481   0.0000       1.263853        34.3912 
 482   0.0000       1.268447        34.5162 
 483   0.0000       1.270089        34.5609 
 484   0.0000       1.275910        34.7193 
 485   0.0000       1.276553        34.7368 
 486   0.0000       1.281950        34.8836 
 487   0.0000       1.284819        34.9617 
 488   0.0000       1.289451        35.0877 
 489   0.0000       1.290848        35.1257 
 490   0.0000       1.293377        35.1946 
 491   0.0000       1.300503        35.3885 
 492   0.0000       1.303124        35.4598 
 493   0.0000       1.310528        35.6613 
 494   0.0000       1.314370        35.7658 
 495   0.0000       1.315072        35.7849 
 496   0.0000       1.317697        35.8563 
 497   0.0000       1.320180        35.9239 
 498   0.0000       1.325454        36.0674 
 499   0.0000       1.330293        36.1991 
 500   0.0000       1.334425        36.3115 
 501   0.0000       1.337487        36.3949 
 502   0.0000       1.341737        36.5105 
 503   0.0000       1.344935        36.5975 
 504   0.0000       1.350530        36.7498 
 505   0.0000       1.352401        36.8007 
 506   0.0000       1.354239        36.8507 
 507   0.0000       1.355266        36.8787 
 508   0.0000       1.358611        36.9697 
 509   0.0000       1.361526        37.0490 
 510   0.0000       1.364897        37.1407 
 511   0.0000       1.367999        37.2251 
 512   0.0000       1.370901        37.3041 
[...]
      pz      :     0.021997  p :     0.079610
      px      :     0.043361
      py      :     0.014252
 77 H s       :     0.888275  s :     0.888275
      pz      :     0.047693  p :     0.078962
      px      :     0.015014
      py      :     0.016255
 78 H s       :     0.888696  s :     0.888696
      pz      :     0.025735  p :     0.078901
      px      :     0.020538
      py      :     0.032629
 79 H s       :     0.909206  s :     0.909206
      pz      :     0.022046  p :     0.086646
      px      :     0.021749
      py      :     0.042851
 80 H s       :     0.869692  s :     0.869692
      pz      :     0.038964  p :     0.084249
      px      :     0.029996
      py      :     0.015289
 81 H s       :     0.887195  s :     0.887195
      pz      :     0.037765  p :     0.083921
      px      :     0.016155
      py      :     0.030001
 82 H s       :     0.915486  s :     0.915486
      pz      :     0.022106  p :     0.086830
      px      :     0.031404
      py      :     0.033321
 83 H s       :     0.872994  s :     0.872994
      pz      :     0.039240  p :     0.083995
      px      :     0.015262
      py      :     0.029492
 84 H s       :     0.887198  s :     0.887198
      pz      :     0.035775  p :     0.083664
      px      :     0.031713
      py      :     0.016177
 85 H s       :     0.893672  s :     0.893672
      pz      :     0.022494  p :     0.079737
      px      :     0.014090
      py      :     0.043153
 86 H s       :     0.890891  s :     0.890891
      pz      :     0.024723  p :     0.078847
      px      :     0.032986
      py      :     0.021139
 87 H s       :     0.890150  s :     0.890150
      pz      :     0.047973  p :     0.078707
      px      :     0.015603
      py      :     0.015131
 88 H s       :     0.913283  s :     0.913283
      pz      :     0.022003  p :     0.086978
      px      :     0.042587
      py      :     0.022388
 89 H s       :     0.871942  s :     0.871942
      pz      :     0.037926  p :     0.083890
      px      :     0.030494
      py      :     0.015471


                      *****************************
                      * MAYER POPULATION ANALYSIS *
                      *****************************

  NA   - Mulliken gross atomic population
  ZA   - Total nuclear charge
  QA   - Mulliken gross atomic charge
  VA   - Mayer's total valence
  BVA  - Mayer's bonded valence
  FA   - Mayer's free valence

  ATOM       NA         ZA         QA         VA         BVA        FA
  0 C      5.7956     6.0000     0.2044     3.8328     3.8328    -0.0000
  1 N      7.4461     7.0000    -0.4461     3.3539     3.3539     0.0000
  2 C      6.0646     6.0000    -0.0646     3.9188     3.9188    -0.0000
  3 N      7.3371     7.0000    -0.3371     3.4492     3.4492     0.0000
  4 C      6.0682     6.0000    -0.0682     3.9838     3.9838    -0.0000
  5 N      7.5616     7.0000    -0.5616     3.0884     3.0884    -0.0000
  6 C      6.0760     6.0000    -0.0760     4.0007     4.0007    -0.0000
  7 N      7.3388     7.0000    -0.3388     3.4389     3.4389     0.0000
  8 C      5.7968     6.0000     0.2032     3.8325     3.8325     0.0000
  9 N      7.5629     7.0000    -0.5629     3.0828     3.0828     0.0000
 10 C      5.8839     6.0000     0.1161     3.8992     3.8992     0.0000
 11 N      7.4372     7.0000    -0.4372     3.3850     3.3850     0.0000
 12 C      6.0724     6.0000    -0.0724     3.9177     3.9177     0.0000
 13 N      7.4371     7.0000    -0.4371     3.3922     3.3922     0.0000
 14 C      5.7648     6.0000     0.2352     3.7883     3.7883     0.0000
 15 N      7.4410     7.0000    -0.4410     3.3709     3.3709     0.0000
 16 C      5.7670     6.0000     0.2330     3.7868     3.7868    -0.0000
 17 C      6.0757     6.0000    -0.0757     4.0007     4.0007    -0.0000
 18 C      6.1938     6.0000    -0.1938     3.7586     3.7586     0.0000
 19 C      5.7759     6.0000     0.2241     3.8743     3.8743     0.0000
 20 C      5.7895     6.0000     0.2105     3.8259     3.8259     0.0000
 21 C      6.0796     6.0000    -0.0796     3.9079     3.9079    -0.0000
 22 C      6.0864     6.0000    -0.0864     3.9829     3.9829    -0.0000
 23 C      6.0464     6.0000    -0.0464     3.9906     3.9906    -0.0000
 24 C      5.7964     6.0000     0.2036     3.8227     3.8227     0.0000
 25 C      5.8863     6.0000     0.1137     3.8894     3.8894     0.0000
 26 C      6.0734     6.0000    -0.0734     3.9038     3.9038    -0.0000
 27 C      5.7808     6.0000     0.2192     3.8778     3.8778    -0.0000
 28 C      6.0545     6.0000    -0.0545     3.9880     3.9880    -0.0000
 29 C      6.1834     6.0000    -0.1834     3.7376     3.7376    -0.0000
 30 C      5.7618     6.0000     0.2382     3.7941     3.7941     0.0000
 31 C      5.7834     6.0000     0.2166     3.8248     3.8248     0.0000
 32 C      6.0639     6.0000    -0.0639     3.9195     3.9195     0.0000
 33 C      6.0759     6.0000    -0.0759     3.9816     3.9816    -0.0000
 34 C      6.0496     6.0000    -0.0496     3.9899     3.9899    -0.0000
 35 C      5.7900     6.0000     0.2100     3.8228     3.8228    -0.0000
 36 C      5.8874     6.0000     0.1126     3.8871     3.8871     0.0000
 37 C      6.0660     6.0000    -0.0660     3.9176     3.9176     0.0000
 38 C      5.7639     6.0000     0.2361     3.8003     3.8003     0.0000
 39 C      6.0610     6.0000    -0.0610     3.9890     3.9890     0.0000
 40 C      6.1866     6.0000    -0.1866     3.7372     3.7372    -0.0000
 41 C      5.7788     6.0000     0.2212     3.8822     3.8822     0.0000
 42 C      5.7988     6.0000     0.2012     3.8272     3.8272    -0.0000
 43 C      6.0736     6.0000    -0.0736     3.9022     3.9022     0.0000
 44 C      6.0897     6.0000    -0.0897     3.9855     3.9855     0.0000
 45 C      6.0553     6.0000    -0.0553     3.9925     3.9925     0.0000
 46 C      5.7949     6.0000     0.2051     3.8266     3.8266    -0.0000
 47 C      5.8843     6.0000     0.1157     3.8939     3.8939    -0.0000
 48 C      6.0730     6.0000    -0.0730     3.9053     3.9053     0.0000
 49 C      5.7709     6.0000     0.2291     3.8870     3.8870     0.0000
 50 C      6.0510     6.0000    -0.0510     3.9904     3.9904    -0.0000
 51 C      6.1910     6.0000    -0.1910     3.7371     3.7371    -0.0000
 52 H      0.9503     1.0000     0.0497     0.9854     0.9854    -0.0000
 53 H      1.0148     1.0000    -0.0148     0.9989     0.9989    -0.0000
 54 H      0.9538     1.0000     0.0462     1.0081     1.0081    -0.0000
 55 H      0.9515     1.0000     0.0485     0.9860     0.9860    -0.0000
 56 H      0.9439     1.0000     0.0561     0.9709     0.9709    -0.0000
 57 H      0.9462     1.0000     0.0538     0.9828     0.9828    -0.0000
 58 H      0.9470     1.0000     0.0530     0.9859     0.9859    -0.0000
 59 H      1.0089     1.0000    -0.0089     1.0005     1.0005    -0.0000
 60 H      0.9559     1.0000     0.0441     1.0109     1.0109    -0.0000
 61 H      0.8278     1.0000     0.1722     1.0423     1.0423    -0.0000
 62 H      0.8263     1.0000     0.1737     1.0435     1.0435    -0.0000
 63 H      0.9428     1.0000     0.0572     0.9853     0.9853    -0.0000
 64 H      1.0163     1.0000    -0.0163     0.9960     0.9960    -0.0000
 65 H      0.9532     1.0000     0.0468     1.0094     1.0094     0.0000
 66 H      0.9423     1.0000     0.0577     0.9851     0.9851     0.0000
 67 H      0.9365     1.0000     0.0635     0.9720     0.9720    -0.0000
 68 H      0.9417     1.0000     0.0583     0.9868     0.9868    -0.0000
 69 H      0.9413     1.0000     0.0587     0.9830     0.9830    -0.0000
 70 H      1.0257     1.0000    -0.0257     0.9935     0.9935     0.0000
 71 H      0.9520     1.0000     0.0480     1.0064     1.0064    -0.0000
 72 H      0.9396     1.0000     0.0604     0.9846     0.9846    -0.0000
 73 H      1.0125     1.0000    -0.0125     0.9992     0.9992     0.0000
 74 H      0.9496     1.0000     0.0504     1.0100     1.0100    -0.0000
 75 H      0.9406     1.0000     0.0594     0.9851     0.9851    -0.0000
 76 H      0.9346     1.0000     0.0654     0.9718     0.9718     0.0000
 77 H      0.9393     1.0000     0.0607     0.9852     0.9852     0.0000
 78 H      0.9401     1.0000     0.0599     0.9849     0.9849     0.0000
 79 H      1.0142     1.0000    -0.0142     0.9991     0.9991     0.0000
 80 H      0.9493     1.0000     0.0507     1.0071     1.0071    -0.0000
 81 H      0.9464     1.0000     0.0536     0.9855     0.9855    -0.0000
 82 H      1.0243     1.0000    -0.0243     0.9939     0.9939     0.0000
 83 H      0.9577     1.0000     0.0423     1.0090     1.0090     0.0000
 84 H      0.9470     1.0000     0.0530     0.9855     0.9855    -0.0000
 85 H      0.9408     1.0000     0.0592     0.9716     0.9716     0.0000
 86 H      0.9442     1.0000     0.0558     0.9840     0.9840     0.0000
 87 H      0.9433     1.0000     0.0567     0.9856     0.9856    -0.0000
 88 H      1.0200     1.0000    -0.0200     0.9951     0.9951     0.0000
 89 H      0.9545     1.0000     0.0455     1.0068     1.0068     0.0000

  Mayer bond orders larger than 0.100000
B(  0-C ,  1-N ) :   1.1062 B(  0-C , 17-C ) :   1.6584 B(  0-C , 52-H ) :   0.9691 
B(  1-N ,  8-C ) :   1.1025 B(  1-N , 10-C ) :   0.9677 B(  2-C , 12-C ) :   1.5297 
B(  2-C , 16-C ) :   1.3312 B(  2-C , 53-H ) :   0.9775 B(  3-N , 14-C ) :   1.2080 
B(  3-N , 16-C ) :   1.1941 B(  3-N , 61-H ) :   0.8988 B(  4-C ,  6-C ) :   1.2437 
B(  4-C , 17-C ) :   1.2469 B(  4-C , 18-C ) :   1.3208 B(  5-N , 19-C ) :   1.4304 
B(  5-N , 27-C ) :   1.3970 B(  6-C ,  8-C ) :   1.6612 B(  6-C , 54-H ) :   0.9701 
B(  7-N , 30-C ) :   1.1928 B(  7-N , 38-C ) :   1.1992 B(  7-N , 62-H ) :   0.8978 
B(  8-C , 55-H ) :   0.9702 B(  9-N , 41-C ) :   1.4026 B(  9-N , 49-C ) :   1.4206 
B( 10-C , 56-H ) :   0.9764 B( 10-C , 57-H ) :   0.9827 B( 10-C , 58-H ) :   0.9832 
B( 11-N , 20-C ) :   1.1281 B( 11-N , 24-C ) :   1.1206 B( 11-N , 25-C ) :   0.9578 
B( 12-C , 14-C ) :   1.3336 B( 12-C , 59-H ) :   0.9763 B( 13-N , 31-C ) :   1.1345 
B( 13-N , 35-C ) :   1.1272 B( 13-N , 36-C ) :   0.9549 B( 14-C , 18-C ) :   1.1782 
B( 15-N , 42-C ) :   1.1126 B( 15-N , 46-C ) :   1.1164 B( 15-N , 47-C ) :   0.9624 
B( 16-C , 51-C ) :   1.1930 B( 17-C , 60-H ) :   0.9698 B( 18-C , 19-C ) :   1.1899 
B( 19-C , 21-C ) :   1.2219 B( 20-C , 28-C ) :   1.6224 B( 20-C , 63-H ) :   0.9702 
B( 21-C , 26-C ) :   1.6347 B( 21-C , 64-H ) :   0.9727 B( 22-C , 23-C ) :   1.2870 
B( 22-C , 28-C ) :   1.2737 B( 22-C , 29-C ) :   1.2239 B( 23-C , 24-C ) :   1.6164 
B( 23-C , 65-H ) :   0.9708 B( 24-C , 66-H ) :   0.9692 B( 25-C , 67-H ) :   0.9761 
B( 25-C , 68-H ) :   0.9829 B( 25-C , 69-H ) :   0.9821 B( 26-C , 27-C ) :   1.2174 
B( 26-C , 70-H ) :   0.9727 B( 27-C , 29-C ) :   1.2252 B( 28-C , 71-H ) :   0.9715 
B( 29-C , 30-C ) :   1.2220 B( 30-C , 32-C ) :   1.3018 B( 31-C , 39-C ) :   1.6194 
B( 31-C , 72-H ) :   0.9692 B( 32-C , 37-C ) :   1.5568 B( 32-C , 73-H ) :   0.9780 
B( 33-C , 34-C ) :   1.2844 B( 33-C , 39-C ) :   1.2770 B( 33-C , 40-C ) :   1.2285 
B( 34-C , 35-C ) :   1.6161 B( 34-C , 74-H ) :   0.9702 B( 35-C , 75-H ) :   0.9693 
B( 36-C , 76-H ) :   0.9764 B( 36-C , 77-H ) :   0.9819 B( 36-C , 78-H ) :   0.9829 
B( 37-C , 38-C ) :   1.3040 B( 37-C , 79-H ) :   0.9775 B( 38-C , 40-C ) :   1.2163 
B( 39-C , 80-H ) :   0.9713 B( 40-C , 41-C ) :   1.2263 B( 41-C , 43-C ) :   1.2081 
B( 42-C , 50-C ) :   1.6344 B( 42-C , 81-H ) :   0.9696 B( 43-C , 48-C ) :   1.6433 
B( 43-C , 82-H ) :   0.9732 B( 44-C , 45-C ) :   1.2677 B( 44-C , 50-C ) :   1.2677 
B( 44-C , 51-C ) :   1.2592 B( 45-C , 46-C ) :   1.6342 B( 45-C , 83-H ) :   0.9714 
B( 46-C , 84-H ) :   0.9702 B( 47-C , 85-H ) :   0.9761 B( 47-C , 86-H ) :   0.9828 
B( 47-C , 87-H ) :   0.9826 B( 48-C , 49-C ) :   1.2091 B( 48-C , 88-H ) :   0.9741 
B( 49-C , 51-C ) :   1.2219 B( 50-C , 89-H ) :   0.9712 

-------
TIMINGS
-------

Total SCF time: 0 days 0 hours 21 min 11 sec 

Total time                  ....    1271.767 sec
Sum of individual times     ....    1268.088 sec  ( 99.7%)

Fock matrix formation       ....    1248.401 sec  ( 98.2%)
Diagonalization             ....       6.684 sec  (  0.5%)
Density matrix formation    ....       0.355 sec  (  0.0%)
Population analysis         ....       0.435 sec  (  0.0%)
Initial guess               ....       1.923 sec  (  0.2%)
Orbital Transformation      ....       0.000 sec  (  0.0%)
Orbital Orthonormalization  ....       0.000 sec  (  0.0%)
DIIS solution               ....       2.929 sec  (  0.2%)
SOSCF solution              ....       6.359 sec  (  0.5%)

Maximum memory used throughout the entire SCF-calculation: 302.6 MB


           ************************************************************
           *        Program running with 16 parallel MPI-processes    *
           *              working on a common directory               *
           ************************************************************

------------------------------------------------------------------------------
                                ORCA  MP2 
------------------------------------------------------------------------------

Freezing NCore=104 chemical core electrons

----------
MP2 ENERGY (disk based algorithm)
----------

Dimension of the basis                    ...  918
Memory devoted to MP2                     ... 2000 MB   
Data format for buffers                   ... DOUBLE
Compression type for matrix containers    ... UNCOMPRESSED

-------------------------------
PARTIAL EXCHANGE TRANSFORMATION
-------------------------------

Transformation type                        ... one-operator
Generation of integrals (i,mue|j,nue)      ... ON
Generation of integrals (mue,kappa|nue,tau)... OFF
Generation of integrals (i,mue|a,nue)      ... OFF
Dimension of the basis                     ...  918
Number of internal MOs                     ...  127 (  52- 178)
Pair cutoff                                ... 2.500e-12 Eh
Number of AO pairs in the trafo            ... 421821
Total Number of distinct AO pairs          ... 421821
Memory devoted for trafo                   ... 2000.0 MB 
Max. Number of MO pairs treated together   ...  311      
Number Format for Storage                  ... Double (8 Byte)
Integral package used                      ... LIBINT

Starting integral evaluation:
    ... done with AO integral generation
Closing buffer AOK     (38.17 GB; CompressionRatio= 1.33)
Collecting buffer AOK 
Number of MO pairs included in the trafo   ... 8128
------------------------
SORTING OF (i,mue|j,nue)
------------------------

IBATCH = 1 of  2
IBATCH = 2 of  2
Closing buffer KAO     (51.03 GB; CompressionRatio= 1.00)
Collecting buffer KAO 
N(AO-Batches) Done                         ...  85391492 
N(AO-Batches) Skipped                      ...  82420136 
N(IJ)-pairs Skipped                        ...         0 
TOTAL TIME for half transformation         ...  2519.689 sec
AO-integral generation                     ...   176.854 sec
Half transformation                        ...   314.698 sec
K-integral sorting                         ...  1886.814 sec
Process 13:   Internal MO 156
Process 10:   Internal MO 132

Finished integral transformation - now doing MP2 part

OPERATOR COMBINATION   0   0: ij=( 52..178, 52..178)
Process  7:   Internal MO 108
Process  1:   Internal MO  60
Process  4:   Internal MO  84
Process  0:   Internal MO  54
Process  2:   Internal MO  69
Process  0:   Internal MO  57
Process  1:   Internal MO  63
Process  1:   Internal MO  66
Process  5:   Internal MO  93
Process  2:   Internal MO  72
Process  8:   Internal MO 117
Process  4:   Internal MO  87
Process 11:   Internal MO 141
Process  3:   Internal MO  78
Process  9:   Internal MO 126
Process  2:   Internal MO  75
Process 14:   Internal MO 165
Process  6:   Internal MO 102
Process  7:   Internal MO 111
Process  5:   Internal MO  96
Process  3:   Internal MO  81
Process  4:   Internal MO  90
Process 12:   Internal MO 150
Process 10:   Internal MO 135
Process 15:   Internal MO 174
Process  6:   Internal MO 105
Process  5:   Internal MO  99
Process  8:   Internal MO 120
Process  9:   Internal MO 129
Process 13:   Internal MO 159
Process  7:   Internal MO 114
Process 11:   Internal MO 144
Process 14:   Internal MO 168
Process 10:   Internal MO 138
Process 12:   Internal MO 153
Process  8:   Internal MO 123
Process 15:   Internal MO 177
Process 11:   Internal MO 147
Process 13:   Internal MO 162
Process 14:   Internal MO 171
-----------------------------------------------
 MP2 CORRELATION ENERGY   :     -7.288271849 Eh
-----------------------------------------------


-------
TIMINGS
-------
Total time                : 2814.867 sec
Integral trafo            : 2521.651 sec ( 89.6%)
K(i,j)                    :    6.804 sec (  0.2%)
T(i,j)                    :    0.457 sec (  0.0%)

---------------------------------------
MP2 TOTAL ENERGY:    -2130.916045998 Eh
---------------------------------------

Maximum memory used throughout the entire MP2-calculation: 2275.2 MB

-------------------------   --------------------
FINAL SINGLE POINT ENERGY     -2130.916045997595
-------------------------   --------------------


                            ***************************************
                            *     ORCA property calculations      *
                            ***************************************


  WARNING: The energy has been calculated at the MP2 level but the densities
           used in the property calculations are still SCF densities
           MP2 response densities have not been calculated 
           use %mp2 Density relaxed end
           or  %mp2 Density unrelaxed end

                                    ---------------------
                                    Active property flags
                                    ---------------------
   (+) Dipole Moment


------------------------------------------------------------------------------
                       ORCA ELECTRIC PROPERTIES CALCULATION
------------------------------------------------------------------------------

Dipole Moment Calculation                       ... on
Quadrupole Moment Calculation                   ... off
Polarizability Calculation                      ... off
GBWName                                         ... /scratch/allen/tmpyp4_amber_gaff2/conf1/conf1/Conf126.orca.gbw
Electron density                                ... /scratch/allen/tmpyp4_amber_gaff2/conf1/conf1/Conf126.orca.scfp
The origin for moment calculation is the CENTER OF MASS  = ( 0.002932, -0.002111  0.003040)

-------------
DIPOLE MOMENT
-------------
                                X             Y             Z
Electronic contribution:      0.44278      -1.83163      -0.21099
Nuclear contribution   :      0.00858       0.19080       0.22689
                        -----------------------------------------
Total Dipole Moment    :      0.45135      -1.64083       0.01590
                        -----------------------------------------
Magnitude (a.u.)       :      1.70185
Magnitude (Debye)      :      4.32575



--------------------
Rotational spectrum 
--------------------
 
Rotational constants in cm-1:     0.001498     0.001475     0.000762 
Rotational constants in MHz :    44.922718    44.220886    22.840576 

 Dipole components along the rotational axes: 
x,y,z [a.u.] :     0.967909    -1.399668     0.019209 
x,y,z [Debye]:     2.460228    -3.557673     0.048826 

 

Timings for individual modules:

Sum of individual times         ...     4108.741 sec (=  68.479 min)
GTO integral calculation        ...        2.676 sec (=   0.045 min)   0.1 %
SCF iterations                  ...     1272.727 sec (=  21.212 min)  31.0 %
MP2 module                      ...     2833.338 sec (=  47.222 min)  69.0 %
                             ****ORCA TERMINATED NORMALLY****
TOTAL RUN TIME: 0 days 1 hours 8 minutes 32 seconds 88 msec
# of primitive gaussian functions

