
                                 *****************
                                 * O   R   C   A *
                                 *****************

                                            #,                                       
                                            ###                                      
                                            ####                                     
                                            #####                                    
                                            ######                                   
                                           ########,                                 
                                     ,,################,,,,,                         
                               ,,#################################,,                 
                          ,,##########################################,,             
                       ,#########################################, ''#####,          
                    ,#############################################,,   '####,        
                  ,##################################################,,,,####,       
                ,###########''''           ''''###############################       
              ,#####''   ,,,,##########,,,,          '''####'''          '####       
            ,##' ,,,,###########################,,,                        '##       
           ' ,,###''''                  '''############,,,                           
         ,,##''                                '''############,,,,        ,,,,,,###''
      ,#''                                            '''#######################'''  
     '                                                          ''''####''''         
             ,#######,   #######,   ,#######,      ##                                
            ,#'     '#,  ##    ##  ,#'     '#,    #''#        ######   ,####,        
            ##       ##  ##   ,#'  ##            #'  '#       #        #'  '#        
            ##       ##  #######   ##           ,######,      #####,   #    #        
            '#,     ,#'  ##    ##  '#,     ,#' ,#      #,         ##   #,  ,#        
             '#######'   ##     ##  '#######'  #'      '#     #####' # '####'        



                  #######################################################
                  #                        -***-                        #
                  #          Department of theory and spectroscopy      #
                  #    Directorship and core code : Frank Neese         #
                  #        Max Planck Institute fuer Kohlenforschung    #
                  #                Kaiser Wilhelm Platz 1               #
                  #                 D-45470 Muelheim/Ruhr               #
                  #                      Germany                        #
                  #                                                     #
                  #                  All rights reserved                #
                  #                        -***-                        #
                  #######################################################


                         Program Version 5.0.4 -  RELEASE  -


 With contributions from (in alphabetic order):
   Daniel Aravena         : Magnetic Suceptibility
   Michael Atanasov       : Ab Initio Ligand Field Theory (pilot matlab implementation)
   Alexander A. Auer      : GIAO ZORA, VPT2 properties, NMR spectrum
   Ute Becker             : Parallelization
   Giovanni Bistoni       : ED, misc. LED, open-shell LED, HFLD
   Martin Brehm           : Molecular dynamics
   Dmytro Bykov           : SCF Hessian
   Vijay G. Chilkuri      : MRCI spin determinant printing, contributions to CSF-ICE
   Dipayan Datta          : RHF DLPNO-CCSD density
   Achintya Kumar Dutta   : EOM-CC, STEOM-CC
   Dmitry Ganyushin       : Spin-Orbit,Spin-Spin,Magnetic field MRCI
   Miquel Garcia          : C-PCM and meta-GGA Hessian, CC/C-PCM, Gaussian charge scheme
   Yang Guo               : DLPNO-NEVPT2, F12-NEVPT2, CIM, IAO-localization
   Andreas Hansen         : Spin unrestricted coupled pair/coupled cluster methods
   Benjamin Helmich-Paris : MC-RPA, TRAH-SCF, COSX integrals
   Lee Huntington         : MR-EOM, pCC
   Robert Izsak           : Overlap fitted RIJCOSX, COSX-SCS-MP3, EOM
   Marcus Kettner         : VPT2
   Christian Kollmar      : KDIIS, OOCD, Brueckner-CCSD(T), CCSD density, CASPT2, CASPT2-K
   Simone Kossmann        : Meta GGA functionals, TD-DFT gradient, OOMP2, MP2 Hessian
   Martin Krupicka        : Initial AUTO-CI
   Lucas Lang             : DCDCAS
   Marvin Lechner         : AUTO-CI (C++ implementation), FIC-MRCC
   Dagmar Lenk            : GEPOL surface, SMD
   Dimitrios Liakos       : Extrapolation schemes; Compound Job, initial MDCI parallelization
   Dimitrios Manganas     : Further ROCIS development; embedding schemes
   Dimitrios Pantazis     : SARC Basis sets
   Anastasios Papadopoulos: AUTO-CI, single reference methods and gradients
   Taras Petrenko         : DFT Hessian,TD-DFT gradient, ASA, ECA, R-Raman, ABS, FL, XAS/XES, NRVS
   Peter Pinski           : DLPNO-MP2, DLPNO-MP2 Gradient
   Christoph Reimann      : Effective Core Potentials
   Marius Retegan         : Local ZFS, SOC
   Christoph Riplinger    : Optimizer, TS searches, QM/MM, DLPNO-CCSD(T), (RO)-DLPNO pert. Triples
   Tobias Risthaus        : Range-separated hybrids, TD-DFT gradient, RPA, STAB
   Michael Roemelt        : Original ROCIS implementation
   Masaaki Saitow         : Open-shell DLPNO-CCSD energy and density
   Barbara Sandhoefer     : DKH picture change effects
   Avijit Sen             : IP-ROCIS
   Kantharuban Sivalingam : CASSCF convergence, NEVPT2, FIC-MRCI
   Bernardo de Souza      : ESD, SOC TD-DFT
   Georgi Stoychev        : AutoAux, RI-MP2 NMR, DLPNO-MP2 response
   Willem Van den Heuvel  : Paramagnetic NMR
   Boris Wezisla          : Elementary symmetry handling
   Frank Wennmohs         : Technical directorship


 We gratefully acknowledge several colleagues who have allowed us to
 interface, adapt or use parts of their codes:
   Stefan Grimme, W. Hujo, H. Kruse, P. Pracht,  : VdW corrections, initial TS optimization,
                  C. Bannwarth, S. Ehlert          DFT functionals, gCP, sTDA/sTD-DF
   Ed Valeev, F. Pavosevic, A. Kumar             : LibInt (2-el integral package), F12 methods
   Garnet Chan, S. Sharma, J. Yang, R. Olivares  : DMRG
   Ulf Ekstrom                                   : XCFun DFT Library
   Mihaly Kallay                                 : mrcc  (arbitrary order and MRCC methods)
   Jiri Pittner, Ondrej Demel                    : Mk-CCSD
   Frank Weinhold                                : gennbo (NPA and NBO analysis)
   Christopher J. Cramer and Donald G. Truhlar   : smd solvation model
   Lars Goerigk                                  : TD-DFT with DH, B97 family of functionals
   V. Asgeirsson, H. Jonsson                     : NEB implementation
   FAccTs GmbH                                   : IRC, NEB, NEB-TS, DLPNO-Multilevel, CI-OPT
                                                   MM, QMMM, 2- and 3-layer-ONIOM, Crystal-QMMM,
                                                   LR-CPCM, SF, NACMEs, symmetry and pop. for TD-DFT,
                                                   nearIR, NL-DFT gradient (VV10), updates on ESD,
                                                   ML-optimized integration grids
   S Lehtola, MJT Oliveira, MAL Marques          : LibXC Library
   Liviu Ungur et al                             : ANISO software


 Your calculation uses the libint2 library for the computation of 2-el integrals
 For citations please refer to: http://libint.valeyev.net

 Your ORCA version has been built with support for libXC version: 5.1.0
 For citations please refer to: https://tddft.org/programs/libxc/

 This ORCA versions uses:
   CBLAS   interface :  Fast vector & matrix operations
   LAPACKE interface :  Fast linear algebra routines
   SCALAPACK package :  Parallel linear algebra routines
   Shared memory     :  Shared parallel matrices
   BLAS/LAPACK       :  OpenBLAS 0.3.15  USE64BITINT DYNAMIC_ARCH NO_AFFINITY Sandybridge SINGLE_THREADED
        Core in use  :  Sandybridge
   Copyright (c) 2011-2014, The OpenBLAS Project


================================================================================

----- Orbital basis set information -----
Your calculation utilizes the basis: cc-pVDZ 
       H, B-Ne : Obtained from the ccRepo (grant-hill.group.shef.ac.uk/ccrepo) Feb. 2017
                 T. H. Dunning, Jr., J. Chem. Phys. 90, 1007 (1989)
            He : Obtained from the ccRepo (grant-hill.group.shef.ac.uk/ccrepo) Feb. 2017
                 D. E. Woon, T. H. Dunning, Jr., J. Chem. Phys. 100, 2975 (1994)
  Li-Be, Na-Mg : Obtained from the ccRepo (grant-hill.group.shef.ac.uk/ccrepo) Feb. 2017
                 B. P. Prascher, D. E. Woon, K. A. Peterson, T. H. Dunning, Jr., A. K. Wilson, Theor. Chem. Acc. 128, 69 (2011)
         Al-Ar : Obtained from the ccRepo (grant-hill.group.shef.ac.uk/ccrepo) Feb. 2017
                 D. E. Woon, T. H. Dunning, Jr., J. Chem. Phys. 98, 1358 (1993)
            Ca : Obtained from the Peterson Research Group Website (tyr0.chem.wsu.edu/~kipeters) Feb. 2017
                 J. Koput, K. A. Peterson, J. Phys. Chem. 106, 9595 (2002)
         Sc-Zn : Obtained from the ccRepo (grant-hill.group.shef.ac.uk/ccrepo) Feb. 2017
                 N. B. Balabanov, K. A. Peterson, J. Chem. Phys. 123, 064107 (2005)
                 N. B. Balabanov, K. A. Peterson, J. Chem. Phys. 125, 074110 (2006)
         Ga-Kr : Obtained from the ccRepo (grant-hill.group.shef.ac.uk/ccrepo) Feb. 2017
                 A. K. Wilson, D. E. Woon, K. A. Peterson, T. H. Dunning, Jr., J. Chem. Phys. 110, 7667 (1999)

================================================================================
                                        WARNINGS
                       Please study these warnings very carefully!
================================================================================


WARNING: No MP2 level density has been requested!
         To caclulate MP2 level properties use
         %mp2 Density relaxed end
         or
         %mp2 Density unrelaxed end

WARNING: Post HF methods need fully converged wavefunctions
  ===> : Setting SCFConvForced true
         You can overwrite this default with %scf ConvForced false 


INFO   : the flag for use of the SHARK integral package has been found!

================================================================================
                                       INPUT FILE
================================================================================
NAME = /scratch/allen/tmpyp4_amber_gaff2/2.Mdgx/conf11/conf11/Conf111.orca
|  1> ! PAL2
|  2> ! mp2 cc-pvdz TightSCF  NoKeepInts
|  3> 
|  4> %scf
|  5>   MaxCore 2000
|  6> end
|  7> %mp2
|  8>   MaxCore 2000
|  9> end
| 10> * xyz 0 1
| 11>    C       -4.30000         5.65200        -1.02300
| 12>    C        1.47400         4.04100         0.05700
| 13>    C       -2.80200         4.09300         0.04900
| 14>    C       -2.88000         4.89000         1.20200
| 15>    C       -3.66000         6.02900         1.20600
| 16>    C       -5.20900         7.60400         0.15200
| 17>    C        0.13200         4.30700         0.06100
| 18>    C       -0.56900         3.05600         0.04700
| 19>    C        1.64900         2.61800         0.02300
| 20>    C       -3.53800         4.50100        -1.07400
| 21>    N       -4.35300         6.39800         0.10300
| 22>    N        0.38800         2.06700         0.02500
| 23>    N       -2.01000         0.39500        -0.07500
| 24>    N       -0.38800        -2.07400        -0.02700
| 25>    N        2.01000        -0.40100         0.06500
| 26>    C       -1.96000         2.86100         0.02400
| 27>    C       -2.62300         1.61500        -0.01800
| 28>    C       -5.57300        -4.32900         1.06600
| 29>    C       -4.07300         1.47100         0.05600
| 30>    C       -4.10600        -2.75600        -0.02600
| 31>    C       -4.99500        -2.75700        -1.11100
| 32>    C       -6.13200        -3.54200        -1.07600
| 33>    C       -7.65100        -5.11300         0.04000
| 34>    C       -4.32400         0.14100         0.03700
| 35>    C       -3.02500        -0.52000        -0.04800
| 36>    C       -4.42200        -3.56600         1.07500
| 37>    N       -6.40700        -4.31300         0.00100
| 38>    C       -2.86700        -1.92200        -0.04000
| 39>    C       -1.65000        -2.62400        -0.02700
| 40>    C        3.56800        -6.14200        -1.04000
| 41>    C       -1.47600        -4.04900        -0.03400
| 42>    C        2.80300        -4.09900        -0.00800
| 43>    C        3.65700        -4.38400         1.06900
| 44>    C        4.42700        -5.53000         1.05900
| 45>    C        5.24500        -7.58800         0.01400
| 46>    C       -0.13400        -4.31500        -0.02200
| 47>    C        0.56800        -3.06400        -0.02700
| 48>    C        2.77500        -5.01200        -1.07400
| 49>    N        4.37600        -6.39100         0.01700
| 50>    C        1.95900        -2.86900        -0.00900
| 51>    C        2.62100        -1.62200         0.00900
| 52>    C        5.54300         4.33900        -1.13000
| 53>    C        4.07000        -1.47900        -0.09400
| 54>    C        4.10400         2.75100        -0.02100
| 55>    C        5.02700         2.72900         1.03600
| 56>    C        6.16600         3.50900         0.97800
| 57>    C        7.61900         5.15300        -0.11500
| 58>    C        4.32100        -0.14800        -0.09200
| 59>    C        3.02500         0.51400         0.01500
| 60>    C        4.38700         3.58200        -1.11500
| 61>    C        2.86600         1.91600         0.01300
| 62>    N        6.41300         4.29600        -0.09500
| 63>    H       -4.87400         6.01100        -1.86900
| 64>    H        2.27400         4.76600         0.08100
| 65>    H       -2.34200         4.62300         2.10300
| 66>    H       -3.75800         6.67000         2.07300
| 67>    H       -6.18900         7.32800         0.54800
| 68>    H       -4.73800         8.34300         0.79900
| 69>    H       -5.31200         8.00100        -0.85700
| 70>    H       -0.33200         5.28200         0.06900
| 71>    H       -3.50800         3.93600        -1.99900
| 72>    H        0.18200         1.07200         0.00500
| 73>    H       -0.18300        -1.08000        -0.02100
| 74>    H       -5.86400        -4.96200         1.89500
| 75>    H       -4.79400         2.27200         0.13900
| 76>    H       -4.80000        -2.16000        -1.99400
| 77>    H       -6.84100        -3.58200        -1.89300
| 78>    H       -8.42800        -4.53600         0.54600
| 79>    H       -7.95600        -5.33700        -0.98100
| 80>    H       -7.45600        -6.03700         0.58400
| 81>    H       -5.28700        -0.34400         0.10000
| 82>    H       -3.78000        -3.60100         1.94700
| 83>    H        3.58700        -6.86800        -1.84300
| 84>    H       -2.27600        -4.77400        -0.05000
| 85>    H        3.71400        -3.72400         1.92600
| 86>    H        5.09200        -5.79500         1.87100
| 87>    H        6.20500        -7.32900        -0.43900
| 88>    H        5.39300        -7.91700         1.04200
| 89>    H        4.75900        -8.37300        -0.56400
| 90>    H        0.32900        -5.29000        -0.00800
| 91>    H        2.14600        -4.84200        -1.94000
| 92>    H        5.80800         4.98600        -1.95600
| 93>    H        4.78800        -2.28100        -0.18500
| 94>    H        4.86000         2.11400         1.91200
| 95>    H        6.90100         3.53100         1.77200
| 96>    H        7.38300         6.10900         0.35600
| 97>    H        8.41400         4.65200         0.43500
| 98>    H        7.92100         5.31000        -1.15000
| 99>    H        5.28300         0.33600        -0.17900
|100>    H        3.72000         3.63200        -1.96700
|101> *
|102> 
|103>                          ****END OF INPUT****
================================================================================

                       ****************************
                       * Single Point Calculation *
                       ****************************

---------------------------------
CARTESIAN COORDINATES (ANGSTROEM)
---------------------------------
  C     -4.300000    5.652000   -1.023000
  C      1.474000    4.041000    0.057000
  C     -2.802000    4.093000    0.049000
  C     -2.880000    4.890000    1.202000
  C     -3.660000    6.029000    1.206000
  C     -5.209000    7.604000    0.152000
  C      0.132000    4.307000    0.061000
  C     -0.569000    3.056000    0.047000
  C      1.649000    2.618000    0.023000
  C     -3.538000    4.501000   -1.074000
  N     -4.353000    6.398000    0.103000
  N      0.388000    2.067000    0.025000
  N     -2.010000    0.395000   -0.075000
  N     -0.388000   -2.074000   -0.027000
  N      2.010000   -0.401000    0.065000
  C     -1.960000    2.861000    0.024000
  C     -2.623000    1.615000   -0.018000
  C     -5.573000   -4.329000    1.066000
  C     -4.073000    1.471000    0.056000
  C     -4.106000   -2.756000   -0.026000
  C     -4.995000   -2.757000   -1.111000
  C     -6.132000   -3.542000   -1.076000
  C     -7.651000   -5.113000    0.040000
  C     -4.324000    0.141000    0.037000
  C     -3.025000   -0.520000   -0.048000
  C     -4.422000   -3.566000    1.075000
  N     -6.407000   -4.313000    0.001000
  C     -2.867000   -1.922000   -0.040000
  C     -1.650000   -2.624000   -0.027000
  C      3.568000   -6.142000   -1.040000
  C     -1.476000   -4.049000   -0.034000
  C      2.803000   -4.099000   -0.008000
  C      3.657000   -4.384000    1.069000
  C      4.427000   -5.530000    1.059000
  C      5.245000   -7.588000    0.014000
  C     -0.134000   -4.315000   -0.022000
  C      0.568000   -3.064000   -0.027000
  C      2.775000   -5.012000   -1.074000
  N      4.376000   -6.391000    0.017000
  C      1.959000   -2.869000   -0.009000
  C      2.621000   -1.622000    0.009000
  C      5.543000    4.339000   -1.130000
  C      4.070000   -1.479000   -0.094000
  C      4.104000    2.751000   -0.021000
  C      5.027000    2.729000    1.036000
  C      6.166000    3.509000    0.978000
  C      7.619000    5.153000   -0.115000
  C      4.321000   -0.148000   -0.092000
  C      3.025000    0.514000    0.015000
  C      4.387000    3.582000   -1.115000
  C      2.866000    1.916000    0.013000
  N      6.413000    4.296000   -0.095000
  H     -4.874000    6.011000   -1.869000
  H      2.274000    4.766000    0.081000
  H     -2.342000    4.623000    2.103000
  H     -3.758000    6.670000    2.073000
  H     -6.189000    7.328000    0.548000
  H     -4.738000    8.343000    0.799000
  H     -5.312000    8.001000   -0.857000
  H     -0.332000    5.282000    0.069000
  H     -3.508000    3.936000   -1.999000
  H      0.182000    1.072000    0.005000
  H     -0.183000   -1.080000   -0.021000
  H     -5.864000   -4.962000    1.895000
  H     -4.794000    2.272000    0.139000
  H     -4.800000   -2.160000   -1.994000
  H     -6.841000   -3.582000   -1.893000
  H     -8.428000   -4.536000    0.546000
  H     -7.956000   -5.337000   -0.981000
  H     -7.456000   -6.037000    0.584000
  H     -5.287000   -0.344000    0.100000
  H     -3.780000   -3.601000    1.947000
  H      3.587000   -6.868000   -1.843000
  H     -2.276000   -4.774000   -0.050000
  H      3.714000   -3.724000    1.926000
  H      5.092000   -5.795000    1.871000
  H      6.205000   -7.329000   -0.439000
  H      5.393000   -7.917000    1.042000
  H      4.759000   -8.373000   -0.564000
  H      0.329000   -5.290000   -0.008000
  H      2.146000   -4.842000   -1.940000
  H      5.808000    4.986000   -1.956000
  H      4.788000   -2.281000   -0.185000
  H      4.860000    2.114000    1.912000
  H      6.901000    3.531000    1.772000
  H      7.383000    6.109000    0.356000
  H      8.414000    4.652000    0.435000
  H      7.921000    5.310000   -1.150000
  H      5.283000    0.336000   -0.179000
  H      3.720000    3.632000   -1.967000

----------------------------
CARTESIAN COORDINATES (A.U.)
----------------------------
  NO LB      ZA    FRAG     MASS         X           Y           Z
   0 C     6.0000    0    12.011   -8.125822   10.680732   -1.933190
   1 C     6.0000    0    12.011    2.785456    7.636383    0.107714
   2 C     6.0000    0    12.011   -5.295013    7.734649    0.092597
   3 C     6.0000    0    12.011   -5.442411    9.240761    2.271451
   4 C     6.0000    0    12.011   -6.916398   11.393159    2.279010
   5 C     6.0000    0    12.011   -9.843583   14.369478    0.287238
   6 C     6.0000    0    12.011    0.249444    8.139050    0.115273
   7 C     6.0000    0    12.011   -1.075254    5.775003    0.088817
   8 C     6.0000    0    12.011    3.116158    4.947303    0.043464
   9 C     6.0000    0    12.011   -6.685851    8.505657   -2.029566
  10 N     7.0000    0    14.007   -8.225978   12.090468    0.194642
  11 N     7.0000    0    14.007    0.733214    3.906064    0.047243
  12 N     7.0000    0    14.007   -3.798350    0.746442   -0.141729
  13 N     7.0000    0    14.007   -0.733214   -3.919292   -0.051023
  14 N     7.0000    0    14.007    3.798350   -0.757780    0.122832
  15 C     6.0000    0    12.011   -3.703863    5.406506    0.045353
  16 C     6.0000    0    12.011   -4.956752    3.051908   -0.034015
  17 C     6.0000    0    12.011  -10.531444   -8.180624    2.014448
  18 C     6.0000    0    12.011   -7.696855    2.779787    0.105825
  19 C     6.0000    0    12.011   -7.759216   -5.208085   -0.049133
  20 C     6.0000    0    12.011   -9.439182   -5.209975   -2.099486
  21 C     6.0000    0    12.011  -11.587801   -6.693410   -2.033345
  22 C     6.0000    0    12.011  -14.458295   -9.662170    0.075589
  23 C     6.0000    0    12.011   -8.171176    0.266451    0.069920
  24 C     6.0000    0    12.011   -5.716422   -0.982658   -0.090707
  25 C     6.0000    0    12.011   -8.356369   -6.738763    2.031456
  26 N     7.0000    0    14.007  -12.107475   -8.150389    0.001890
  27 C     6.0000    0    12.011   -5.417845   -3.632054   -0.075589
  28 C     6.0000    0    12.011   -3.118048   -4.958641   -0.051023
  29 C     6.0000    0    12.011    6.742543  -11.606698   -1.965315
  30 C     6.0000    0    12.011   -2.789236   -7.651501   -0.064251
  31 C     6.0000    0    12.011    5.296902   -7.745987   -0.015118
  32 C     6.0000    0    12.011    6.910728   -8.284559    2.020117
  33 C     6.0000    0    12.011    8.365818  -10.450186    2.001220
  34 C     6.0000    0    12.011    9.911614  -14.339242    0.026456
  35 C     6.0000    0    12.011   -0.253223   -8.154168   -0.041574
  36 C     6.0000    0    12.011    1.073364   -5.790121   -0.051023
  37 C     6.0000    0    12.011    5.243990   -9.471307   -2.029566
  38 N     7.0000    0    14.007    8.269442  -12.077240    0.032125
  39 C     6.0000    0    12.011    3.701973   -5.421624   -0.017008
  40 C     6.0000    0    12.011    4.952972   -3.065136    0.017008
  41 C     6.0000    0    12.011   10.474752    8.199522   -2.135391
  42 C     6.0000    0    12.011    7.691185   -2.794905   -0.177634
  43 C     6.0000    0    12.011    7.755436    5.198637   -0.039684
  44 C     6.0000    0    12.011    9.499653    5.157063    1.957756
  45 C     6.0000    0    12.011   11.652051    6.631049    1.848152
  46 C     6.0000    0    12.011   14.397823    9.737759   -0.217319
  47 C     6.0000    0    12.011    8.165507   -0.279679   -0.173855
  48 C     6.0000    0    12.011    5.716422    0.971319    0.028346
  49 C     6.0000    0    12.011    8.290229    6.768999   -2.107045
  50 C     6.0000    0    12.011    5.415955    3.620715    0.024566
  51 N     7.0000    0    14.007   12.118814    8.118263   -0.179524
  52 H     1.0000    0     1.008   -9.210525   11.359144   -3.531898
  53 H     1.0000    0     1.008    4.297237    9.006435    0.153068
  54 H     1.0000    0     1.008   -4.425739    8.736204    3.974094
  55 H     1.0000    0     1.008   -7.101591   12.604473    3.917402
  56 H     1.0000    0     1.008  -11.695515   13.847913    1.035570
  57 H     1.0000    0     1.008   -8.953522   15.765985    1.509891
  58 H     1.0000    0     1.008  -10.038225   15.119699   -1.619495
  59 H     1.0000    0     1.008   -0.627389    9.981533    0.130391
  60 H     1.0000    0     1.008   -6.629159    7.437962   -3.777563
  61 H     1.0000    0     1.008    0.343930    2.025786    0.009449
  62 H     1.0000    0     1.008   -0.345820   -2.040904   -0.039684
  63 H     1.0000    0     1.008  -11.081354   -9.376821    3.581031
  64 H     1.0000    0     1.008   -9.059347    4.293458    0.262672
  65 H     1.0000    0     1.008   -9.070685   -4.081808   -3.768114
  66 H     1.0000    0     1.008  -12.927616   -6.768999   -3.577252
  67 H     1.0000    0     1.008  -15.926612   -8.571798    1.031790
  68 H     1.0000    0     1.008  -15.034661  -10.085468   -1.853821
  69 H     1.0000    0     1.008  -14.089798  -11.408277    1.103600
  70 H     1.0000    0     1.008   -9.990982   -0.650066    0.188973
  71 H     1.0000    0     1.008   -7.143165   -6.804904    3.679297
  72 H     1.0000    0     1.008    6.778448  -12.978639   -3.482765
  73 H     1.0000    0     1.008   -4.301017   -9.021553   -0.094486
  74 H     1.0000    0     1.008    7.018443   -7.037340    3.639613
  75 H     1.0000    0     1.008    9.622485  -10.950963    3.535678
  76 H     1.0000    0     1.008   11.725751  -13.849803   -0.829590
  77 H     1.0000    0     1.008   10.191293  -14.960962    1.969095
  78 H     1.0000    0     1.008    8.993207  -15.822677   -1.065806
  79 H     1.0000    0     1.008    0.621720   -9.996651   -0.015118
  80 H     1.0000    0     1.008    4.055352   -9.150054   -3.666069
  81 H     1.0000    0     1.008   10.975529    9.422175   -3.696304
  82 H     1.0000    0     1.008    9.048009   -4.310465   -0.349599
  83 H     1.0000    0     1.008    9.184069    3.994881    3.613156
  84 H     1.0000    0     1.008   13.041000    6.672623    3.348595
  85 H     1.0000    0     1.008   13.951848   11.544337    0.672743
  86 H     1.0000    0     1.008   15.900156    8.791006    0.822031
  87 H     1.0000    0     1.008   14.968521   10.034446   -2.173185
  88 H     1.0000    0     1.008    9.983423    0.634948   -0.338261
  89 H     1.0000    0     1.008    7.029781    6.863485   -3.717091

--------------------------------
INTERNAL COORDINATES (ANGSTROEM)
--------------------------------
 C      0   0   0     0.000000000000     0.00000000     0.00000000
 C      1   0   0     6.091042357429     0.00000000     0.00000000
 C      1   2   0     2.413227921271    33.06377980     0.00000000
 C      3   1   2     1.403816939633    87.91333613    92.80542767
 C      4   3   1     1.380484335297   120.14558501     0.14555647
 C      5   4   3     2.447640087921   152.52875143     1.56727530
 C      2   1   3     1.368114030335    11.25724468   326.42703975
 C      7   2   3     1.434084376876   108.05010202     0.84668783
 C      2   1   3     1.434123425651   111.95670938    39.06571927
 C      1   2   3     1.381320382822    42.54279454   312.00884521
 N      1   2   3     1.351739989791    92.03065742    88.01729901
 N      9   2   1     1.376127174356   106.58526707   347.92522144
 N     12   9   2     2.925062050624   168.53581413   171.12065651
 N     13  12   9     2.954513327098    91.55032014    11.12112580
 N     14  13  12     2.925371258490    88.43092389   359.84326247
 C      8   7   2     1.404790019896   127.24786865   181.11170171
 C     13  12   9     1.366535034311    81.72106996   188.00453233
 C     14  13  12     5.758810554272    80.56209567   166.76250791
 C     17  13  12     1.459010623676   111.08861209   183.82872609
 C     18  14  13     2.412235892279    27.27532823    36.33507194
 C     20  18  14     1.402692767501    87.95206320   148.94598259
 C     21  20  18     1.382106725257   120.14573887   359.70382047
 C     18  14  13     2.446510985056   144.15733107    82.80075377
 C     19  17  13     1.353610726908   106.29293361   359.75308708
 C     13  12   9     1.366813447402   172.21332906    33.46711076
 C     18  14  13     1.380960173213    15.08449437   309.23336894
 N     22  21  20     1.352773077792   120.73759875     0.27865223
 C     25  13  17     1.410897586645   125.60330303   182.37774668
 C     14  13  12     1.376642291955    80.24689249   177.85461986
 C     14  13  12     5.764089607215   164.51507311   312.20821879
 C     29  14  13     1.435600919476   106.58649366   178.76395472
 C     30  14  13     2.413316804732    27.10625047    82.12560436
 C     32  30  14     1.403734305344    87.90059683   149.76154742
 C     33  32  30     1.380694028378   120.14881443   359.74174632
 C     34  33  32     2.448777858443   152.49203239     2.45173620
 C     31  29  14     1.368160809262   108.16950133     0.70383075
 C     14  13  12     1.376239804685   169.26375223   353.09862627
 C     30  14  13     1.380907310430    14.68948582   353.70041132
 N     34  33  32     1.352658863128   120.85575621     0.19603406
 C     37  14  29     1.404717053360   126.01551127   180.90772073
 C     15  14  13     1.366491126938    81.61824056   183.09049352
 C      2   1   3     4.249062720177   147.10807365   160.15489446
 C     41  15  14     1.459677704153   111.05201287   175.08990246
 C     42   2   1     2.412953791518    41.78584867   209.04927586
 C     44  42   2     1.403446472082    87.95153797   233.97558675
 C     45  44  42     1.381696421071   120.11137308     0.19721020
 C     42   2   1     2.450019795838   135.97209175   119.36412497
 C     43  41  15     1.354461516618   106.26758155     0.30894352
 C     15  14  13     1.367461151185   171.87382904   332.35056460
 C     42   2   1     1.381886391857    32.59078432   257.90455506
 C      9   2   1     1.404988612053   126.98745415   168.92955897
 N     42   2   1     1.352765315936   113.57249190   147.10071416
 H      1   2   3     1.083546491850   136.73871662   221.64602345
 H      2   1   3     1.079907866440   121.91233398   208.49664778
 H      4   3   1     1.082836091013   121.05184673   179.58214443
 H      5   4   3     1.082669848107   122.81665511   179.47153376
 H      6   5   4     1.092424825789   104.42153487   100.11933437
 H      6   5   4     1.089298398053    84.67167150   209.55403658
 H      6   5   4     1.089173539892   133.89298279   322.47654305
 H      7   2  54     1.079807853278   126.66122480     1.30600390
 H     10   1   2     1.084320063450   118.74686700   234.81822912
 H     12   9   2     1.016297692608   125.29023241   180.00180175
 H     14  13  12     1.014936943854    44.97226959   359.42596618
 H     18  14  13     1.082871645210   128.03556573   234.20482432
 H     19  17  13     1.080893611786   126.41830519   178.11313280
 H     21  20  18     1.083569563987   121.05669627   180.67006309
 H     22  21  20     1.082483256222   122.73097286   180.59748951
 H     23  18  14     1.092105306278   103.92715769   234.93429879
 H     23  18  14     1.088871893291   134.19244188    12.25587044
 H     23  18  14     1.089833473518    84.85857450   125.45241208
 H     24  19  17     1.080075460327   127.28078426   178.44613241
 H     26  18  14     1.083408048706   118.76995697   244.94906660
 H     30  14  13     1.082703098730   127.99711412   279.66882698
 H     31  29  14     1.079759695488   125.22293469   180.92530585
 H     33  32  30     1.083188810873   121.01964473   180.74284758
 H     34  33  32     1.082494341787   122.70821597   180.59516895
 H     35  34  33     1.092652735319   105.73575241    97.19771933
 H     35  34  33     1.089462711615    84.05943581   206.43036958
 H     35  34  33     1.089268102902   133.08365142   318.50306270
 H     36  31  29     1.079439669458   126.61599965   178.98859863
 H     38  30  73     1.083742127999   118.77264435   359.90091293
 H     42   2   1     1.082178358682   119.31790784     3.73224461
 H     43  41  15     1.080281907652   126.36969097   182.06329380
 H     45  44  42     1.083277434455   121.10105945   179.58025624
 H     46  45  44     1.082194529648   122.72144639   179.46906377
 H     47  42   2     1.091546151109   106.65128841   315.16475048
 H     47  42   2     1.088818625851   132.46019523    94.52397119
 H     47  42   2     1.089531091801    83.63838232   206.04504406
 H     48  43  41     1.080402239909   127.23657387   181.62955349
 H     50  42   2     1.083186502870   118.77001737    94.71359229

---------------------------
INTERNAL COORDINATES (A.U.)
---------------------------
 C      0   0   0     0.000000000000     0.00000000     0.00000000
 C      1   0   0    11.510401925656     0.00000000     0.00000000
 C      1   2   0     4.560339869934    33.06377980     0.00000000
 C      3   1   2     2.652829558065    87.91333613    92.80542767
 C      4   3   1     2.608737325879   120.14558501     0.14555647
 C      5   4   3     4.625369440578   152.52875143     1.56727530
 C      2   1   3     2.585360837309    11.25724468   326.42703975
 C      7   2   3     2.710026725231   108.05010202     0.84668783
 C      2   1   3     2.710100516721   111.95670938    39.06571927
 C      1   2   3     2.610317226737    42.54279454   312.00884521
 N      1   2   3     2.554418384974    92.03065742    88.01729901
 N      9   2   1     2.600503484979   106.58526707   347.92522144
 N     12   9   2     5.527566200405   168.53581413   171.12065651
 N     13  12   9     5.583221047236    91.55032014    11.12112580
 N     14  13  12     5.528150518591    88.43092389   359.84326247
 C      8   7   2     2.654668413270   127.24786865   181.11170171
 C     13  12   9     2.582376967257    81.72106996   188.00453233
 C     14  13  12    10.882574804710    80.56209567   166.76250791
 C     17  13  12     2.757130505230   111.08861209   183.82872609
 C     18  14  13     4.558465206823    27.27532823    36.33507194
 C     20  18  14     2.650705180609    87.95206320   148.94598259
 C     21  20  18     2.611803198586   120.14573887   359.70382047
 C     18  14  13     4.623235745386   144.15733107    82.80075377
 C     19  17  13     2.557953565794   106.29293361   359.75308708
 C     13  12   9     2.582903091751   172.21332906    33.46711076
 C     18  14  13     2.609636529225    15.08449437   309.23336894
 N     22  21  20     2.556370638369   120.73759875     0.27865223
 C     25  13  17     2.666210041769   125.60330303   182.37774668
 C     14  13  12     2.601476916169    80.24689249   177.85461986
 C     14  13  12    10.892550769017   164.51507311   312.20821879
 C     29  14  13     2.712892575415   106.58649366   178.76395472
 C     30  14  13     4.560507835333    27.10625047    82.12560436
 C     32  30  14     2.652673401891    87.90059683   149.76154742
 C     33  32  30     2.609133588376   120.14881443   359.74174632
 C     34  33  32     4.627519515267   152.49203239     2.45173620
 C     31  29  14     2.585449236669   108.16950133     0.70383075
 C     14  13  12     2.600716325456   169.26375223   353.09862627
 C     30  14  13     2.609536633043    14.68948582   353.70041132
 N     34  33  32     2.556154803934   120.85575621     0.19603406
 C     37  14  29     2.654530526499   126.01551127   180.90772073
 C     15  14  13     2.582293994346    81.61824056   183.09049352
 C      2   1   3     8.029564866989   147.10807365   160.15489446
 C     41  15  14     2.758391104639   111.05201287   175.08990246
 C     42   2   1     4.559821839776    41.78584867   209.04927586
 C     44  42   2     2.652129475853    87.95153797   233.97558675
 C     45  44  42     2.611027836043   120.11137308     0.19721020
 C     42   2   1     4.629866436820   135.97209175   119.36412497
 C     43  41  15     2.559561325344   106.26758155     0.30894352
 C     15  14  13     2.584127074516   171.87382904   332.35056460
 C     42   2   1     2.611386828803    32.59078432   257.90455506
 C      9   2   1     2.655043698059   126.98745415   168.92955897
 N     42   2   1     2.556355970587   113.57249190   147.10071416
 H      1   2   3     2.047606122967   136.73871662   221.64602345
 H      2   1   3     2.040730117440   121.91233398   208.49664778
 H      4   3   1     2.046263659940   121.05184673   179.58214443
 H      5   4   3     2.045949506376   122.81665511   179.47153376
 H      6   5   4     2.064383742638   104.42153487   100.11933437
 H      6   5   4     2.058475650439    84.67167150   209.55403658
 H      6   5   4     2.058239702709   133.89298279   322.47654305
 H      7   2  54     2.040541119952   126.66122480     1.30600390
 H     10   1   2     2.049067961436   118.74686700   234.81822912
 H     12   9   2     1.920524309565   125.29023241   180.00180175
 H     14  13  12     1.917952867083    44.97226959   359.42596618
 H     18  14  13     2.046330847636   128.03556573   234.20482432
 H     19  17  13     2.042592906181   126.41830519   178.11313280
 H     21  20  18     2.047649722989   121.05669627   180.67006309
 H     22  21  20     2.045596898814   122.73097286   180.59748951
 H     23  18  14     2.063779938267   103.92715769   234.93429879
 H     23  18  14     2.057669673245   134.19244188    12.25587044
 H     23  18  14     2.059486796529    84.85857450   125.45241208
 H     24  19  17     2.041046823986   127.28078426   178.44613241
 H     26  18  14     2.047344503340   118.76995697   244.94906660
 H     30  14  13     2.046012340948   127.99711412   279.66882698
 H     31  29  14     2.040450114918   125.22293469   180.92530585
 H     33  32  30     2.046930203877   121.01964473   180.74284758
 H     34  33  32     2.045617847496   122.70821597   180.59516895
 H     35  34  33     2.064814429233   105.73575241    97.19771933
 H     35  34  33     2.058786158072    84.05943581   206.43036958
 H     35  34  33     2.058418400901   133.08365142   318.50306270
 H     36  31  29     2.039845353366   126.61599965   178.98859863
 H     38  30  73     2.047975821711   118.77264435   359.90091293
 H     42   2   1     2.045020725966   119.31790784     3.73224461
 H     43  41  15     2.041436952892   126.36969097   182.06329380
 H     45  44  42     2.047097678177   121.10105945   179.58025624
 H     46  45  44     2.045051284662   122.72144639   179.46906377
 H     47  42   2     2.062723288131   106.65128841   315.16475048
 H     47  42   2     2.057569012371   132.46019523    94.52397119
 H     47  42   2     2.058915377895    83.63838232   206.04504406
 H     48  43  41     2.041664347903   127.23657387   181.62955349
 H     50  42   2     2.046925842384   118.77001737    94.71359229

---------------------
BASIS SET INFORMATION
---------------------
There are 3 groups of distinct atoms

 Group   1 Type C   : 17s4p1d contracted to 3s2p1d pattern {881/31/1}
 Group   2 Type N   : 17s4p1d contracted to 3s2p1d pattern {881/31/1}
 Group   3 Type H   : 4s1p contracted to 2s1p pattern {31/1}

Atom   0C    basis set group =>   1
Atom   1N    basis set group =>   2
Atom   2C    basis set group =>   1
Atom   3N    basis set group =>   2
Atom   4C    basis set group =>   1
Atom   5N    basis set group =>   2
Atom   6C    basis set group =>   1
Atom   7N    basis set group =>   2
Atom   8C    basis set group =>   1
Atom   9N    basis set group =>   2
Atom  10C    basis set group =>   1
Atom  11N    basis set group =>   2
Atom  12C    basis set group =>   1
Atom  13N    basis set group =>   2
Atom  14C    basis set group =>   1
Atom  15N    basis set group =>   2
Atom  16C    basis set group =>   1
Atom  17C    basis set group =>   1
Atom  18C    basis set group =>   1
Atom  19C    basis set group =>   1
Atom  20C    basis set group =>   1
Atom  21C    basis set group =>   1
Atom  22C    basis set group =>   1
Atom  23C    basis set group =>   1
Atom  24C    basis set group =>   1
Atom  25C    basis set group =>   1
Atom  26C    basis set group =>   1
Atom  27C    basis set group =>   1
Atom  28C    basis set group =>   1
Atom  29C    basis set group =>   1
Atom  30C    basis set group =>   1
Atom  31C    basis set group =>   1
Atom  32C    basis set group =>   1
Atom  33C    basis set group =>   1
Atom  34C    basis set group =>   1
Atom  35C    basis set group =>   1
Atom  36C    basis set group =>   1
Atom  37C    basis set group =>   1
Atom  38C    basis set group =>   1
Atom  39C    basis set group =>   1
Atom  40C    basis set group =>   1
Atom  41C    basis set group =>   1
Atom  42C    basis set group =>   1
Atom  43C    basis set group =>   1
Atom  44C    basis set group =>   1
Atom  45C    basis set group =>   1
Atom  46C    basis set group =>   1
Atom  47C    basis set group =>   1
Atom  48C    basis set group =>   1
Atom  49C    basis set group =>   1
Atom  50C    basis set group =>   1
Atom  51C    basis set group =>   1
Atom  52H    basis set group =>   3
Atom  53H    basis set group =>   3
Atom  54H    basis set group =>   3
Atom  55H    basis set group =>   3
Atom  56H    basis set group =>   3
Atom  57H    basis set group =>   3
Atom  58H    basis set group =>   3
Atom  59H    basis set group =>   3
Atom  60H    basis set group =>   3
Atom  61H    basis set group =>   3
Atom  62H    basis set group =>   3
Atom  63H    basis set group =>   3
Atom  64H    basis set group =>   3
Atom  65H    basis set group =>   3
Atom  66H    basis set group =>   3
Atom  67H    basis set group =>   3
Atom  68H    basis set group =>   3
Atom  69H    basis set group =>   3
Atom  70H    basis set group =>   3
Atom  71H    basis set group =>   3
Atom  72H    basis set group =>   3
Atom  73H    basis set group =>   3
Atom  74H    basis set group =>   3
Atom  75H    basis set group =>   3
Atom  76H    basis set group =>   3
Atom  77H    basis set group =>   3
Atom  78H    basis set group =>   3
Atom  79H    basis set group =>   3
Atom  80H    basis set group =>   3
Atom  81H    basis set group =>   3
Atom  82H    basis set group =>   3
Atom  83H    basis set group =>   3
Atom  84H    basis set group =>   3
Atom  85H    basis set group =>   3
Atom  86H    basis set group =>   3
Atom  87H    basis set group =>   3
Atom  88H    basis set group =>   3
Atom  89H    basis set group =>   3


           ************************************************************
           *        Program running with 16 parallel MPI-processes    *
           *              working on a common directory               *
           ************************************************************
------------------------------------------------------------------------------
                           ORCA GTO INTEGRAL CALCULATION
------------------------------------------------------------------------------
------------------------------------------------------------------------------
                   ___                                                        
                  /   \      - P O W E R E D   B Y -                         
                 /     \                                                     
                 |  |  |   _    _      __       _____    __    __             
                 |  |  |  | |  | |    /  \     |  _  \  |  |  /  |          
                  \  \/   | |  | |   /    \    | | | |  |  | /  /          
                 / \  \   | |__| |  /  /\  \   | |_| |  |  |/  /          
                |  |  |   |  __  | /  /__\  \  |    /   |      \           
                |  |  |   | |  | | |   __   |  |    \   |  |\   \          
                \     /   | |  | | |  |  |  |  | |\  \  |  | \   \       
                 \___/    |_|  |_| |__|  |__|  |_| \__\ |__|  \__/        
                                                                              
                      - O R C A' S   B I G   F R I E N D -                    
                                      &                                       
                       - I N T E G R A L  F E E D E R -                       
                                                                              
 v1 FN, 2020, v2 2021                                                         
------------------------------------------------------------------------------


Reading SHARK input file /scratch/allen/tmpyp4_amber_gaff2/conf1/conf1/Conf111.orca.SHARKINP.tmp ... ok
----------------------
SHARK INTEGRAL PACKAGE
----------------------

Number of atoms                             ...     90
Number of basis functions                   ...   1230
Number of shells                            ...    738
Maximum angular momentum                    ...      2
Integral batch strategy                     ... SHARK/LIBINT Hybrid
RI-J (if used) integral strategy            ... SPLIT-RIJ (Revised 2003 algorithm where possible)
Printlevel                                  ...      1
Contraction scheme used                     ... PARTIAL GENERAL contraction
Coulomb Range Separation                    ... NOT USED
Exchange Range Separation                   ... NOT USED
Finite Nucleus Model                        ... NOT USED
Auxiliary Coulomb fitting basis             ... NOT available
Auxiliary J/K fitting basis                 ... NOT available
Auxiliary Correlation fitting basis         ... NOT available
Auxiliary 'external' fitting basis          ... NOT available
Integral threshold                          ...     2.500000e-11
Primitive cut-off                           ...     2.500000e-12
Primitive pair pre-selection threshold      ...     2.500000e-12

Calculating pre-screening integrals         ... done (  0.1 sec) Dimension = 738
Calculating pre-screening integrals (ORCA)  ... done (  0.3 sec) Dimension = 426
Organizing shell pair data                  ... done (  0.8 sec)
Shell pair information
Total number of shell pairs                 ...    272691
Shell pairs after pre-screening             ...     71570
Total number of primitive shell pairs       ...    422091
Primitive shell pairs kept                  ...     92336
          la=0 lb=0:  29400 shell pairs
          la=1 lb=0:  25954 shell pairs
          la=1 lb=1:   4684 shell pairs
          la=2 lb=0:   7877 shell pairs
          la=2 lb=1:   3124 shell pairs
          la=2 lb=2:    531 shell pairs

Calculating one electron integrals          ... done (  0.3 sec)
Calculating Nuclear repulsion               ... done (  0.0 sec) ENN=   6222.989149900734 Eh

SHARK setup successfully completed in   2.3 seconds

Maximum memory used throughout the entire GTOINT-calculation: 98.9 MB


           ************************************************************
           *        Program running with 16 parallel MPI-processes    *
           *              working on a common directory               *
           ************************************************************
-------------------------------------------------------------------------------
                                 ORCA SCF
-------------------------------------------------------------------------------

------------
SCF SETTINGS
------------
Hamiltonian:
 Ab initio Hamiltonian  Method          .... Hartree-Fock(GTOs)


General Settings:
 Integral files         IntName         .... /scratch/allen/tmpyp4_amber_gaff2/conf1/conf1/Conf111.orca
 Hartree-Fock type      HFTyp           .... RHF
 Total Charge           Charge          ....    0
 Multiplicity           Mult            ....    1
 Number of Electrons    NEL             ....  358
 Basis Dimension        Dim             ....  918
 Nuclear Repulsion      ENuc            ....   6222.9891499007 Eh

Convergence Acceleration:
 DIIS                   CNVDIIS         .... on
   Start iteration      DIISMaxIt       ....    12
   Startup error        DIISStart       ....  0.200000
   # of expansion vecs  DIISMaxEq       ....     5
   Bias factor          DIISBfac        ....   1.050
   Max. coefficient     DIISMaxC        ....  10.000
 Trust-Rad. Augm. Hess. CNVTRAH         .... auto
   Auto Start mean grad. ratio tolernc. ....  1.125000
   Auto Start start iteration           ....    20
   Auto Start num. interpolation iter.  ....    10
   Max. Number of Micro iterations      ....    16
   Max. Number of Macro iterations      .... Maxiter - #DIIS iter
   Number of Davidson start vectors     ....     2
   Converg. threshold I  (grad. norm)   ....   1.000e-05
   Converg. threshold II (energy diff.) ....   1.000e-08
   Grad. Scal. Fac. for Micro threshold ....   0.100
   Minimum threshold for Micro iter.    ....   0.010
   NR start threshold (gradient norm)   ....   0.001
   Initial trust radius                 ....   0.400
   Minimum AH scaling param. (alpha)    ....   1.000
   Maximum AH scaling param. (alpha)    .... 1000.000
   Orbital update algorithm             .... Taylor
   White noise on init. David. guess    .... on
   Maximum white noise                  ....   0.010
   Quad. conv. algorithm                .... NR
 SOSCF                  CNVSOSCF        .... on
   Start iteration      SOSCFMaxIt      ....   150
   Startup grad/error   SOSCFStart      ....  0.003300
 Level Shifting         CNVShift        .... on
   Level shift para.    LevelShift      ....    0.2500
   Turn off err/grad.   ShiftErr        ....    0.0010
 Zerner damping         CNVZerner       .... off
 Static damping         CNVDamp         .... on
   Fraction old density DampFac         ....    0.7000
   Max. Damping (<1)    DampMax         ....    0.9800
   Min. Damping (>=0)   DampMin         ....    0.0000
   Turn off err/grad.   DampErr         ....    0.1000
 Fernandez-Rico         CNVRico         .... off

SCF Procedure:
 Maximum # iterations   MaxIter         ....   125
 SCF integral mode      SCFMode         .... Direct
   Integral package                     .... SHARK and LIBINT hybrid scheme
 Reset frequency        DirectResetFreq ....    20
 Integral Threshold     Thresh          ....  2.500e-11 Eh
 Primitive CutOff       TCut            ....  2.500e-12 Eh

Convergence Tolerance:
 Convergence Check Mode ConvCheckMode   .... Total+1el-Energy
 Convergence forced     ConvForced      .... 1
 Energy Change          TolE            ....  1.000e-08 Eh
 1-El. energy change                    ....  1.000e-05 Eh
 Orbital Gradient       TolG            ....  1.000e-05
 Orbital Rotation angle TolX            ....  1.000e-05
 DIIS Error             TolErr          ....  5.000e-07


Diagonalization of the overlap matrix:
Smallest eigenvalue                        ... 2.261e-04
Time for diagonalization                   ...    0.406 sec
Threshold for overlap eigenvalues          ... 1.000e-08
Number of eigenvalues below threshold      ... 0
Time for construction of square roots      ...    0.252 sec
Total time needed                          ...    0.664 sec

Time for model grid setup =    1.063 sec

------------------------------
INITIAL GUESS: MODEL POTENTIAL
------------------------------
Loading Hartree-Fock densities                     ... done
Calculating cut-offs                               ... done
Initializing the effective Hamiltonian             ... done
Setting up the integral package (SHARK)            ... done
Starting the Coulomb interaction                   ... done (   1.2 sec)
Reading the grid                                   ... done
Mapping shells                                     ... done
Starting the XC term evaluation                    ... done (   0.2 sec)
Transforming the Hamiltonian                       ... done (   0.2 sec)
Diagonalizing the Hamiltonian                      ... done (   0.3 sec)
Back transforming the eigenvectors                 ... done (   0.1 sec)
Now organizing SCF variables                       ... done
                      ------------------
                      INITIAL GUESS DONE (   3.1 sec)
                      ------------------
--------------
SCF ITERATIONS
--------------
ITER       Energy         Delta-E        Max-DP      RMS-DP      [F,P]     Damp
               ***  Starting incremental Fock matrix formation  ***
  0  -2121.6570262601   0.000000000000 0.06921279  0.00121076  0.2340461 0.7000
  1  -2122.3252180290  -0.668191768862 0.05256159  0.00098142  0.1447369 0.7000
                               ***Turning on DIIS***
  2  -2122.7404327403  -0.415214711295 0.11663447  0.00222080  0.0804132 0.0000
  3  -2117.6905566294   5.049876110843 0.03257671  0.00068642  0.0444379 0.0000
  4  -2123.4033621494  -5.712805520025 0.00888057  0.00022952  0.0070403 0.0000
  5  -2123.5860176612  -0.182655511786 0.00512612  0.00013672  0.0049793 0.0000
  6  -2123.5680518939   0.017965767327 0.00341324  0.00009042  0.0020557 0.0000
  7  -2123.6736993567  -0.105647462811 0.00293146  0.00007323  0.0015511 0.0000
  8  -2123.6984878913  -0.024788534633 0.00280647  0.00007122  0.0014391 0.0000
  9  -2123.6595107209   0.038977170399 0.00234817  0.00004998  0.0011206 0.0000
 10  -2123.6789463548  -0.019435633847 0.00539283  0.00010576  0.0008410 0.0000
                      *** Initiating the SOSCF procedure ***
                           *** Shutting down DIIS ***
                      *** Re-Reading the Fockian *** 
                      *** Removing any level shift *** 
ITER      Energy       Delta-E        Grad      Rot      Max-DP    RMS-DP
 11  -2123.53733092   0.1416154337  0.000308  0.000308  0.000279  0.000007
               *** Restarting incremental Fock matrix formation ***
 12  -2123.61784803  -0.0805171112  0.000995  0.006881  0.001240  0.000033
 13  -2123.61794318  -0.0000951481  0.001134  0.028695  0.005474  0.000110
 14  -2123.61807248  -0.0001292955  0.000428  0.001981  0.000573  0.000012
 15  -2123.61808952  -0.0000170434  0.000319  0.006049  0.000875  0.000022
 16  -2123.61810217  -0.0000126503  0.000168  0.006489  0.001098  0.000024
 17  -2123.61811239  -0.0000102228  0.000276  0.009233  0.001093  0.000028
 18  -2123.61812143  -0.0000090362  0.000167  0.008598  0.000984  0.000027
 19  -2123.61812809  -0.0000066596  0.000174  0.003569  0.000537  0.000011
 20  -2123.61813041  -0.0000023257  0.000071  0.001359  0.000291  0.000006
 21  -2123.61813123  -0.0000008160  0.000071  0.000613  0.000147  0.000003
 22  -2123.61813175  -0.0000005248  0.000039  0.000690  0.000196  0.000003
 23  -2123.61813209  -0.0000003356  0.000031  0.000959  0.000175  0.000003
 24  -2123.61813225  -0.0000001613  0.000015  0.000550  0.000088  0.000002
 25  -2123.61813232  -0.0000000723  0.000016  0.000330  0.000066  0.000001
 26  -2123.61813237  -0.0000000498  0.000014  0.000355  0.000051  0.000001
 27  -2123.61813240  -0.0000000249  0.000009  0.000327  0.000041  0.000001
 28  -2123.61813242  -0.0000000167  0.000005  0.000225  0.000029  0.000001
 29  -2123.61813243  -0.0000000125  0.000004  0.000079  0.000016  0.000000
                  ***Gradient check signals convergence***
              ***Rediagonalizing the Fockian in SOSCF/NRSCF***

               *****************************************************
               *                     SUCCESS                       *
               *           SCF CONVERGED AFTER  30 CYCLES          *
               *****************************************************


----------------
TOTAL SCF ENERGY
----------------

Total Energy       :        -2123.61813243 Eh          -57786.58720 eV

Components:
Nuclear Repulsion  :         6222.98914990 Eh          169336.14365 eV
Electronic Energy  :        -8346.60728233 Eh         -227122.73085 eV
One Electron Energy:       -15287.35115354 Eh         -415989.97341 eV
Two Electron Energy:         6940.74387120 Eh          188867.24256 eV

Virial components:
Potential Energy   :        -4245.60050025 Eh         -115528.66298 eV
Kinetic Energy     :         2121.98236782 Eh           57742.07578 eV
Virial Ratio       :            2.00077087


---------------
SCF CONVERGENCE
---------------

  Last Energy change         ...   -2.0045e-09  Tolerance :   1.0000e-08
  Last MAX-Density change    ...    6.7345e-06  Tolerance :   1.0000e-07
  Last RMS-Density change    ...    1.6616e-07  Tolerance :   5.0000e-09
  Last Orbital Gradient      ...    2.0973e-06  Tolerance :   1.0000e-05
  Last Orbital Rotation      ...    4.1393e-05  Tolerance :   1.0000e-05

             **** THE GBW FILE WAS UPDATED (/scratch/allen/tmpyp4_amber_gaff2/conf1/conf1/Conf111.orca.gbw) ****
             **** DENSITY /scratch/allen/tmpyp4_amber_gaff2/conf1/conf1/Conf111.orca.scfp WAS UPDATED ****
             **** ENERGY FILE WAS UPDATED (/scratch/allen/tmpyp4_amber_gaff2/conf1/conf1/Conf111.orca.en.tmp) ****
             **** THE GBW FILE WAS UPDATED (/scratch/allen/tmpyp4_amber_gaff2/conf1/conf1/Conf111.orca.gbw) ****
             **** DENSITY /scratch/allen/tmpyp4_amber_gaff2/conf1/conf1/Conf111.orca.scfp WAS UPDATED ****
----------------
ORBITAL ENERGIES
----------------

  NO   OCC          E(Eh)            E(eV) 
   0   2.0000     -15.659184      -426.1081 
   1   2.0000     -15.638967      -425.5579 
   2   2.0000     -15.625934      -425.2033 
   3   2.0000     -15.612282      -424.8318 
   4   2.0000     -15.516634      -422.2291 
   5   2.0000     -15.512994      -422.1300 
   6   2.0000     -15.446664      -420.3251 
   7   2.0000     -15.436513      -420.0489 
   8   2.0000     -11.314525      -307.8839 
   9   2.0000     -11.310830      -307.7833 
  10   2.0000     -11.309648      -307.7512 
  11   2.0000     -11.302430      -307.5548 
  12   2.0000     -11.295990      -307.3795 
  13   2.0000     -11.294092      -307.3279 
  14   2.0000     -11.292270      -307.2783 
  15   2.0000     -11.285812      -307.1026 
  16   2.0000     -11.284751      -307.0737 
  17   2.0000     -11.281080      -306.9738 
  18   2.0000     -11.273397      -306.7647 
  19   2.0000     -11.270118      -306.6755 
  20   2.0000     -11.260172      -306.4049 
  21   2.0000     -11.247779      -306.0676 
  22   2.0000     -11.247409      -306.0576 
  23   2.0000     -11.242258      -305.9174 
  24   2.0000     -11.234005      -305.6928 
  25   2.0000     -11.233233      -305.6718 
  26   2.0000     -11.230092      -305.5863 
  27   2.0000     -11.224099      -305.4233 
  28   2.0000     -11.223977      -305.4199 
  29   2.0000     -11.217874      -305.2539 
  30   2.0000     -11.214638      -305.1658 
  31   2.0000     -11.213815      -305.1434 
  32   2.0000     -11.199471      -304.7531 
  33   2.0000     -11.199398      -304.7511 
  34   2.0000     -11.192208      -304.5555 
  35   2.0000     -11.192070      -304.5517 
  36   2.0000     -11.179564      -304.2114 
  37   2.0000     -11.179526      -304.2104 
  38   2.0000     -11.176428      -304.1261 
  39   2.0000     -11.169973      -303.9504 
  40   2.0000     -11.163656      -303.7785 
  41   2.0000     -11.161337      -303.7154 
  42   2.0000     -11.159708      -303.6711 
  43   2.0000     -11.159384      -303.6623 
  44   2.0000     -11.157260      -303.6045 
  45   2.0000     -11.156424      -303.5817 
  46   2.0000     -11.152506      -303.4751 
  47   2.0000     -11.152071      -303.4633 
  48   2.0000     -11.149487      -303.3930 
  49   2.0000     -11.147709      -303.3446 
  50   2.0000     -11.130841      -302.8856 
  51   2.0000     -11.128827      -302.8308 
  52   2.0000      -1.342200       -36.5231 
  53   2.0000      -1.325470       -36.0679 
  54   2.0000      -1.313974       -35.7551 
  55   2.0000      -1.302603       -35.4456 
  56   2.0000      -1.216484       -33.1022 
  57   2.0000      -1.210280       -32.9334 
  58   2.0000      -1.165721       -31.7209 
  59   2.0000      -1.149254       -31.2728 
  60   2.0000      -1.127053       -30.6687 
  61   2.0000      -1.113012       -30.2866 
  62   2.0000      -1.103330       -30.0231 
  63   2.0000      -1.092818       -29.7371 
  64   2.0000      -1.064688       -28.9716 
  65   2.0000      -1.049239       -28.5513 
  66   2.0000      -1.038533       -28.2599 
  67   2.0000      -1.029596       -28.0167 
  68   2.0000      -1.028070       -27.9752 
  69   2.0000      -1.012998       -27.5651 
  70   2.0000      -1.006265       -27.3819 
  71   2.0000      -0.994060       -27.0497 
  72   2.0000      -0.981200       -26.6998 
  73   2.0000      -0.974454       -26.5162 
  74   2.0000      -0.971351       -26.4318 
  75   2.0000      -0.960532       -26.1374 
  76   2.0000      -0.948669       -25.8146 
  77   2.0000      -0.948225       -25.8025 
  78   2.0000      -0.931569       -25.3493 
  79   2.0000      -0.921599       -25.0780 
  80   2.0000      -0.893911       -24.3245 
  81   2.0000      -0.887300       -24.1446 
  82   2.0000      -0.875973       -23.8364 
  83   2.0000      -0.865833       -23.5605 
  84   2.0000      -0.861394       -23.4397 
  85   2.0000      -0.856575       -23.3086 
  86   2.0000      -0.851392       -23.1675 
  87   2.0000      -0.836361       -22.7586 
  88   2.0000      -0.822275       -22.3752 
  89   2.0000      -0.797003       -21.6875 
  90   2.0000      -0.795594       -21.6492 
  91   2.0000      -0.741587       -20.1796 
  92   2.0000      -0.732296       -19.9268 
  93   2.0000      -0.726893       -19.7798 
  94   2.0000      -0.722953       -19.6726 
  95   2.0000      -0.716097       -19.4860 
  96   2.0000      -0.710073       -19.3221 
  97   2.0000      -0.705879       -19.2079 
  98   2.0000      -0.699414       -19.0320 
  99   2.0000      -0.692417       -18.8416 
 100   2.0000      -0.690808       -18.7979 
 101   2.0000      -0.682254       -18.5651 
 102   2.0000      -0.679746       -18.4968 
 103   2.0000      -0.672048       -18.2874 
 104   2.0000      -0.670447       -18.2438 
 105   2.0000      -0.668759       -18.1979 
 106   2.0000      -0.662498       -18.0275 
 107   2.0000      -0.660636       -17.9768 
 108   2.0000      -0.657072       -17.8798 
 109   2.0000      -0.656190       -17.8558 
 110   2.0000      -0.650424       -17.6989 
 111   2.0000      -0.647535       -17.6203 
 112   2.0000      -0.643876       -17.5208 
 113   2.0000      -0.638226       -17.3670 
 114   2.0000      -0.632829       -17.2202 
 115   2.0000      -0.630149       -17.1472 
 116   2.0000      -0.622942       -16.9511 
 117   2.0000      -0.616330       -16.7712 
 118   2.0000      -0.613435       -16.6924 
 119   2.0000      -0.608146       -16.5485 
 120   2.0000      -0.606155       -16.4943 
 121   2.0000      -0.598890       -16.2966 
 122   2.0000      -0.597553       -16.2602 
 123   2.0000      -0.596170       -16.2226 
 124   2.0000      -0.592333       -16.1182 
 125   2.0000      -0.584693       -15.9103 
 126   2.0000      -0.576290       -15.6816 
 127   2.0000      -0.570702       -15.5296 
 128   2.0000      -0.567679       -15.4473 
 129   2.0000      -0.562914       -15.3177 
 130   2.0000      -0.555272       -15.1097 
 131   2.0000      -0.548211       -14.9176 
 132   2.0000      -0.540374       -14.7043 
 133   2.0000      -0.534138       -14.5346 
 134   2.0000      -0.531759       -14.4699 
 135   2.0000      -0.530556       -14.4372 
 136   2.0000      -0.524956       -14.2848 
 137   2.0000      -0.522011       -14.2046 
 138   2.0000      -0.518857       -14.1188 
 139   2.0000      -0.514644       -14.0042 
 140   2.0000      -0.508983       -13.8501 
 141   2.0000      -0.505860       -13.7652 
 142   2.0000      -0.502275       -13.6676 
 143   2.0000      -0.499524       -13.5927 
 144   2.0000      -0.498691       -13.5701 
 145   2.0000      -0.496162       -13.5013 
 146   2.0000      -0.493447       -13.4274 
 147   2.0000      -0.492258       -13.3950 
 148   2.0000      -0.486929       -13.2500 
 149   2.0000      -0.466120       -12.6838 
 150   2.0000      -0.460809       -12.5393 
 151   2.0000      -0.453041       -12.3279 
 152   2.0000      -0.448080       -12.1929 
 153   2.0000      -0.443000       -12.0546 
 154   2.0000      -0.441221       -12.0062 
 155   2.0000      -0.440246       -11.9797 
 156   2.0000      -0.431942       -11.7538 
 157   2.0000      -0.424882       -11.5616 
 158   2.0000      -0.392465       -10.6795 
 159   2.0000      -0.385192       -10.4816 
 160   2.0000      -0.373994       -10.1769 
 161   2.0000      -0.372428       -10.1343 
 162   2.0000      -0.367521       -10.0008 
 163   2.0000      -0.359615        -9.7856 
 164   2.0000      -0.350454        -9.5363 
 165   2.0000      -0.341764        -9.2999 
 166   2.0000      -0.338246        -9.2041 
 167   2.0000      -0.334885        -9.1127 
 168   2.0000      -0.322443        -8.7741 
 169   2.0000      -0.299876        -8.1601 
 170   2.0000      -0.294433        -8.0119 
 171   2.0000      -0.287431        -7.8214 
 172   2.0000      -0.285783        -7.7765 
 173   2.0000      -0.258413        -7.0318 
 174   2.0000      -0.241355        -6.5676 
 175   2.0000      -0.186156        -5.0656 
 176   2.0000      -0.175819        -4.7843 
 177   2.0000      -0.063001        -1.7143 
 178   2.0000      -0.052593        -1.4311 
 179   0.0000       0.032971         0.8972 
 180   0.0000       0.067245         1.8298 
 181   0.0000       0.092232         2.5097 
 182   0.0000       0.095892         2.6094 
 183   0.0000       0.121089         3.2950 
 184   0.0000       0.134486         3.6595 
 185   0.0000       0.144143         3.9223 
 186   0.0000       0.152503         4.1498 
 187   0.0000       0.153694         4.1822 
 188   0.0000       0.161920         4.4061 
 189   0.0000       0.162557         4.4234 
 190   0.0000       0.169564         4.6141 
 191   0.0000       0.176579         4.8050 
 192   0.0000       0.191755         5.2179 
 193   0.0000       0.195682         5.3248 
 194   0.0000       0.201722         5.4891 
 195   0.0000       0.206460         5.6181 
 196   0.0000       0.209499         5.7008 
 197   0.0000       0.213293         5.8040 
 198   0.0000       0.216943         5.9033 
 199   0.0000       0.220173         5.9912 
 200   0.0000       0.227613         6.1937 
 201   0.0000       0.237083         6.4514 
 202   0.0000       0.243629         6.6295 
 203   0.0000       0.245145         6.6707 
 204   0.0000       0.250210         6.8086 
 205   0.0000       0.252958         6.8833 
 206   0.0000       0.255171         6.9436 
 207   0.0000       0.261229         7.1084 
 208   0.0000       0.263563         7.1719 
 209   0.0000       0.265022         7.2116 
 210   0.0000       0.265855         7.2343 
 211   0.0000       0.268755         7.3132 
 212   0.0000       0.271319         7.3830 
 213   0.0000       0.273950         7.4545 
 214   0.0000       0.276333         7.5194 
 215   0.0000       0.279528         7.6063 
 216   0.0000       0.281233         7.6527 
 217   0.0000       0.283147         7.7048 
 218   0.0000       0.283961         7.7270 
 219   0.0000       0.287919         7.8347 
 220   0.0000       0.289504         7.8778 
 221   0.0000       0.292180         7.9506 
 222   0.0000       0.294187         8.0052 
 223   0.0000       0.295850         8.0505 
 224   0.0000       0.298810         8.1310 
 225   0.0000       0.302045         8.2191 
 226   0.0000       0.302971         8.2443 
 227   0.0000       0.305669         8.3177 
 228   0.0000       0.307920         8.3789 
 229   0.0000       0.310725         8.4553 
 230   0.0000       0.315329         8.5805 
 231   0.0000       0.318051         8.6546 
 232   0.0000       0.324914         8.8414 
 233   0.0000       0.327935         8.9236 
 234   0.0000       0.332452         9.0465 
 235   0.0000       0.341696         9.2980 
 236   0.0000       0.357848         9.7375 
 237   0.0000       0.378691        10.3047 
 238   0.0000       0.396804        10.7976 
 239   0.0000       0.399312        10.8658 
 240   0.0000       0.403619        10.9830 
 241   0.0000       0.412365        11.2210 
 242   0.0000       0.417321        11.3559 
 243   0.0000       0.422717        11.5027 
 244   0.0000       0.425486        11.5781 
 245   0.0000       0.431367        11.7381 
 246   0.0000       0.433634        11.7998 
 247   0.0000       0.437813        11.9135 
 248   0.0000       0.442505        12.0412 
 249   0.0000       0.446098        12.1389 
 250   0.0000       0.448180        12.1956 
 251   0.0000       0.454279        12.3615 
 252   0.0000       0.455520        12.3953 
 253   0.0000       0.459507        12.5038 
 254   0.0000       0.469713        12.7815 
 255   0.0000       0.477142        12.9837 
 256   0.0000       0.483927        13.1683 
 257   0.0000       0.486682        13.2433 
 258   0.0000       0.490845        13.3566 
 259   0.0000       0.492405        13.3990 
 260   0.0000       0.499086        13.5808 
 261   0.0000       0.503210        13.6930 
 262   0.0000       0.506580        13.7848 
 263   0.0000       0.510563        13.8931 
 264   0.0000       0.511840        13.9279 
 265   0.0000       0.516291        14.0490 
 266   0.0000       0.519303        14.1310 
 267   0.0000       0.523367        14.2415 
 268   0.0000       0.534959        14.5570 
 269   0.0000       0.538508        14.6535 
 270   0.0000       0.543173        14.7805 
 271   0.0000       0.543484        14.7890 
 272   0.0000       0.545594        14.8464 
 273   0.0000       0.552298        15.0288 
 274   0.0000       0.562830        15.3154 
 275   0.0000       0.564762        15.3680 
 276   0.0000       0.576165        15.6782 
 277   0.0000       0.576814        15.6959 
 278   0.0000       0.577109        15.7039 
 279   0.0000       0.580838        15.8054 
 280   0.0000       0.586576        15.9615 
 281   0.0000       0.590373        16.0649 
 282   0.0000       0.593133        16.1400 
 283   0.0000       0.597194        16.2505 
 284   0.0000       0.601106        16.3569 
 285   0.0000       0.601301        16.3622 
 286   0.0000       0.606581        16.5059 
 287   0.0000       0.610180        16.6038 
 288   0.0000       0.612556        16.6685 
 289   0.0000       0.616333        16.7713 
 290   0.0000       0.619057        16.8454 
 291   0.0000       0.628331        17.0978 
 292   0.0000       0.633111        17.2278 
 293   0.0000       0.638456        17.3733 
 294   0.0000       0.645654        17.5692 
 295   0.0000       0.650307        17.6958 
 296   0.0000       0.651172        17.7193 
 297   0.0000       0.660334        17.9686 
 298   0.0000       0.663952        18.0670 
 299   0.0000       0.666603        18.1392 
 300   0.0000       0.668258        18.1842 
 301   0.0000       0.674188        18.3456 
 302   0.0000       0.675144        18.3716 
 303   0.0000       0.682414        18.5694 
 304   0.0000       0.684032        18.6135 
 305   0.0000       0.685097        18.6424 
 306   0.0000       0.687587        18.7102 
 307   0.0000       0.689946        18.7744 
 308   0.0000       0.696596        18.9553 
 309   0.0000       0.699539        19.0354 
 310   0.0000       0.700239        19.0545 
 311   0.0000       0.704287        19.1646 
 312   0.0000       0.708436        19.2775 
 313   0.0000       0.709741        19.3130 
 314   0.0000       0.710199        19.3255 
 315   0.0000       0.713721        19.4213 
 316   0.0000       0.718132        19.5414 
 317   0.0000       0.719229        19.5712 
 318   0.0000       0.719818        19.5872 
 319   0.0000       0.722687        19.6653 
 320   0.0000       0.726135        19.7591 
 321   0.0000       0.727342        19.7920 
 322   0.0000       0.732838        19.9415 
 323   0.0000       0.733254        19.9529 
 324   0.0000       0.736539        20.0423 
 325   0.0000       0.739485        20.1224 
 326   0.0000       0.741835        20.1863 
 327   0.0000       0.742298        20.1989 
 328   0.0000       0.747095        20.3295 
 329   0.0000       0.750187        20.4136 
 330   0.0000       0.753718        20.5097 
 331   0.0000       0.755735        20.5646 
 332   0.0000       0.757308        20.6074 
 333   0.0000       0.759715        20.6729 
 334   0.0000       0.766519        20.8580 
 335   0.0000       0.769307        20.9339 
 336   0.0000       0.773392        21.0451 
 337   0.0000       0.778731        21.1903 
 338   0.0000       0.784076        21.3358 
 339   0.0000       0.786726        21.4079 
 340   0.0000       0.790321        21.5057 
 341   0.0000       0.792528        21.5658 
 342   0.0000       0.795525        21.6473 
 343   0.0000       0.798716        21.7342 
 344   0.0000       0.804326        21.8868 
 345   0.0000       0.807056        21.9611 
 346   0.0000       0.808277        21.9943 
 347   0.0000       0.811464        22.0811 
 348   0.0000       0.814988        22.1770 
 349   0.0000       0.816809        22.2265 
 350   0.0000       0.819904        22.3107 
 351   0.0000       0.820316        22.3219 
 352   0.0000       0.826107        22.4795 
 353   0.0000       0.827035        22.5048 
 354   0.0000       0.827510        22.5177 
 355   0.0000       0.829450        22.5705 
 356   0.0000       0.831793        22.6342 
 357   0.0000       0.834783        22.7156 
 358   0.0000       0.835940        22.7471 
 359   0.0000       0.838939        22.8287 
 360   0.0000       0.839783        22.8517 
 361   0.0000       0.841576        22.9004 
 362   0.0000       0.844486        22.9796 
 363   0.0000       0.846750        23.0412 
 364   0.0000       0.849521        23.1167 
 365   0.0000       0.851800        23.1787 
 366   0.0000       0.853563        23.2266 
 367   0.0000       0.854320        23.2472 
 368   0.0000       0.857963        23.3464 
 369   0.0000       0.860631        23.4190 
 370   0.0000       0.863751        23.5039 
 371   0.0000       0.866217        23.5710 
 372   0.0000       0.873750        23.7759 
 373   0.0000       0.876258        23.8442 
 374   0.0000       0.879786        23.9402 
 375   0.0000       0.884021        24.0554 
 376   0.0000       0.885620        24.0989 
 377   0.0000       0.889020        24.1915 
 378   0.0000       0.890321        24.2269 
 379   0.0000       0.894820        24.3493 
 380   0.0000       0.898149        24.4399 
 381   0.0000       0.901281        24.5251 
 382   0.0000       0.903155        24.5761 
 383   0.0000       0.904229        24.6053 
 384   0.0000       0.905890        24.6505 
 385   0.0000       0.907600        24.6970 
 386   0.0000       0.908617        24.7247 
 387   0.0000       0.909498        24.7487 
 388   0.0000       0.914683        24.8898 
 389   0.0000       0.915195        24.9037 
 390   0.0000       0.918526        24.9944 
 391   0.0000       0.920567        25.0499 
 392   0.0000       0.922907        25.1136 
 393   0.0000       0.926043        25.1989 
 394   0.0000       0.926936        25.2232 
 395   0.0000       0.930635        25.3239 
 396   0.0000       0.931510        25.3477 
 397   0.0000       0.934833        25.4381 
 398   0.0000       0.936796        25.4915 
 399   0.0000       0.941896        25.6303 
 400   0.0000       0.944645        25.7051 
 401   0.0000       0.946909        25.7667 
 402   0.0000       0.949587        25.8396 
 403   0.0000       0.952581        25.9210 
 404   0.0000       0.956202        26.0196 
 405   0.0000       0.956783        26.0354 
 406   0.0000       0.959205        26.1013 
 407   0.0000       0.962094        26.1799 
 408   0.0000       0.966576        26.3019 
 409   0.0000       0.969482        26.3809 
 410   0.0000       0.975567        26.5465 
 411   0.0000       0.978021        26.6133 
 412   0.0000       0.984083        26.7783 
 413   0.0000       0.985062        26.8049 
 414   0.0000       0.992360        27.0035 
 415   0.0000       0.993188        27.0260 
 416   0.0000       1.000987        27.2382 
 417   0.0000       1.003553        27.3081 
 418   0.0000       1.009120        27.4595 
 419   0.0000       1.014347        27.6018 
 420   0.0000       1.024127        27.8679 
 421   0.0000       1.029453        28.0128 
 422   0.0000       1.031791        28.0765 
 423   0.0000       1.038164        28.2499 
 424   0.0000       1.043508        28.3953 
 425   0.0000       1.047472        28.5032 
 426   0.0000       1.056471        28.7480 
 427   0.0000       1.062109        28.9014 
 428   0.0000       1.066878        29.0312 
 429   0.0000       1.070036        29.1172 
 430   0.0000       1.078728        29.3537 
 431   0.0000       1.082260        29.4498 
 432   0.0000       1.086908        29.5763 
 433   0.0000       1.090979        29.6870 
 434   0.0000       1.096261        29.8308 
 435   0.0000       1.103157        30.0184 
 436   0.0000       1.107212        30.1288 
 437   0.0000       1.110921        30.2297 
 438   0.0000       1.114726        30.3332 
 439   0.0000       1.117356        30.4048 
 440   0.0000       1.119951        30.4754 
 441   0.0000       1.125835        30.6355 
 442   0.0000       1.128138        30.6982 
 443   0.0000       1.131341        30.7853 
 444   0.0000       1.134560        30.8730 
 445   0.0000       1.135428        30.8966 
 446   0.0000       1.137705        30.9585 
 447   0.0000       1.141295        31.0562 
 448   0.0000       1.142597        31.0916 
 449   0.0000       1.149510        31.2797 
 450   0.0000       1.152376        31.3578 
 451   0.0000       1.153785        31.3961 
 452   0.0000       1.156442        31.4684 
 453   0.0000       1.159650        31.5557 
 454   0.0000       1.160065        31.5670 
 455   0.0000       1.166894        31.7528 
 456   0.0000       1.175418        31.9848 
 457   0.0000       1.178199        32.0604 
 458   0.0000       1.178550        32.0700 
 459   0.0000       1.185087        32.2479 
 460   0.0000       1.185876        32.2693 
 461   0.0000       1.191242        32.4154 
 462   0.0000       1.199315        32.6350 
 463   0.0000       1.207648        32.8618 
 464   0.0000       1.209692        32.9174 
 465   0.0000       1.211668        32.9712 
 466   0.0000       1.214156        33.0389 
 467   0.0000       1.221323        33.2339 
 468   0.0000       1.222218        33.2582 
 469   0.0000       1.227925        33.4135 
 470   0.0000       1.230668        33.4882 
 471   0.0000       1.231854        33.5205 
 472   0.0000       1.238098        33.6904 
 473   0.0000       1.240751        33.7625 
 474   0.0000       1.243451        33.8360 
 475   0.0000       1.249835        34.0097 
 476   0.0000       1.251481        34.0545 
 477   0.0000       1.253253        34.1027 
 478   0.0000       1.255077        34.1524 
 479   0.0000       1.257463        34.2173 
 480   0.0000       1.259555        34.2742 
 481   0.0000       1.263185        34.3730 
 482   0.0000       1.265054        34.4239 
 483   0.0000       1.268235        34.5104 
 484   0.0000       1.270810        34.5805 
 485   0.0000       1.277512        34.7629 
 486   0.0000       1.281063        34.8595 
 487   0.0000       1.283531        34.9267 
 488   0.0000       1.289446        35.0876 
 489   0.0000       1.290898        35.1271 
 490   0.0000       1.293135        35.1880 
 491   0.0000       1.298723        35.3400 
 492   0.0000       1.302460        35.4417 
 493   0.0000       1.307052        35.5667 
 494   0.0000       1.309802        35.6415 
 495   0.0000       1.316088        35.8126 
 496   0.0000       1.318278        35.8722 
 497   0.0000       1.322108        35.9764 
 498   0.0000       1.330939        36.2167 
 499   0.0000       1.331185        36.2234 
 500   0.0000       1.333670        36.2910 
 501   0.0000       1.337328        36.3905 
 502   0.0000       1.340071        36.4652 
 503   0.0000       1.343519        36.5590 
 504   0.0000       1.345157        36.6036 
 505   0.0000       1.351179        36.7674 
[...]
      pz      :     0.021870  p :     0.079424
      px      :     0.043083
      py      :     0.014471
 77 H s       :     0.892270  s :     0.892270
      pz      :     0.047381  p :     0.078618
      px      :     0.015007
      py      :     0.016229
 78 H s       :     0.892696  s :     0.892696
      pz      :     0.025577  p :     0.078539
      px      :     0.020630
      py      :     0.032333
 79 H s       :     0.907985  s :     0.907985
      pz      :     0.022324  p :     0.086979
      px      :     0.021837
      py      :     0.042819
 80 H s       :     0.875212  s :     0.875212
      pz      :     0.038516  p :     0.083654
      px      :     0.029707
      py      :     0.015430
 81 H s       :     0.887637  s :     0.887637
      pz      :     0.037682  p :     0.083605
      px      :     0.016098
      py      :     0.029825
 82 H s       :     0.914801  s :     0.914801
      pz      :     0.022296  p :     0.086985
      px      :     0.031139
      py      :     0.033549
 83 H s       :     0.872235  s :     0.872235
      pz      :     0.039228  p :     0.083856
      px      :     0.015244
      py      :     0.029385
 84 H s       :     0.887660  s :     0.887660
      pz      :     0.035808  p :     0.084016
      px      :     0.031754
      py      :     0.016454
 85 H s       :     0.894546  s :     0.894546
      pz      :     0.022507  p :     0.079678
      px      :     0.014110
      py      :     0.043061
 86 H s       :     0.890604  s :     0.890604
      pz      :     0.024718  p :     0.078886
      px      :     0.033004
      py      :     0.021164
 87 H s       :     0.890494  s :     0.890494
      pz      :     0.047911  p :     0.078667
      px      :     0.015630
      py      :     0.015126
 88 H s       :     0.916279  s :     0.916279
      pz      :     0.022356  p :     0.086907
      px      :     0.042224
      py      :     0.022328
 89 H s       :     0.873177  s :     0.873177
      pz      :     0.037884  p :     0.083984
      px      :     0.030512
      py      :     0.015588


                      *****************************
                      * MAYER POPULATION ANALYSIS *
                      *****************************

  NA   - Mulliken gross atomic population
  ZA   - Total nuclear charge
  QA   - Mulliken gross atomic charge
  VA   - Mayer's total valence
  BVA  - Mayer's bonded valence
  FA   - Mayer's free valence

  ATOM       NA         ZA         QA         VA         BVA        FA
  0 C      5.7843     6.0000     0.2157     3.8190     3.8190     0.0000
  1 N      7.4316     7.0000    -0.4316     3.4090     3.4090     0.0000
  2 C      6.0671     6.0000    -0.0671     3.9173     3.9173    -0.0000
  3 N      7.3406     7.0000    -0.3406     3.4349     3.4349     0.0000
  4 C      6.0846     6.0000    -0.0846     3.9793     3.9793     0.0000
  5 N      7.5636     7.0000    -0.5636     3.0780     3.0780    -0.0000
  6 C      6.0396     6.0000    -0.0396     3.9806     3.9806    -0.0000
  7 N      7.3375     7.0000    -0.3375     3.4430     3.4430    -0.0000
  8 C      5.7875     6.0000     0.2125     3.8185     3.8185     0.0000
  9 N      7.5642     7.0000    -0.5642     3.0879     3.0879     0.0000
 10 C      5.8888     6.0000     0.1112     3.8818     3.8818    -0.0000
 11 N      7.4375     7.0000    -0.4375     3.3843     3.3843    -0.0000
 12 C      6.0624     6.0000    -0.0624     3.9141     3.9141    -0.0000
 13 N      7.4446     7.0000    -0.4446     3.3533     3.3533    -0.0000
 14 C      5.7720     6.0000     0.2280     3.8021     3.8021    -0.0000
 15 N      7.4408     7.0000    -0.4408     3.3699     3.3699     0.0000
 16 C      5.7556     6.0000     0.2444     3.7978     3.7978     0.0000
 17 C      6.0445     6.0000    -0.0445     3.9828     3.9828     0.0000
 18 C      6.1851     6.0000    -0.1851     3.7177     3.7177    -0.0000
 19 C      5.7739     6.0000     0.2261     3.8927     3.8927     0.0000
 20 C      5.7983     6.0000     0.2017     3.8229     3.8229    -0.0000
 21 C      6.0687     6.0000    -0.0687     3.8996     3.8996     0.0000
 22 C      6.0856     6.0000    -0.0856     3.9844     3.9844     0.0000
 23 C      6.0564     6.0000    -0.0564     3.9885     3.9885    -0.0000
 24 C      5.7871     6.0000     0.2129     3.8256     3.8256     0.0000
 25 C      5.8863     6.0000     0.1137     3.8900     3.8900     0.0000
 26 C      6.0719     6.0000    -0.0719     3.9036     3.9036    -0.0000
 27 C      5.7669     6.0000     0.2331     3.8933     3.8933    -0.0000
 28 C      6.0464     6.0000    -0.0464     3.9883     3.9883    -0.0000
 29 C      6.1898     6.0000    -0.1898     3.7302     3.7302    -0.0000
 30 C      5.7708     6.0000     0.2292     3.7874     3.7874    -0.0000
 31 C      5.7987     6.0000     0.2013     3.8304     3.8304     0.0000
 32 C      6.0653     6.0000    -0.0653     3.9155     3.9155    -0.0000
 33 C      6.0908     6.0000    -0.0908     3.9859     3.9859     0.0000
 34 C      6.0498     6.0000    -0.0498     3.9954     3.9954    -0.0000
 35 C      5.8074     6.0000     0.1926     3.8274     3.8274     0.0000
 36 C      5.8829     6.0000     0.1171     3.8997     3.8997     0.0000
 37 C      6.0681     6.0000    -0.0681     3.9166     3.9166    -0.0000
 38 C      5.7593     6.0000     0.2407     3.7981     3.7981    -0.0000
 39 C      6.0635     6.0000    -0.0635     3.9946     3.9946     0.0000
 40 C      6.1951     6.0000    -0.1951     3.7464     3.7464     0.0000
 41 C      5.7820     6.0000     0.2180     3.8778     3.8778     0.0000
 42 C      5.7926     6.0000     0.2074     3.8293     3.8293    -0.0000
 43 C      6.0752     6.0000    -0.0752     3.9045     3.9045     0.0000
 44 C      6.0890     6.0000    -0.0890     3.9850     3.9850     0.0000
 45 C      6.0467     6.0000    -0.0467     3.9936     3.9936    -0.0000
 46 C      5.8037     6.0000     0.1963     3.8234     3.8234     0.0000
 47 C      5.8841     6.0000     0.1159     3.8947     3.8947     0.0000
 48 C      6.0788     6.0000    -0.0788     3.9006     3.9006     0.0000
 49 C      5.7818     6.0000     0.2182     3.8763     3.8763     0.0000
 50 C      6.0583     6.0000    -0.0583     3.9899     3.9899     0.0000
 51 C      6.1903     6.0000    -0.1903     3.7378     3.7378     0.0000
 52 H      0.9353     1.0000     0.0647     0.9842     0.9842     0.0000
 53 H      1.0119     1.0000    -0.0119     1.0004     1.0004    -0.0000
 54 H      0.9472     1.0000     0.0528     1.0062     1.0062    -0.0000
 55 H      0.9363     1.0000     0.0637     0.9848     0.9848     0.0000
 56 H      0.9313     1.0000     0.0687     0.9723     0.9723     0.0000
 57 H      0.9361     1.0000     0.0639     0.9837     0.9837     0.0000
 58 H      0.9374     1.0000     0.0626     0.9867     0.9867     0.0000
 59 H      1.0201     1.0000    -0.0201     0.9974     0.9974    -0.0000
 60 H      0.9487     1.0000     0.0513     1.0079     1.0079    -0.0000
 61 H      0.8257     1.0000     0.1743     1.0430     1.0430    -0.0000
 62 H      0.8290     1.0000     0.1710     1.0434     1.0434    -0.0000
 63 H      0.9436     1.0000     0.0564     0.9857     0.9857     0.0000
 64 H      1.0269     1.0000    -0.0269     0.9941     0.9941     0.0000
 65 H      0.9548     1.0000     0.0452     1.0087     1.0087     0.0000
 66 H      0.9422     1.0000     0.0578     0.9847     0.9847     0.0000
 67 H      0.9378     1.0000     0.0622     0.9719     0.9719    -0.0000
 68 H      0.9420     1.0000     0.0580     0.9866     0.9866     0.0000
 69 H      0.9402     1.0000     0.0598     0.9831     0.9831     0.0000
 70 H      1.0209     1.0000    -0.0209     0.9955     0.9955     0.0000
 71 H      0.9512     1.0000     0.0488     1.0070     1.0070    -0.0000
 72 H      0.9517     1.0000     0.0483     0.9855     0.9855     0.0000
 73 H      1.0169     1.0000    -0.0169     0.9975     0.9975     0.0000
 74 H      0.9607     1.0000     0.0393     1.0097     1.0097    -0.0000
 75 H      0.9528     1.0000     0.0472     0.9861     0.9861     0.0000
 76 H      0.9448     1.0000     0.0552     0.9711     0.9711     0.0000
 77 H      0.9471     1.0000     0.0529     0.9848     0.9848     0.0000
 78 H      0.9479     1.0000     0.0521     0.9842     0.9842     0.0000
 79 H      1.0126     1.0000    -0.0126     1.0006     1.0006    -0.0000
 80 H      0.9607     1.0000     0.0393     1.0067     1.0067     0.0000
 81 H      0.9473     1.0000     0.0527     0.9853     0.9853     0.0000
 82 H      1.0236     1.0000    -0.0236     0.9946     0.9946     0.0000
 83 H      0.9568     1.0000     0.0432     1.0099     1.0099     0.0000
 84 H      0.9481     1.0000     0.0519     0.9859     0.9859    -0.0000
 85 H      0.9426     1.0000     0.0574     0.9715     0.9715     0.0000
 86 H      0.9435     1.0000     0.0565     0.9841     0.9841     0.0000
 87 H      0.9440     1.0000     0.0560     0.9854     0.9854     0.0000
 88 H      1.0262     1.0000    -0.0262     0.9930     0.9930    -0.0000
 89 H      0.9568     1.0000     0.0432     1.0064     1.0064     0.0000

  Mayer bond orders larger than 0.100000
B(  0-C ,  1-N ) :   1.1464 B(  0-C , 17-C ) :   1.5928 B(  0-C , 52-H ) :   0.9685 
B(  1-N ,  8-C ) :   1.1394 B(  1-N , 10-C ) :   0.9496 B(  2-C , 12-C ) :   1.5509 
B(  2-C , 16-C ) :   1.3047 B(  2-C , 53-H ) :   0.9785 B(  3-N , 14-C ) :   1.1905 
B(  3-N , 16-C ) :   1.1991 B(  3-N , 61-H ) :   0.8974 B(  4-C ,  6-C ) :   1.2975 
B(  4-C , 17-C ) :   1.3017 B(  4-C , 18-C ) :   1.1812 B(  5-N , 19-C ) :   1.3967 
B(  5-N , 27-C ) :   1.4234 B(  6-C ,  8-C ) :   1.5978 B(  6-C , 54-H ) :   0.9713 
B(  7-N , 30-C ) :   1.1887 B(  7-N , 38-C ) :   1.2079 B(  7-N , 62-H ) :   0.8994 
B(  8-C , 55-H ) :   0.9697 B(  9-N , 41-C ) :   1.4176 B(  9-N , 49-C ) :   1.4085 
B( 10-C , 56-H ) :   0.9763 B( 10-C , 57-H ) :   0.9819 B( 10-C , 58-H ) :   0.9825 
B( 11-N , 20-C ) :   1.1171 B( 11-N , 24-C ) :   1.1318 B( 11-N , 25-C ) :   0.9580 
B( 12-C , 14-C ) :   1.3056 B( 12-C , 59-H ) :   0.9780 B( 13-N , 31-C ) :   1.1068 
B( 13-N , 35-C ) :   1.0973 B( 13-N , 36-C ) :   0.9691 B( 14-C , 18-C ) :   1.2248 
B( 15-N , 42-C ) :   1.1208 B( 15-N , 46-C ) :   1.1061 B( 15-N , 47-C ) :   0.9634 
B( 16-C , 51-C ) :   1.2178 B( 17-C , 60-H ) :   0.9713 B( 18-C , 19-C ) :   1.2525 
B( 19-C , 21-C ) :   1.1950 B( 20-C , 28-C ) :   1.6216 B( 20-C , 63-H ) :   0.9704 
B( 21-C , 26-C ) :   1.6551 B( 21-C , 64-H ) :   0.9737 B( 22-C , 23-C ) :   1.2751 
B( 22-C , 28-C ) :   1.2801 B( 22-C , 29-C ) :   1.2364 B( 23-C , 24-C ) :   1.6211 
B( 23-C , 65-H ) :   0.9714 B( 24-C , 66-H ) :   0.9690 B( 25-C , 67-H ) :   0.9763 
B( 25-C , 68-H ) :   0.9831 B( 25-C , 69-H ) :   0.9820 B( 26-C , 27-C ) :   1.1960 
B( 26-C , 70-H ) :   0.9741 B( 27-C , 29-C ) :   1.2324 B( 28-C , 71-H ) :   0.9711 
B( 29-C , 30-C ) :   1.2000 B( 30-C , 32-C ) :   1.3256 B( 31-C , 39-C ) :   1.6523 
B( 31-C , 72-H ) :   0.9702 B( 32-C , 37-C ) :   1.5330 B( 32-C , 73-H ) :   0.9774 
B( 33-C , 34-C ) :   1.2582 B( 33-C , 39-C ) :   1.2502 B( 33-C , 40-C ) :   1.2909 
B( 34-C , 35-C ) :   1.6498 B( 34-C , 74-H ) :   0.9707 B( 35-C , 75-H ) :   0.9702 
B( 36-C , 76-H ) :   0.9760 B( 36-C , 77-H ) :   0.9823 B( 36-C , 78-H ) :   0.9834 
B( 37-C , 38-C ) :   1.3245 B( 37-C , 79-H ) :   0.9784 B( 38-C , 40-C ) :   1.1978 
B( 39-C , 80-H ) :   0.9718 B( 40-C , 41-C ) :   1.1974 B( 41-C , 43-C ) :   1.2328 
B( 42-C , 50-C ) :   1.6357 B( 42-C , 81-H ) :   0.9696 B( 43-C , 48-C ) :   1.6183 
B( 43-C , 82-H ) :   0.9744 B( 44-C , 45-C ) :   1.2753 B( 44-C , 50-C ) :   1.2611 
B( 44-C , 51-C ) :   1.2534 B( 45-C , 46-C ) :   1.6318 B( 45-C , 83-H ) :   0.9708 
B( 46-C , 84-H ) :   0.9705 B( 47-C , 85-H ) :   0.9761 B( 47-C , 86-H ) :   0.9827 
B( 47-C , 87-H ) :   0.9827 B( 48-C , 49-C ) :   1.2301 B( 48-C , 88-H ) :   0.9732 
B( 49-C , 51-C ) :   1.2051 B( 50-C , 89-H ) :   0.9716 

-------
TIMINGS
-------

Total SCF time: 0 days 0 hours 28 min 37 sec 

Total time                  ....    1717.160 sec
Sum of individual times     ....    1712.387 sec  ( 99.7%)

Fock matrix formation       ....    1687.552 sec  ( 98.3%)
Diagonalization             ....       7.053 sec  (  0.4%)
Density matrix formation    ....       0.734 sec  (  0.0%)
Population analysis         ....       0.534 sec  (  0.0%)
Initial guess               ....       2.085 sec  (  0.1%)
Orbital Transformation      ....       0.000 sec  (  0.0%)
Orbital Orthonormalization  ....       0.000 sec  (  0.0%)
DIIS solution               ....       3.646 sec  (  0.2%)
SOSCF solution              ....       9.721 sec  (  0.6%)

Maximum memory used throughout the entire SCF-calculation: 302.5 MB


           ************************************************************
           *        Program running with 16 parallel MPI-processes    *
           *              working on a common directory               *
           ************************************************************

------------------------------------------------------------------------------
                                ORCA  MP2 
------------------------------------------------------------------------------

Freezing NCore=104 chemical core electrons

----------
MP2 ENERGY (disk based algorithm)
----------

Dimension of the basis                    ...  918
Memory devoted to MP2                     ... 2000 MB   
Data format for buffers                   ... DOUBLE
Compression type for matrix containers    ... UNCOMPRESSED

-------------------------------
PARTIAL EXCHANGE TRANSFORMATION
-------------------------------

Transformation type                        ... one-operator
Generation of integrals (i,mue|j,nue)      ... ON
Generation of integrals (mue,kappa|nue,tau)... OFF
Generation of integrals (i,mue|a,nue)      ... OFF
Dimension of the basis                     ...  918
Number of internal MOs                     ...  127 (  52- 178)
Pair cutoff                                ... 2.500e-12 Eh
Number of AO pairs in the trafo            ... 421821
Total Number of distinct AO pairs          ... 421821
Memory devoted for trafo                   ... 2000.0 MB 
Max. Number of MO pairs treated together   ...  311      
Number Format for Storage                  ... Double (8 Byte)
Integral package used                      ... LIBINT

Starting integral evaluation:
    ... done with AO integral generation
Closing buffer AOK     (38.07 GB; CompressionRatio= 1.33)
Collecting buffer AOK 
Number of MO pairs included in the trafo   ... 8128
------------------------
SORTING OF (i,mue|j,nue)
------------------------

IBATCH = 1 of  2
IBATCH = 2 of  2
Closing buffer KAO     (51.03 GB; CompressionRatio= 1.00)
Collecting buffer KAO 
N(AO-Batches) Done                         ...  85461376 
N(AO-Batches) Skipped                      ...  82166607 
N(IJ)-pairs Skipped                        ...         0 
TOTAL TIME for half transformation         ...  3170.289 sec
AO-integral generation                     ...   191.925 sec
Half transformation                        ...   375.952 sec
K-integral sorting                         ...  2433.039 sec
Process  4:   Internal MO  84
Process 13:   Internal MO 156
Process 10:   Internal MO 132

Finished integral transformation - now doing MP2 part

OPERATOR COMBINATION   0   0: ij=( 52..178, 52..178)
Process  7:   Internal MO 108
Process  1:   Internal MO  60
Process  0:   Internal MO  54
Process  2:   Internal MO  69
Process  0:   Internal MO  57
Process  8:   Internal MO 117
Process  2:   Internal MO  72
Process  3:   Internal MO  78
Process  5:   Internal MO  93
Process  6:   Internal MO 102
Process  4:   Internal MO  87
Process 11:   Internal MO 141
Process 14:   Internal MO 165
Process  2:   Internal MO  75
Process  1:   Internal MO  63
Process  9:   Internal MO 126
Process  3:   Internal MO  81
Process  1:   Internal MO  66
Process 12:   Internal MO 150
Process  4:   Internal MO  90
Process  7:   Internal MO 111
Process  5:   Internal MO  96
Process  6:   Internal MO 105
Process 10:   Internal MO 135
Process 15:   Internal MO 174
Process  8:   Internal MO 120
Process 13:   Internal MO 159
Process  5:   Internal MO  99
Process 11:   Internal MO 144
Process  9:   Internal MO 129
Process  7:   Internal MO 114
Process 14:   Internal MO 168
Process 12:   Internal MO 153
Process  8:   Internal MO 123
Process 10:   Internal MO 138
Process 15:   Internal MO 177
Process 11:   Internal MO 147
Process 13:   Internal MO 162
Process 14:   Internal MO 171
-----------------------------------------------
 MP2 CORRELATION ENERGY   :     -7.286727054 Eh
-----------------------------------------------


-------
TIMINGS
-------
Total time                : 3733.090 sec
Integral trafo            : 3172.609 sec ( 85.0%)
K(i,j)                    :    8.505 sec (  0.2%)
T(i,j)                    :    1.346 sec (  0.0%)

---------------------------------------
MP2 TOTAL ENERGY:    -2130.904859484 Eh
---------------------------------------

Maximum memory used throughout the entire MP2-calculation: 2275.2 MB

-------------------------   --------------------
FINAL SINGLE POINT ENERGY     -2130.904859483629
-------------------------   --------------------


                            ***************************************
                            *     ORCA property calculations      *
                            ***************************************


  WARNING: The energy has been calculated at the MP2 level but the densities
           used in the property calculations are still SCF densities
           MP2 response densities have not been calculated 
           use %mp2 Density relaxed end
           or  %mp2 Density unrelaxed end

                                    ---------------------
                                    Active property flags
                                    ---------------------
   (+) Dipole Moment


------------------------------------------------------------------------------
                       ORCA ELECTRIC PROPERTIES CALCULATION
------------------------------------------------------------------------------

Dipole Moment Calculation                       ... on
Quadrupole Moment Calculation                   ... off
Polarizability Calculation                      ... off
GBWName                                         ... /scratch/allen/tmpyp4_amber_gaff2/conf1/conf1/Conf111.orca.gbw
Electron density                                ... /scratch/allen/tmpyp4_amber_gaff2/conf1/conf1/Conf111.orca.scfp
The origin for moment calculation is the CENTER OF MASS  = ( 0.002483, -0.002438  0.003550)

-------------
DIPOLE MOMENT
-------------
                                X             Y             Z
Electronic contribution:     -1.98369       1.43977      -0.18699
Nuclear contribution   :     -0.00827       0.17914       0.22198
                        -----------------------------------------
Total Dipole Moment    :     -1.99197       1.61891       0.03499
                        -----------------------------------------
Magnitude (a.u.)       :      2.56710
Magnitude (Debye)      :      6.52506



--------------------
Rotational spectrum 
--------------------
 
Rotational constants in cm-1:     0.001498     0.001473     0.000763 
Rotational constants in MHz :    44.903346    44.167801    22.859952 

 Dipole components along the rotational axes: 
x,y,z [a.u.] :    -2.451602     0.760608     0.033861 
x,y,z [Debye]:    -6.231478     1.933312     0.086068 

 

Timings for individual modules:

Sum of individual times         ...     5471.957 sec (=  91.199 min)
GTO integral calculation        ...        3.359 sec (=   0.056 min)   0.1 %
SCF iterations                  ...     1718.178 sec (=  28.636 min)  31.4 %
MP2 module                      ...     3750.419 sec (=  62.507 min)  68.5 %
                             ****ORCA TERMINATED NORMALLY****
TOTAL RUN TIME: 0 days 1 hours 31 minutes 15 seconds 521 msec
# of primitive gaussian functions

