
                                 *****************
                                 * O   R   C   A *
                                 *****************

                                            #,                                       
                                            ###                                      
                                            ####                                     
                                            #####                                    
                                            ######                                   
                                           ########,                                 
                                     ,,################,,,,,                         
                               ,,#################################,,                 
                          ,,##########################################,,             
                       ,#########################################, ''#####,          
                    ,#############################################,,   '####,        
                  ,##################################################,,,,####,       
                ,###########''''           ''''###############################       
              ,#####''   ,,,,##########,,,,          '''####'''          '####       
            ,##' ,,,,###########################,,,                        '##       
           ' ,,###''''                  '''############,,,                           
         ,,##''                                '''############,,,,        ,,,,,,###''
      ,#''                                            '''#######################'''  
     '                                                          ''''####''''         
             ,#######,   #######,   ,#######,      ##                                
            ,#'     '#,  ##    ##  ,#'     '#,    #''#        ######   ,####,        
            ##       ##  ##   ,#'  ##            #'  '#       #        #'  '#        
            ##       ##  #######   ##           ,######,      #####,   #    #        
            '#,     ,#'  ##    ##  '#,     ,#' ,#      #,         ##   #,  ,#        
             '#######'   ##     ##  '#######'  #'      '#     #####' # '####'        



                  #######################################################
                  #                        -***-                        #
                  #          Department of theory and spectroscopy      #
                  #    Directorship and core code : Frank Neese         #
                  #        Max Planck Institute fuer Kohlenforschung    #
                  #                Kaiser Wilhelm Platz 1               #
                  #                 D-45470 Muelheim/Ruhr               #
                  #                      Germany                        #
                  #                                                     #
                  #                  All rights reserved                #
                  #                        -***-                        #
                  #######################################################


                         Program Version 5.0.4 -  RELEASE  -


 With contributions from (in alphabetic order):
   Daniel Aravena         : Magnetic Suceptibility
   Michael Atanasov       : Ab Initio Ligand Field Theory (pilot matlab implementation)
   Alexander A. Auer      : GIAO ZORA, VPT2 properties, NMR spectrum
   Ute Becker             : Parallelization
   Giovanni Bistoni       : ED, misc. LED, open-shell LED, HFLD
   Martin Brehm           : Molecular dynamics
   Dmytro Bykov           : SCF Hessian
   Vijay G. Chilkuri      : MRCI spin determinant printing, contributions to CSF-ICE
   Dipayan Datta          : RHF DLPNO-CCSD density
   Achintya Kumar Dutta   : EOM-CC, STEOM-CC
   Dmitry Ganyushin       : Spin-Orbit,Spin-Spin,Magnetic field MRCI
   Miquel Garcia          : C-PCM and meta-GGA Hessian, CC/C-PCM, Gaussian charge scheme
   Yang Guo               : DLPNO-NEVPT2, F12-NEVPT2, CIM, IAO-localization
   Andreas Hansen         : Spin unrestricted coupled pair/coupled cluster methods
   Benjamin Helmich-Paris : MC-RPA, TRAH-SCF, COSX integrals
   Lee Huntington         : MR-EOM, pCC
   Robert Izsak           : Overlap fitted RIJCOSX, COSX-SCS-MP3, EOM
   Marcus Kettner         : VPT2
   Christian Kollmar      : KDIIS, OOCD, Brueckner-CCSD(T), CCSD density, CASPT2, CASPT2-K
   Simone Kossmann        : Meta GGA functionals, TD-DFT gradient, OOMP2, MP2 Hessian
   Martin Krupicka        : Initial AUTO-CI
   Lucas Lang             : DCDCAS
   Marvin Lechner         : AUTO-CI (C++ implementation), FIC-MRCC
   Dagmar Lenk            : GEPOL surface, SMD
   Dimitrios Liakos       : Extrapolation schemes; Compound Job, initial MDCI parallelization
   Dimitrios Manganas     : Further ROCIS development; embedding schemes
   Dimitrios Pantazis     : SARC Basis sets
   Anastasios Papadopoulos: AUTO-CI, single reference methods and gradients
   Taras Petrenko         : DFT Hessian,TD-DFT gradient, ASA, ECA, R-Raman, ABS, FL, XAS/XES, NRVS
   Peter Pinski           : DLPNO-MP2, DLPNO-MP2 Gradient
   Christoph Reimann      : Effective Core Potentials
   Marius Retegan         : Local ZFS, SOC
   Christoph Riplinger    : Optimizer, TS searches, QM/MM, DLPNO-CCSD(T), (RO)-DLPNO pert. Triples
   Tobias Risthaus        : Range-separated hybrids, TD-DFT gradient, RPA, STAB
   Michael Roemelt        : Original ROCIS implementation
   Masaaki Saitow         : Open-shell DLPNO-CCSD energy and density
   Barbara Sandhoefer     : DKH picture change effects
   Avijit Sen             : IP-ROCIS
   Kantharuban Sivalingam : CASSCF convergence, NEVPT2, FIC-MRCI
   Bernardo de Souza      : ESD, SOC TD-DFT
   Georgi Stoychev        : AutoAux, RI-MP2 NMR, DLPNO-MP2 response
   Willem Van den Heuvel  : Paramagnetic NMR
   Boris Wezisla          : Elementary symmetry handling
   Frank Wennmohs         : Technical directorship


 We gratefully acknowledge several colleagues who have allowed us to
 interface, adapt or use parts of their codes:
   Stefan Grimme, W. Hujo, H. Kruse, P. Pracht,  : VdW corrections, initial TS optimization,
                  C. Bannwarth, S. Ehlert          DFT functionals, gCP, sTDA/sTD-DF
   Ed Valeev, F. Pavosevic, A. Kumar             : LibInt (2-el integral package), F12 methods
   Garnet Chan, S. Sharma, J. Yang, R. Olivares  : DMRG
   Ulf Ekstrom                                   : XCFun DFT Library
   Mihaly Kallay                                 : mrcc  (arbitrary order and MRCC methods)
   Jiri Pittner, Ondrej Demel                    : Mk-CCSD
   Frank Weinhold                                : gennbo (NPA and NBO analysis)
   Christopher J. Cramer and Donald G. Truhlar   : smd solvation model
   Lars Goerigk                                  : TD-DFT with DH, B97 family of functionals
   V. Asgeirsson, H. Jonsson                     : NEB implementation
   FAccTs GmbH                                   : IRC, NEB, NEB-TS, DLPNO-Multilevel, CI-OPT
                                                   MM, QMMM, 2- and 3-layer-ONIOM, Crystal-QMMM,
                                                   LR-CPCM, SF, NACMEs, symmetry and pop. for TD-DFT,
                                                   nearIR, NL-DFT gradient (VV10), updates on ESD,
                                                   ML-optimized integration grids
   S Lehtola, MJT Oliveira, MAL Marques          : LibXC Library
   Liviu Ungur et al                             : ANISO software


 Your calculation uses the libint2 library for the computation of 2-el integrals
 For citations please refer to: http://libint.valeyev.net

 Your ORCA version has been built with support for libXC version: 5.1.0
 For citations please refer to: https://tddft.org/programs/libxc/

 This ORCA versions uses:
   CBLAS   interface :  Fast vector & matrix operations
   LAPACKE interface :  Fast linear algebra routines
   SCALAPACK package :  Parallel linear algebra routines
   Shared memory     :  Shared parallel matrices
   BLAS/LAPACK       :  OpenBLAS 0.3.15  USE64BITINT DYNAMIC_ARCH NO_AFFINITY Sandybridge SINGLE_THREADED
        Core in use  :  Sandybridge
   Copyright (c) 2011-2014, The OpenBLAS Project


================================================================================

----- Orbital basis set information -----
Your calculation utilizes the basis: cc-pVDZ 
       H, B-Ne : Obtained from the ccRepo (grant-hill.group.shef.ac.uk/ccrepo) Feb. 2017
                 T. H. Dunning, Jr., J. Chem. Phys. 90, 1007 (1989)
            He : Obtained from the ccRepo (grant-hill.group.shef.ac.uk/ccrepo) Feb. 2017
                 D. E. Woon, T. H. Dunning, Jr., J. Chem. Phys. 100, 2975 (1994)
  Li-Be, Na-Mg : Obtained from the ccRepo (grant-hill.group.shef.ac.uk/ccrepo) Feb. 2017
                 B. P. Prascher, D. E. Woon, K. A. Peterson, T. H. Dunning, Jr., A. K. Wilson, Theor. Chem. Acc. 128, 69 (2011)
         Al-Ar : Obtained from the ccRepo (grant-hill.group.shef.ac.uk/ccrepo) Feb. 2017
                 D. E. Woon, T. H. Dunning, Jr., J. Chem. Phys. 98, 1358 (1993)
            Ca : Obtained from the Peterson Research Group Website (tyr0.chem.wsu.edu/~kipeters) Feb. 2017
                 J. Koput, K. A. Peterson, J. Phys. Chem. 106, 9595 (2002)
         Sc-Zn : Obtained from the ccRepo (grant-hill.group.shef.ac.uk/ccrepo) Feb. 2017
                 N. B. Balabanov, K. A. Peterson, J. Chem. Phys. 123, 064107 (2005)
                 N. B. Balabanov, K. A. Peterson, J. Chem. Phys. 125, 074110 (2006)
         Ga-Kr : Obtained from the ccRepo (grant-hill.group.shef.ac.uk/ccrepo) Feb. 2017
                 A. K. Wilson, D. E. Woon, K. A. Peterson, T. H. Dunning, Jr., J. Chem. Phys. 110, 7667 (1999)

================================================================================
                                        WARNINGS
                       Please study these warnings very carefully!
================================================================================


WARNING: No MP2 level density has been requested!
         To caclulate MP2 level properties use
         %mp2 Density relaxed end
         or
         %mp2 Density unrelaxed end

WARNING: Post HF methods need fully converged wavefunctions
  ===> : Setting SCFConvForced true
         You can overwrite this default with %scf ConvForced false 


INFO   : the flag for use of the SHARK integral package has been found!

================================================================================
                                       INPUT FILE
================================================================================
NAME = /scratch/allen/tmpyp4_amber_gaff2/2.Mdgx/conf11/conf11/Conf306.orca
|  1> ! PAL2
|  2> ! mp2 cc-pvdz TightSCF  NoKeepInts
|  3> 
|  4> %scf
|  5>   MaxCore 2000
|  6> end
|  7> %mp2
|  8>   MaxCore 2000
|  9> end
| 10> * xyz 0 1
| 11>    C       -3.46200         6.18300         1.06000
| 12>    C        1.47400         4.04100         0.05700
| 13>    C       -2.80200         4.09300         0.04900
| 14>    C       -3.77100         4.32400        -0.93900
| 15>    C       -4.54500         5.46700        -0.89800
| 16>    C       -5.20600         7.60700         0.08800
| 17>    C        0.13200         4.30700         0.06100
| 18>    C       -0.56900         3.05600         0.04700
| 19>    C        1.64900         2.61800         0.02300
| 20>    C       -2.66000         5.05800         1.05900
| 21>    N       -4.38700         6.37500         0.09300
| 22>    N        0.38800         2.06700         0.02500
| 23>    N       -2.01000         0.39500        -0.07500
| 24>    N       -0.38800        -2.07400        -0.02700
| 25>    N        2.01000        -0.40100         0.06500
| 26>    C       -1.96000         2.86100         0.02400
| 27>    C       -2.62300         1.61500        -0.01800
| 28>    C       -5.57300        -4.32900         1.06600
| 29>    C       -4.07300         1.47100         0.05600
| 30>    C       -4.10600        -2.75600        -0.02600
| 31>    C       -4.99500        -2.75700        -1.11100
| 32>    C       -6.13200        -3.54200        -1.07600
| 33>    C       -7.65100        -5.11300         0.04000
| 34>    C       -4.32400         0.14100         0.03700
| 35>    C       -3.02500        -0.52000        -0.04800
| 36>    C       -4.42200        -3.56600         1.07500
| 37>    N       -6.40700        -4.31300         0.00100
| 38>    C       -2.86700        -1.92200        -0.04000
| 39>    C       -1.65000        -2.62400        -0.02700
| 40>    C        3.56800        -6.14200        -1.04000
| 41>    C       -1.47600        -4.04900        -0.03400
| 42>    C        2.80300        -4.09900        -0.00800
| 43>    C        3.65700        -4.38400         1.06900
| 44>    C        4.42700        -5.53000         1.05900
| 45>    C        5.24500        -7.58800         0.01400
| 46>    C       -0.13400        -4.31500        -0.02200
| 47>    C        0.56800        -3.06400        -0.02700
| 48>    C        2.77500        -5.01200        -1.07400
| 49>    N        4.37600        -6.39100         0.01700
| 50>    C        1.95900        -2.86900        -0.00900
| 51>    C        2.62100        -1.62200         0.00900
| 52>    C        5.54300         4.33900        -1.13000
| 53>    C        4.07000        -1.47900        -0.09400
| 54>    C        4.10400         2.75100        -0.02100
| 55>    C        5.02700         2.72900         1.03600
| 56>    C        6.16600         3.50900         0.97800
| 57>    C        7.61900         5.15300        -0.11500
| 58>    C        4.32100        -0.14800        -0.09200
| 59>    C        3.02500         0.51400         0.01500
| 60>    C        4.38700         3.58200        -1.11500
| 61>    C        2.86600         1.91600         0.01300
| 62>    N        6.41300         4.29600        -0.09500
| 63>    H       -3.39600         6.94600         1.82600
| 64>    H        2.27400         4.76600         0.08100
| 65>    H       -3.92200         3.62100        -1.75000
| 66>    H       -5.29800         5.69200        -1.64200
| 67>    H       -4.71500         8.35800        -0.53600
| 68>    H       -6.19200         7.37200        -0.31400
| 69>    H       -5.29700         7.97200         1.11100
| 70>    H       -0.33200         5.28200         0.06900
| 71>    H       -1.93900         4.93000         1.85800
| 72>    H        0.18200         1.07200         0.00500
| 73>    H       -0.18300        -1.08000        -0.02100
| 74>    H       -5.86400        -4.96200         1.89500
| 75>    H       -4.79400         2.27200         0.13900
| 76>    H       -4.80000        -2.16000        -1.99400
| 77>    H       -6.84100        -3.58200        -1.89300
| 78>    H       -8.42800        -4.53600         0.54600
| 79>    H       -7.95600        -5.33700        -0.98100
| 80>    H       -7.45600        -6.03700         0.58400
| 81>    H       -5.28700        -0.34400         0.10000
| 82>    H       -3.78000        -3.60100         1.94700
| 83>    H        3.58700        -6.86800        -1.84300
| 84>    H       -2.27600        -4.77400        -0.05000
| 85>    H        3.71400        -3.72400         1.92600
| 86>    H        5.09200        -5.79500         1.87100
| 87>    H        6.20500        -7.32900        -0.43900
| 88>    H        5.39300        -7.91700         1.04200
| 89>    H        4.75900        -8.37300        -0.56400
| 90>    H        0.32900        -5.29000        -0.00800
| 91>    H        2.14600        -4.84200        -1.94000
| 92>    H        5.80800         4.98600        -1.95600
| 93>    H        4.78800        -2.28100        -0.18500
| 94>    H        4.86000         2.11400         1.91200
| 95>    H        6.90100         3.53100         1.77200
| 96>    H        7.38300         6.10900         0.35600
| 97>    H        8.41400         4.65200         0.43500
| 98>    H        7.92100         5.31000        -1.15000
| 99>    H        5.28300         0.33600        -0.17900
|100>    H        3.72000         3.63200        -1.96700
|101> *
|102> 
|103>                          ****END OF INPUT****
================================================================================

                       ****************************
                       * Single Point Calculation *
                       ****************************

---------------------------------
CARTESIAN COORDINATES (ANGSTROEM)
---------------------------------
  C     -3.462000    6.183000    1.060000
  C      1.474000    4.041000    0.057000
  C     -2.802000    4.093000    0.049000
  C     -3.771000    4.324000   -0.939000
  C     -4.545000    5.467000   -0.898000
  C     -5.206000    7.607000    0.088000
  C      0.132000    4.307000    0.061000
  C     -0.569000    3.056000    0.047000
  C      1.649000    2.618000    0.023000
  C     -2.660000    5.058000    1.059000
  N     -4.387000    6.375000    0.093000
  N      0.388000    2.067000    0.025000
  N     -2.010000    0.395000   -0.075000
  N     -0.388000   -2.074000   -0.027000
  N      2.010000   -0.401000    0.065000
  C     -1.960000    2.861000    0.024000
  C     -2.623000    1.615000   -0.018000
  C     -5.573000   -4.329000    1.066000
  C     -4.073000    1.471000    0.056000
  C     -4.106000   -2.756000   -0.026000
  C     -4.995000   -2.757000   -1.111000
  C     -6.132000   -3.542000   -1.076000
  C     -7.651000   -5.113000    0.040000
  C     -4.324000    0.141000    0.037000
  C     -3.025000   -0.520000   -0.048000
  C     -4.422000   -3.566000    1.075000
  N     -6.407000   -4.313000    0.001000
  C     -2.867000   -1.922000   -0.040000
  C     -1.650000   -2.624000   -0.027000
  C      3.568000   -6.142000   -1.040000
  C     -1.476000   -4.049000   -0.034000
  C      2.803000   -4.099000   -0.008000
  C      3.657000   -4.384000    1.069000
  C      4.427000   -5.530000    1.059000
  C      5.245000   -7.588000    0.014000
  C     -0.134000   -4.315000   -0.022000
  C      0.568000   -3.064000   -0.027000
  C      2.775000   -5.012000   -1.074000
  N      4.376000   -6.391000    0.017000
  C      1.959000   -2.869000   -0.009000
  C      2.621000   -1.622000    0.009000
  C      5.543000    4.339000   -1.130000
  C      4.070000   -1.479000   -0.094000
  C      4.104000    2.751000   -0.021000
  C      5.027000    2.729000    1.036000
  C      6.166000    3.509000    0.978000
  C      7.619000    5.153000   -0.115000
  C      4.321000   -0.148000   -0.092000
  C      3.025000    0.514000    0.015000
  C      4.387000    3.582000   -1.115000
  C      2.866000    1.916000    0.013000
  N      6.413000    4.296000   -0.095000
  H     -3.396000    6.946000    1.826000
  H      2.274000    4.766000    0.081000
  H     -3.922000    3.621000   -1.750000
  H     -5.298000    5.692000   -1.642000
  H     -4.715000    8.358000   -0.536000
  H     -6.192000    7.372000   -0.314000
  H     -5.297000    7.972000    1.111000
  H     -0.332000    5.282000    0.069000
  H     -1.939000    4.930000    1.858000
  H      0.182000    1.072000    0.005000
  H     -0.183000   -1.080000   -0.021000
  H     -5.864000   -4.962000    1.895000
  H     -4.794000    2.272000    0.139000
  H     -4.800000   -2.160000   -1.994000
  H     -6.841000   -3.582000   -1.893000
  H     -8.428000   -4.536000    0.546000
  H     -7.956000   -5.337000   -0.981000
  H     -7.456000   -6.037000    0.584000
  H     -5.287000   -0.344000    0.100000
  H     -3.780000   -3.601000    1.947000
  H      3.587000   -6.868000   -1.843000
  H     -2.276000   -4.774000   -0.050000
  H      3.714000   -3.724000    1.926000
  H      5.092000   -5.795000    1.871000
  H      6.205000   -7.329000   -0.439000
  H      5.393000   -7.917000    1.042000
  H      4.759000   -8.373000   -0.564000
  H      0.329000   -5.290000   -0.008000
  H      2.146000   -4.842000   -1.940000
  H      5.808000    4.986000   -1.956000
  H      4.788000   -2.281000   -0.185000
  H      4.860000    2.114000    1.912000
  H      6.901000    3.531000    1.772000
  H      7.383000    6.109000    0.356000
  H      8.414000    4.652000    0.435000
  H      7.921000    5.310000   -1.150000
  H      5.283000    0.336000   -0.179000
  H      3.720000    3.632000   -1.967000

----------------------------
CARTESIAN COORDINATES (A.U.)
----------------------------
  NO LB      ZA    FRAG     MASS         X           Y           Z
   0 C     6.0000    0    12.011   -6.542232   11.684177    2.003110
   1 C     6.0000    0    12.011    2.785456    7.636383    0.107714
   2 C     6.0000    0    12.011   -5.295013    7.734649    0.092597
   3 C     6.0000    0    12.011   -7.126157    8.171176   -1.774453
   4 C     6.0000    0    12.011   -8.588805   10.331133   -1.696974
   5 C     6.0000    0    12.011   -9.837914   14.375147    0.166296
   6 C     6.0000    0    12.011    0.249444    8.139050    0.115273
   7 C     6.0000    0    12.011   -1.075254    5.775003    0.088817
   8 C     6.0000    0    12.011    3.116158    4.947303    0.043464
   9 C     6.0000    0    12.011   -5.026672    9.558235    2.001220
  10 N     7.0000    0    14.007   -8.290229   12.047004    0.175745
  11 N     7.0000    0    14.007    0.733214    3.906064    0.047243
  12 N     7.0000    0    14.007   -3.798350    0.746442   -0.141729
  13 N     7.0000    0    14.007   -0.733214   -3.919292   -0.051023
  14 N     7.0000    0    14.007    3.798350   -0.757780    0.122832
  15 C     6.0000    0    12.011   -3.703863    5.406506    0.045353
  16 C     6.0000    0    12.011   -4.956752    3.051908   -0.034015
  17 C     6.0000    0    12.011  -10.531444   -8.180624    2.014448
  18 C     6.0000    0    12.011   -7.696855    2.779787    0.105825
  19 C     6.0000    0    12.011   -7.759216   -5.208085   -0.049133
  20 C     6.0000    0    12.011   -9.439182   -5.209975   -2.099486
  21 C     6.0000    0    12.011  -11.587801   -6.693410   -2.033345
  22 C     6.0000    0    12.011  -14.458295   -9.662170    0.075589
  23 C     6.0000    0    12.011   -8.171176    0.266451    0.069920
  24 C     6.0000    0    12.011   -5.716422   -0.982658   -0.090707
  25 C     6.0000    0    12.011   -8.356369   -6.738763    2.031456
  26 N     7.0000    0    14.007  -12.107475   -8.150389    0.001890
  27 C     6.0000    0    12.011   -5.417845   -3.632054   -0.075589
  28 C     6.0000    0    12.011   -3.118048   -4.958641   -0.051023
  29 C     6.0000    0    12.011    6.742543  -11.606698   -1.965315
  30 C     6.0000    0    12.011   -2.789236   -7.651501   -0.064251
  31 C     6.0000    0    12.011    5.296902   -7.745987   -0.015118
  32 C     6.0000    0    12.011    6.910728   -8.284559    2.020117
  33 C     6.0000    0    12.011    8.365818  -10.450186    2.001220
  34 C     6.0000    0    12.011    9.911614  -14.339242    0.026456
  35 C     6.0000    0    12.011   -0.253223   -8.154168   -0.041574
  36 C     6.0000    0    12.011    1.073364   -5.790121   -0.051023
  37 C     6.0000    0    12.011    5.243990   -9.471307   -2.029566
  38 N     7.0000    0    14.007    8.269442  -12.077240    0.032125
  39 C     6.0000    0    12.011    3.701973   -5.421624   -0.017008
  40 C     6.0000    0    12.011    4.952972   -3.065136    0.017008
  41 C     6.0000    0    12.011   10.474752    8.199522   -2.135391
  42 C     6.0000    0    12.011    7.691185   -2.794905   -0.177634
  43 C     6.0000    0    12.011    7.755436    5.198637   -0.039684
  44 C     6.0000    0    12.011    9.499653    5.157063    1.957756
  45 C     6.0000    0    12.011   11.652051    6.631049    1.848152
  46 C     6.0000    0    12.011   14.397823    9.737759   -0.217319
  47 C     6.0000    0    12.011    8.165507   -0.279679   -0.173855
  48 C     6.0000    0    12.011    5.716422    0.971319    0.028346
  49 C     6.0000    0    12.011    8.290229    6.768999   -2.107045
  50 C     6.0000    0    12.011    5.415955    3.620715    0.024566
  51 N     7.0000    0    14.007   12.118814    8.118263   -0.179524
  52 H     1.0000    0     1.008   -6.417510   13.126038    3.450640
  53 H     1.0000    0     1.008    4.297237    9.006435    0.153068
  54 H     1.0000    0     1.008   -7.411506    6.842698   -3.307021
  55 H     1.0000    0     1.008  -10.011769   10.756321   -3.102930
  56 H     1.0000    0     1.008   -8.910059   15.794331   -1.012893
  57 H     1.0000    0     1.008  -11.701184   13.931061   -0.593374
  58 H     1.0000    0     1.008  -10.009879   15.064897    2.099486
  59 H     1.0000    0     1.008   -0.627389    9.981533    0.130391
  60 H     1.0000    0     1.008   -3.664179    9.316350    3.511111
  61 H     1.0000    0     1.008    0.343930    2.025786    0.009449
  62 H     1.0000    0     1.008   -0.345820   -2.040904   -0.039684
  63 H     1.0000    0     1.008  -11.081354   -9.376821    3.581031
  64 H     1.0000    0     1.008   -9.059347    4.293458    0.262672
  65 H     1.0000    0     1.008   -9.070685   -4.081808   -3.768114
  66 H     1.0000    0     1.008  -12.927616   -6.768999   -3.577252
  67 H     1.0000    0     1.008  -15.926612   -8.571798    1.031790
  68 H     1.0000    0     1.008  -15.034661  -10.085468   -1.853821
  69 H     1.0000    0     1.008  -14.089798  -11.408277    1.103600
  70 H     1.0000    0     1.008   -9.990982   -0.650066    0.188973
  71 H     1.0000    0     1.008   -7.143165   -6.804904    3.679297
  72 H     1.0000    0     1.008    6.778448  -12.978639   -3.482765
  73 H     1.0000    0     1.008   -4.301017   -9.021553   -0.094486
  74 H     1.0000    0     1.008    7.018443   -7.037340    3.639613
  75 H     1.0000    0     1.008    9.622485  -10.950963    3.535678
  76 H     1.0000    0     1.008   11.725751  -13.849803   -0.829590
  77 H     1.0000    0     1.008   10.191293  -14.960962    1.969095
  78 H     1.0000    0     1.008    8.993207  -15.822677   -1.065806
  79 H     1.0000    0     1.008    0.621720   -9.996651   -0.015118
  80 H     1.0000    0     1.008    4.055352   -9.150054   -3.666069
  81 H     1.0000    0     1.008   10.975529    9.422175   -3.696304
  82 H     1.0000    0     1.008    9.048009   -4.310465   -0.349599
  83 H     1.0000    0     1.008    9.184069    3.994881    3.613156
  84 H     1.0000    0     1.008   13.041000    6.672623    3.348595
  85 H     1.0000    0     1.008   13.951848   11.544337    0.672743
  86 H     1.0000    0     1.008   15.900156    8.791006    0.822031
  87 H     1.0000    0     1.008   14.968521   10.034446   -2.173185
  88 H     1.0000    0     1.008    9.983423    0.634948   -0.338261
  89 H     1.0000    0     1.008    7.029781    6.863485   -3.717091

--------------------------------
INTERNAL COORDINATES (ANGSTROEM)
--------------------------------
 C      0   0   0     0.000000000000     0.00000000     0.00000000
 C      1   0   0     5.473414747669     0.00000000     0.00000000
 C      1   2   0     2.413673755916    48.53082992     0.00000000
 C      3   1   2     1.403020313467    87.91065735   224.50054242
 C      4   3   1     1.381016292446   120.16177681     0.13166918
 C      5   4   3     2.447185526273   152.51158435     1.60547554
 C      2   1   3     1.368114030335    16.00769275    15.89295886
 C      7   2   1     1.434084376876   108.05010202   220.22529954
 C      2   1   3     1.434123425651   120.17877549   331.56123793
 C      1   2   3     1.381604140121    32.61796711    40.67382552
 N      1   2   3     1.351879432494   122.78939752   303.55286023
 N      9   2   1     1.376127174356   106.58526707    10.94306340
 N     12   9   2     2.925062050624   168.53581413   171.12065651
 N     13  12   9     2.954513327098    91.55032014    11.12112580
 N     14  13  12     2.925371258490    88.43092389   359.84326247
 C      8   7   2     1.404790019896   127.24786865   181.11170171
 C     13  12   9     1.366535034311    81.72106996   188.00453233
 C     14  13  12     5.758810554272    80.56209567   166.76250791
 C     17  13  12     1.459010623676   111.08861209   183.82872609
 C     18  14  13     2.412235892279    27.27532823    36.33507194
 C     20  18  14     1.402692767501    87.95206320   148.94598259
 C     21  20  18     1.382106725257   120.14573887   359.70382047
 C     18  14  13     2.446510985056   144.15733107    82.80075377
 C     19  17  13     1.353610726908   106.29293361   359.75308708
 C     13  12   9     1.366813447402   172.21332906    33.46711076
 C     18  14  13     1.380960173213    15.08449437   309.23336894
 N     22  21  20     1.352773077792   120.73759875     0.27865223
 C     25  13  17     1.410897586645   125.60330303   182.37774668
 C     14  13  12     1.376642291955    80.24689249   177.85461986
 C     14  13  12     5.764089607215   164.51507311   312.20821879
 C     29  14  13     1.435600919476   106.58649366   178.76395472
 C     30  14  13     2.413316804732    27.10625047    82.12560436
 C     32  30  14     1.403734305344    87.90059683   149.76154742
 C     33  32  30     1.380694028378   120.14881443   359.74174632
 C     34  33  32     2.448777858443   152.49203239     2.45173620
 C     31  29  14     1.368160809262   108.16950133     0.70383075
 C     14  13  12     1.376239804685   169.26375223   353.09862627
 C     30  14  13     1.380907310430    14.68948582   353.70041132
 N     34  33  32     1.352658863128   120.85575621     0.19603406
 C     37  14  29     1.404717053360   126.01551127   180.90772073
 C     15  14  13     1.366491126938    81.61824056   183.09049352
 C      2   1   3     4.249062720177   152.54122953   141.25350458
 C     41  15  14     1.459677704153   111.05201287   175.08990246
 C     42   2   1     2.412953791518    41.78584867   165.26714080
 C     44  42   2     1.403446472082    87.95153797   233.97558675
 C     45  44  42     1.381696421071   120.11137308     0.19721020
 C     42   2   1     2.450019795838   135.97209175    75.58198990
 C     43  41  15     1.354461516618   106.26758155     0.30894352
 C     15  14  13     1.367461151185   171.87382904   332.35056460
 C     42   2   1     1.381886391857    32.59078432   214.12241999
 C      9   2   1     1.404988612053   126.98745415   191.94740093
 N     42   2   1     1.352765315936   113.57249190   103.31857910
 H      1   2   3     1.083180963644   110.50612840   159.53009502
 H      2   1   3     1.079907866440   113.65715026   162.28305242
 H      4   3   1     1.083850081884   121.08770318   179.55091464
 H      5   4   3     1.082206080190   122.79480634   179.45396617
 H      6   5   4     1.092912622308   104.44841990   100.13389876
 H      6   5   4     1.090424229371    84.67762042   209.56055909
 H      6   5   4     1.089970183078   133.91124622   322.39408884
 H      7   2   1     1.079807853278   126.66122480    40.46371333
 H     10   1   2     1.083801642368   118.80315937    77.12597329
 H     12   9   2     1.016297692608   125.29023241   180.00180175
 H     14  13  12     1.014936943854    44.97226959   359.42596618
 H     18  14  13     1.082871645210   128.03556573   234.20482432
 H     19  17  13     1.080893611786   126.41830519   178.11313280
 H     21  20  18     1.083569563987   121.05669627   180.67006309
 H     22  21  20     1.082483256222   122.73097286   180.59748951
 H     23  18  14     1.092105306278   103.92715769   234.93429879
 H     23  18  14     1.088871893291   134.19244188    12.25587044
 H     23  18  14     1.089833473518    84.85857450   125.45241208
 H     24  19  17     1.080075460327   127.28078426   178.44613241
 H     26  18  14     1.083408048706   118.76995697   244.94906660
 H     30  14  13     1.082703098730   127.99711412   279.66882698
 H     31  29  14     1.079759695488   125.22293469   180.92530585
 H     33  32  30     1.083188810873   121.01964473   180.74284758
 H     34  33  32     1.082494341787   122.70821597   180.59516895
 H     35  34  33     1.092652735319   105.73575241    97.19771933
 H     35  34  33     1.089462711615    84.05943581   206.43036958
 H     35  34  33     1.089268102902   133.08365142   318.50306270
 H     36  31  29     1.079439669458   126.61599965   178.98859863
 H     38  30  73     1.083742127999   118.77264435   359.90091293
 H     42   2   1     1.082178358682   119.31790784   319.95010955
 H     43  41  15     1.080281907652   126.36969097   182.06329380
 H     45  44  42     1.083277434455   121.10105945   179.58025624
 H     46  45  44     1.082194529648   122.72144639   179.46906377
 H     47  42   2     1.091546151109   106.65128841   315.16475048
 H     47  42   2     1.088818625851   132.46019523    94.52397119
 H     47  42   2     1.089531091801    83.63838232   206.04504406
 H     48  43  41     1.080402239909   127.23657387   181.62955349
 H     50  42   2     1.083186502870   118.77001737    94.71359229

---------------------------
INTERNAL COORDINATES (A.U.)
---------------------------
 C      0   0   0     0.000000000000     0.00000000     0.00000000
 C      1   0   0    10.343254890460     0.00000000     0.00000000
 C      1   2   0     4.561182375315    48.53082992     0.00000000
 C      3   1   2     2.651324152780    87.91065735   224.50054242
 C      4   3   1     2.609742579205   120.16177681     0.13166918
 C      5   4   3     4.624510443552   152.51158435     1.60547554
 C      2   1   3     2.585360837309    16.00769275    15.89295886
 C      7   2   1     2.710026725231   108.05010202   220.22529954
 C      2   1   3     2.710100516721   120.17877549   331.56123793
 C      1   2   3     2.610853450321    32.61796711    40.67382552
 N      1   2   3     2.554681893494   122.78939752   303.55286023
 N      9   2   1     2.600503484979   106.58526707    10.94306340
 N     12   9   2     5.527566200405   168.53581413   171.12065651
 N     13  12   9     5.583221047236    91.55032014    11.12112580
 N     14  13  12     5.528150518591    88.43092389   359.84326247
 C      8   7   2     2.654668413270   127.24786865   181.11170171
 C     13  12   9     2.582376967257    81.72106996   188.00453233
 C     14  13  12    10.882574804710    80.56209567   166.76250791
 C     17  13  12     2.757130505230   111.08861209   183.82872609
 C     18  14  13     4.558465206823    27.27532823    36.33507194
 C     20  18  14     2.650705180609    87.95206320   148.94598259
 C     21  20  18     2.611803198586   120.14573887   359.70382047
 C     18  14  13     4.623235745386   144.15733107    82.80075377
 C     19  17  13     2.557953565794   106.29293361   359.75308708
 C     13  12   9     2.582903091751   172.21332906    33.46711076
 C     18  14  13     2.609636529225    15.08449437   309.23336894
 N     22  21  20     2.556370638369   120.73759875     0.27865223
 C     25  13  17     2.666210041769   125.60330303   182.37774668
 C     14  13  12     2.601476916169    80.24689249   177.85461986
 C     14  13  12    10.892550769017   164.51507311   312.20821879
 C     29  14  13     2.712892575415   106.58649366   178.76395472
 C     30  14  13     4.560507835333    27.10625047    82.12560436
 C     32  30  14     2.652673401891    87.90059683   149.76154742
 C     33  32  30     2.609133588376   120.14881443   359.74174632
 C     34  33  32     4.627519515267   152.49203239     2.45173620
 C     31  29  14     2.585449236669   108.16950133     0.70383075
 C     14  13  12     2.600716325456   169.26375223   353.09862627
 C     30  14  13     2.609536633043    14.68948582   353.70041132
 N     34  33  32     2.556154803934   120.85575621     0.19603406
 C     37  14  29     2.654530526499   126.01551127   180.90772073
 C     15  14  13     2.582293994346    81.61824056   183.09049352
 C      2   1   3     8.029564866989   152.54122953   141.25350458
 C     41  15  14     2.758391104639   111.05201287   175.08990246
 C     42   2   1     4.559821839776    41.78584867   165.26714080
 C     44  42   2     2.652129475853    87.95153797   233.97558675
 C     45  44  42     2.611027836043   120.11137308     0.19721020
 C     42   2   1     4.629866436820   135.97209175    75.58198990
 C     43  41  15     2.559561325344   106.26758155     0.30894352
 C     15  14  13     2.584127074516   171.87382904   332.35056460
 C     42   2   1     2.611386828803    32.59078432   214.12241999
 C      9   2   1     2.655043698059   126.98745415   191.94740093
 N     42   2   1     2.556355970587   113.57249190   103.31857910
 H      1   2   3     2.046915374763   110.50612840   159.53009502
 H      2   1   3     2.040730117440   113.65715026   162.28305242
 H      4   3   1     2.048179824989   121.08770318   179.55091464
 H      5   4   3     2.045073112023   122.79480634   179.45396617
 H      6   5   4     2.065305544468   104.44841990   100.13389876
 H      6   5   4     2.060603163304    84.67762042   209.56055909
 H      6   5   4     2.059745140158   133.91124622   322.39408884
 H      7   2   1     2.040541119952   126.66122480    40.46371333
 H     10   1   2     2.048088287570   118.80315937    77.12597329
 H     12   9   2     1.920524309565   125.29023241   180.00180175
 H     14  13  12     1.917952867083    44.97226959   359.42596618
 H     18  14  13     2.046330847636   128.03556573   234.20482432
 H     19  17  13     2.042592906181   126.41830519   178.11313280
 H     21  20  18     2.047649722989   121.05669627   180.67006309
 H     22  21  20     2.045596898814   122.73097286   180.59748951
 H     23  18  14     2.063779938267   103.92715769   234.93429879
 H     23  18  14     2.057669673245   134.19244188    12.25587044
 H     23  18  14     2.059486796529    84.85857450   125.45241208
 H     24  19  17     2.041046823986   127.28078426   178.44613241
 H     26  18  14     2.047344503340   118.76995697   244.94906660
 H     30  14  13     2.046012340948   127.99711412   279.66882698
 H     31  29  14     2.040450114918   125.22293469   180.92530585
 H     33  32  30     2.046930203877   121.01964473   180.74284758
 H     34  33  32     2.045617847496   122.70821597   180.59516895
 H     35  34  33     2.064814429233   105.73575241    97.19771933
 H     35  34  33     2.058786158072    84.05943581   206.43036958
 H     35  34  33     2.058418400901   133.08365142   318.50306270
 H     36  31  29     2.039845353366   126.61599965   178.98859863
 H     38  30  73     2.047975821711   118.77264435   359.90091293
 H     42   2   1     2.045020725966   119.31790784   319.95010955
 H     43  41  15     2.041436952892   126.36969097   182.06329380
 H     45  44  42     2.047097678177   121.10105945   179.58025624
 H     46  45  44     2.045051284662   122.72144639   179.46906377
 H     47  42   2     2.062723288131   106.65128841   315.16475048
 H     47  42   2     2.057569012371   132.46019523    94.52397119
 H     47  42   2     2.058915377895    83.63838232   206.04504406
 H     48  43  41     2.041664347903   127.23657387   181.62955349
 H     50  42   2     2.046925842384   118.77001737    94.71359229

---------------------
BASIS SET INFORMATION
---------------------
There are 3 groups of distinct atoms

 Group   1 Type C   : 17s4p1d contracted to 3s2p1d pattern {881/31/1}
 Group   2 Type N   : 17s4p1d contracted to 3s2p1d pattern {881/31/1}
 Group   3 Type H   : 4s1p contracted to 2s1p pattern {31/1}

Atom   0C    basis set group =>   1
Atom   1N    basis set group =>   2
Atom   2C    basis set group =>   1
Atom   3N    basis set group =>   2
Atom   4C    basis set group =>   1
Atom   5N    basis set group =>   2
Atom   6C    basis set group =>   1
Atom   7N    basis set group =>   2
Atom   8C    basis set group =>   1
Atom   9N    basis set group =>   2
Atom  10C    basis set group =>   1
Atom  11N    basis set group =>   2
Atom  12C    basis set group =>   1
Atom  13N    basis set group =>   2
Atom  14C    basis set group =>   1
Atom  15N    basis set group =>   2
Atom  16C    basis set group =>   1
Atom  17C    basis set group =>   1
Atom  18C    basis set group =>   1
Atom  19C    basis set group =>   1
Atom  20C    basis set group =>   1
Atom  21C    basis set group =>   1
Atom  22C    basis set group =>   1
Atom  23C    basis set group =>   1
Atom  24C    basis set group =>   1
Atom  25C    basis set group =>   1
Atom  26C    basis set group =>   1
Atom  27C    basis set group =>   1
Atom  28C    basis set group =>   1
Atom  29C    basis set group =>   1
Atom  30C    basis set group =>   1
Atom  31C    basis set group =>   1
Atom  32C    basis set group =>   1
Atom  33C    basis set group =>   1
Atom  34C    basis set group =>   1
Atom  35C    basis set group =>   1
Atom  36C    basis set group =>   1
Atom  37C    basis set group =>   1
Atom  38C    basis set group =>   1
Atom  39C    basis set group =>   1
Atom  40C    basis set group =>   1
Atom  41C    basis set group =>   1
Atom  42C    basis set group =>   1
Atom  43C    basis set group =>   1
Atom  44C    basis set group =>   1
Atom  45C    basis set group =>   1
Atom  46C    basis set group =>   1
Atom  47C    basis set group =>   1
Atom  48C    basis set group =>   1
Atom  49C    basis set group =>   1
Atom  50C    basis set group =>   1
Atom  51C    basis set group =>   1
Atom  52H    basis set group =>   3
Atom  53H    basis set group =>   3
Atom  54H    basis set group =>   3
Atom  55H    basis set group =>   3
Atom  56H    basis set group =>   3
Atom  57H    basis set group =>   3
Atom  58H    basis set group =>   3
Atom  59H    basis set group =>   3
Atom  60H    basis set group =>   3
Atom  61H    basis set group =>   3
Atom  62H    basis set group =>   3
Atom  63H    basis set group =>   3
Atom  64H    basis set group =>   3
Atom  65H    basis set group =>   3
Atom  66H    basis set group =>   3
Atom  67H    basis set group =>   3
Atom  68H    basis set group =>   3
Atom  69H    basis set group =>   3
Atom  70H    basis set group =>   3
Atom  71H    basis set group =>   3
Atom  72H    basis set group =>   3
Atom  73H    basis set group =>   3
Atom  74H    basis set group =>   3
Atom  75H    basis set group =>   3
Atom  76H    basis set group =>   3
Atom  77H    basis set group =>   3
Atom  78H    basis set group =>   3
Atom  79H    basis set group =>   3
Atom  80H    basis set group =>   3
Atom  81H    basis set group =>   3
Atom  82H    basis set group =>   3
Atom  83H    basis set group =>   3
Atom  84H    basis set group =>   3
Atom  85H    basis set group =>   3
Atom  86H    basis set group =>   3
Atom  87H    basis set group =>   3
Atom  88H    basis set group =>   3
Atom  89H    basis set group =>   3


           ************************************************************
           *        Program running with 8 parallel MPI-processes     *
           *              working on a common directory               *
           ************************************************************
------------------------------------------------------------------------------
                           ORCA GTO INTEGRAL CALCULATION
------------------------------------------------------------------------------
------------------------------------------------------------------------------
                   ___                                                        
                  /   \      - P O W E R E D   B Y -                         
                 /     \                                                     
                 |  |  |   _    _      __       _____    __    __             
                 |  |  |  | |  | |    /  \     |  _  \  |  |  /  |          
                  \  \/   | |  | |   /    \    | | | |  |  | /  /          
                 / \  \   | |__| |  /  /\  \   | |_| |  |  |/  /          
                |  |  |   |  __  | /  /__\  \  |    /   |      \           
                |  |  |   | |  | | |   __   |  |    \   |  |\   \          
                \     /   | |  | | |  |  |  |  | |\  \  |  | \   \       
                 \___/    |_|  |_| |__|  |__|  |_| \__\ |__|  \__/        
                                                                              
                      - O R C A' S   B I G   F R I E N D -                    
                                      &                                       
                       - I N T E G R A L  F E E D E R -                       
                                                                              
 v1 FN, 2020, v2 2021                                                         
------------------------------------------------------------------------------


Reading SHARK input file /scratch/chu_02/allen/tmpyp4_amber_gaff2/conf1/conf1/Conf306.orca.SHARKINP.tmp ... ok
----------------------
SHARK INTEGRAL PACKAGE
----------------------

Number of atoms                             ...     90
Number of basis functions                   ...   1230
Number of shells                            ...    738
Maximum angular momentum                    ...      2
Integral batch strategy                     ... SHARK/LIBINT Hybrid
RI-J (if used) integral strategy            ... SPLIT-RIJ (Revised 2003 algorithm where possible)
Printlevel                                  ...      1
Contraction scheme used                     ... PARTIAL GENERAL contraction
Coulomb Range Separation                    ... NOT USED
Exchange Range Separation                   ... NOT USED
Finite Nucleus Model                        ... NOT USED
Auxiliary Coulomb fitting basis             ... NOT available
Auxiliary J/K fitting basis                 ... NOT available
Auxiliary Correlation fitting basis         ... NOT available
Auxiliary 'external' fitting basis          ... NOT available
Integral threshold                          ...     2.500000e-11
Primitive cut-off                           ...     2.500000e-12
Primitive pair pre-selection threshold      ...     2.500000e-12

Calculating pre-screening integrals         ... done (  0.1 sec) Dimension = 738
Calculating pre-screening integrals (ORCA)  ... done (  0.3 sec) Dimension = 426
Organizing shell pair data                  ... done (  0.4 sec)
Shell pair information
Total number of shell pairs                 ...    272691
Shell pairs after pre-screening             ...     71581
Total number of primitive shell pairs       ...    422091
Primitive shell pairs kept                  ...     92336
          la=0 lb=0:  29405 shell pairs
          la=1 lb=0:  25953 shell pairs
          la=1 lb=1:   4699 shell pairs
          la=2 lb=0:   7869 shell pairs
          la=2 lb=1:   3124 shell pairs
          la=2 lb=2:    531 shell pairs

Calculating one electron integrals          ... done (  0.2 sec)
Calculating Nuclear repulsion               ... done (  0.0 sec) ENN=   6225.446223854109 Eh

SHARK setup successfully completed in   1.5 seconds

Maximum memory used throughout the entire GTOINT-calculation: 98.9 MB


           ************************************************************
           *        Program running with 8 parallel MPI-processes     *
           *              working on a common directory               *
           ************************************************************
-------------------------------------------------------------------------------
                                 ORCA SCF
-------------------------------------------------------------------------------

------------
SCF SETTINGS
------------
Hamiltonian:
 Ab initio Hamiltonian  Method          .... Hartree-Fock(GTOs)


General Settings:
 Integral files         IntName         .... /scratch/chu_02/allen/tmpyp4_amber_gaff2/conf1/conf1/Conf306.orca
 Hartree-Fock type      HFTyp           .... RHF
 Total Charge           Charge          ....    0
 Multiplicity           Mult            ....    1
 Number of Electrons    NEL             ....  358
 Basis Dimension        Dim             ....  918
 Nuclear Repulsion      ENuc            ....   6225.4462238541 Eh

Convergence Acceleration:
 DIIS                   CNVDIIS         .... on
   Start iteration      DIISMaxIt       ....    12
   Startup error        DIISStart       ....  0.200000
   # of expansion vecs  DIISMaxEq       ....     5
   Bias factor          DIISBfac        ....   1.050
   Max. coefficient     DIISMaxC        ....  10.000
 Trust-Rad. Augm. Hess. CNVTRAH         .... auto
   Auto Start mean grad. ratio tolernc. ....  1.125000
   Auto Start start iteration           ....    20
   Auto Start num. interpolation iter.  ....    10
   Max. Number of Micro iterations      ....    16
   Max. Number of Macro iterations      .... Maxiter - #DIIS iter
   Number of Davidson start vectors     ....     2
   Converg. threshold I  (grad. norm)   ....   1.000e-05
   Converg. threshold II (energy diff.) ....   1.000e-08
   Grad. Scal. Fac. for Micro threshold ....   0.100
   Minimum threshold for Micro iter.    ....   0.010
   NR start threshold (gradient norm)   ....   0.001
   Initial trust radius                 ....   0.400
   Minimum AH scaling param. (alpha)    ....   1.000
   Maximum AH scaling param. (alpha)    .... 1000.000
   Orbital update algorithm             .... Taylor
   White noise on init. David. guess    .... on
   Maximum white noise                  ....   0.010
   Quad. conv. algorithm                .... NR
 SOSCF                  CNVSOSCF        .... on
   Start iteration      SOSCFMaxIt      ....   150
   Startup grad/error   SOSCFStart      ....  0.003300
 Level Shifting         CNVShift        .... on
   Level shift para.    LevelShift      ....    0.2500
   Turn off err/grad.   ShiftErr        ....    0.0010
 Zerner damping         CNVZerner       .... off
 Static damping         CNVDamp         .... on
   Fraction old density DampFac         ....    0.7000
   Max. Damping (<1)    DampMax         ....    0.9800
   Min. Damping (>=0)   DampMin         ....    0.0000
   Turn off err/grad.   DampErr         ....    0.1000
 Fernandez-Rico         CNVRico         .... off

SCF Procedure:
 Maximum # iterations   MaxIter         ....   125
 SCF integral mode      SCFMode         .... Direct
   Integral package                     .... SHARK and LIBINT hybrid scheme
 Reset frequency        DirectResetFreq ....    20
 Integral Threshold     Thresh          ....  2.500e-11 Eh
 Primitive CutOff       TCut            ....  2.500e-12 Eh

Convergence Tolerance:
 Convergence Check Mode ConvCheckMode   .... Total+1el-Energy
 Convergence forced     ConvForced      .... 1
 Energy Change          TolE            ....  1.000e-08 Eh
 1-El. energy change                    ....  1.000e-05 Eh
 Orbital Gradient       TolG            ....  1.000e-05
 Orbital Rotation angle TolX            ....  1.000e-05
 DIIS Error             TolErr          ....  5.000e-07


Diagonalization of the overlap matrix:
Smallest eigenvalue                        ... 2.252e-04
Time for diagonalization                   ...    0.191 sec
Threshold for overlap eigenvalues          ... 1.000e-08
Number of eigenvalues below threshold      ... 0
Time for construction of square roots      ...    0.134 sec
Total time needed                          ...    0.330 sec

Time for model grid setup =    1.218 sec

------------------------------
INITIAL GUESS: MODEL POTENTIAL
------------------------------
Loading Hartree-Fock densities                     ... done
Calculating cut-offs                               ... done
Initializing the effective Hamiltonian             ... done
Setting up the integral package (SHARK)            ... done
Starting the Coulomb interaction                   ... done (   1.4 sec)
Reading the grid                                   ... done
Mapping shells                                     ... done
Starting the XC term evaluation                    ... done (   0.3 sec)
Transforming the Hamiltonian                       ... done (   0.1 sec)
Diagonalizing the Hamiltonian                      ... done (   0.2 sec)
Back transforming the eigenvectors                 ... done (   0.0 sec)
Now organizing SCF variables                       ... done
                      ------------------
                      INITIAL GUESS DONE (   3.3 sec)
                      ------------------
--------------
SCF ITERATIONS
--------------
ITER       Energy         Delta-E        Max-DP      RMS-DP      [F,P]     Damp
               ***  Starting incremental Fock matrix formation  ***
  0  -2121.6797815986   0.000000000000 0.06895531  0.00120795  0.2328790 0.7000
  1  -2122.3438015916  -0.664019992995 0.05230970  0.00097993  0.1441110 0.7000
                               ***Turning on DIIS***
  2  -2122.7561276489  -0.412326057389 0.11593018  0.00222031  0.0802497 0.0000
  3  -2117.7591159209   4.997011728046 0.03021102  0.00067911  0.0442278 0.0000
  4  -2123.4196553271  -5.660539406172 0.00875176  0.00022765  0.0070972 0.0000
  5  -2123.5966773174  -0.177021990348 0.00508768  0.00013449  0.0049380 0.0000
  6  -2123.5790345694   0.017642748042 0.00335195  0.00008724  0.0019220 0.0000
  7  -2123.6828444162  -0.103809846785 0.00282809  0.00006889  0.0015005 0.0000
  8  -2123.7003203619  -0.017475945742 0.00287712  0.00006478  0.0013947 0.0000
  9  -2123.6650903924   0.035229969528 0.00232503  0.00004432  0.0010980 0.0000
 10  -2123.6786357219  -0.013545329522 0.00482098  0.00008728  0.0008355 0.0000
                      *** Initiating the SOSCF procedure ***
                           *** Shutting down DIIS ***
                      *** Re-Reading the Fockian *** 
                      *** Removing any level shift *** 
ITER      Energy       Delta-E        Grad      Rot      Max-DP    RMS-DP
 11  -2123.56311472   0.1155210017  0.000300  0.000300  0.000290  0.000007
               *** Restarting incremental Fock matrix formation ***
 12  -2123.62736399  -0.0642492693  0.000892  0.006031  0.001075  0.000027
 13  -2123.62742777  -0.0000637834  0.000949  0.024462  0.004687  0.000089
 14  -2123.62750757  -0.0000797985  0.000450  0.002232  0.000501  0.000011
 15  -2123.62751918  -0.0000116127  0.000155  0.002216  0.000587  0.000010
 16  -2123.62752403  -0.0000048416  0.000101  0.003521  0.000719  0.000014
 17  -2123.62752746  -0.0000034360  0.000136  0.003145  0.000499  0.000010
 18  -2123.62752904  -0.0000015833  0.000059  0.001579  0.000234  0.000005
 19  -2123.62753002  -0.0000009743  0.000060  0.000769  0.000164  0.000003
 20  -2123.62753037  -0.0000003498  0.000028  0.000522  0.000121  0.000002
 21  -2123.62753047  -0.0000001010  0.000024  0.000186  0.000046  0.000001
 22  -2123.62753055  -0.0000000765  0.000016  0.000375  0.000074  0.000001
 23  -2123.62753060  -0.0000000551  0.000011  0.000203  0.000053  0.000001
 24  -2123.62753062  -0.0000000197  0.000004  0.000109  0.000027  0.000000
 25  -2123.62753063  -0.0000000055  0.000003  0.000029  0.000015  0.000000
                  ***Gradient check signals convergence***
              ***Rediagonalizing the Fockian in SOSCF/NRSCF***

               *****************************************************
               *                     SUCCESS                       *
               *           SCF CONVERGED AFTER  26 CYCLES          *
               *****************************************************


----------------
TOTAL SCF ENERGY
----------------

Total Energy       :        -2123.62753063 Eh          -57786.84293 eV

Components:
Nuclear Repulsion  :         6225.44622385 Eh          169403.00403 eV
Electronic Energy  :        -8349.07375449 Eh         -227189.84697 eV
One Electron Energy:       -15292.01788160 Eh         -416116.96154 eV
Two Electron Energy:         6942.94412712 Eh          188927.11457 eV

Virial components:
Potential Energy   :        -4245.62585014 Eh         -115529.35278 eV
Kinetic Energy     :         2121.99831951 Eh           57742.50985 eV
Virial Ratio       :            2.00076777


---------------
SCF CONVERGENCE
---------------

  Last Energy change         ...   -4.7166e-09  Tolerance :   1.0000e-08
  Last MAX-Density change    ...    8.6786e-06  Tolerance :   1.0000e-07
  Last RMS-Density change    ...    1.1058e-07  Tolerance :   5.0000e-09
  Last Orbital Gradient      ...    1.9038e-06  Tolerance :   1.0000e-05
  Last Orbital Rotation      ...    2.1017e-05  Tolerance :   1.0000e-05

             **** THE GBW FILE WAS UPDATED (/scratch/chu_02/allen/tmpyp4_amber_gaff2/conf1/conf1/Conf306.orca.gbw) ****
             **** DENSITY /scratch/chu_02/allen/tmpyp4_amber_gaff2/conf1/conf1/Conf306.orca.scfp WAS UPDATED ****
             **** ENERGY FILE WAS UPDATED (/scratch/chu_02/allen/tmpyp4_amber_gaff2/conf1/conf1/Conf306.orca.en.tmp) ****
             **** THE GBW FILE WAS UPDATED (/scratch/chu_02/allen/tmpyp4_amber_gaff2/conf1/conf1/Conf306.orca.gbw) ****
             **** DENSITY /scratch/chu_02/allen/tmpyp4_amber_gaff2/conf1/conf1/Conf306.orca.scfp WAS UPDATED ****
----------------
ORBITAL ENERGIES
----------------

  NO   OCC          E(Eh)            E(eV) 
   0   2.0000     -15.646029      -425.7501 
   1   2.0000     -15.639458      -425.5713 
   2   2.0000     -15.628719      -425.2791 
   3   2.0000     -15.616540      -424.9477 
   4   2.0000     -15.520218      -422.3266 
   5   2.0000     -15.515510      -422.1985 
   6   2.0000     -15.445471      -420.2926 
   7   2.0000     -15.443952      -420.2513 
   8   2.0000     -11.306978      -307.6785 
   9   2.0000     -11.302653      -307.5608 
  10   2.0000     -11.301740      -307.5360 
  11   2.0000     -11.299144      -307.4653 
  12   2.0000     -11.296049      -307.3811 
  13   2.0000     -11.295399      -307.3634 
  14   2.0000     -11.293534      -307.3127 
  15   2.0000     -11.289285      -307.1971 
  16   2.0000     -11.286328      -307.1166 
  17   2.0000     -11.285142      -307.0843 
  18   2.0000     -11.277428      -306.8744 
  19   2.0000     -11.275950      -306.8342 
  20   2.0000     -11.250102      -306.1308 
  21   2.0000     -11.242855      -305.9336 
  22   2.0000     -11.239336      -305.8379 
  23   2.0000     -11.238451      -305.8138 
  24   2.0000     -11.234741      -305.7129 
  25   2.0000     -11.234131      -305.6962 
  26   2.0000     -11.233129      -305.6690 
  27   2.0000     -11.226728      -305.4948 
  28   2.0000     -11.226590      -305.4910 
  29   2.0000     -11.223846      -305.4164 
  30   2.0000     -11.217974      -305.2566 
  31   2.0000     -11.217723      -305.2498 
  32   2.0000     -11.202656      -304.8398 
  33   2.0000     -11.202000      -304.8219 
  34   2.0000     -11.193022      -304.5776 
  35   2.0000     -11.192588      -304.5658 
  36   2.0000     -11.175430      -304.0989 
  37   2.0000     -11.173639      -304.0502 
  38   2.0000     -11.173589      -304.0488 
  39   2.0000     -11.172825      -304.0280 
  40   2.0000     -11.168689      -303.9155 
  41   2.0000     -11.168098      -303.8994 
  42   2.0000     -11.166881      -303.8663 
  43   2.0000     -11.164850      -303.8110 
  44   2.0000     -11.162596      -303.7497 
  45   2.0000     -11.161153      -303.7104 
  46   2.0000     -11.151583      -303.4500 
  47   2.0000     -11.149453      -303.3920 
  48   2.0000     -11.145835      -303.2936 
  49   2.0000     -11.143328      -303.2254 
  50   2.0000     -11.140502      -303.1485 
  51   2.0000     -11.137341      -303.0624 
  52   2.0000      -1.331564       -36.2337 
  53   2.0000      -1.325877       -36.0790 
  54   2.0000      -1.316629       -35.8273 
  55   2.0000      -1.307120       -35.5686 
  56   2.0000      -1.219388       -33.1812 
  57   2.0000      -1.211962       -32.9792 
  58   2.0000      -1.162489       -31.6329 
  59   2.0000      -1.156853       -31.4796 
  60   2.0000      -1.119306       -30.4579 
  61   2.0000      -1.113739       -30.3064 
  62   2.0000      -1.105774       -30.0897 
  63   2.0000      -1.097865       -29.8744 
  64   2.0000      -1.055225       -28.7141 
  65   2.0000      -1.049714       -28.5642 
  66   2.0000      -1.041227       -28.3332 
  67   2.0000      -1.032612       -28.0988 
  68   2.0000      -1.027803       -27.9680 
  69   2.0000      -1.010842       -27.5064 
  70   2.0000      -1.009353       -27.4659 
  71   2.0000      -0.996661       -27.1205 
  72   2.0000      -0.983737       -26.7688 
  73   2.0000      -0.974938       -26.5294 
  74   2.0000      -0.970559       -26.4103 
  75   2.0000      -0.959311       -26.1042 
  76   2.0000      -0.952276       -25.9127 
  77   2.0000      -0.943840       -25.6832 
  78   2.0000      -0.939641       -25.5689 
  79   2.0000      -0.923149       -25.1202 
  80   2.0000      -0.893821       -24.3221 
  81   2.0000      -0.881324       -23.9820 
  82   2.0000      -0.876366       -23.8471 
  83   2.0000      -0.868673       -23.6378 
  84   2.0000      -0.862655       -23.4740 
  85   2.0000      -0.856709       -23.3123 
  86   2.0000      -0.848469       -23.0880 
  87   2.0000      -0.842919       -22.9370 
  88   2.0000      -0.821702       -22.3596 
  89   2.0000      -0.798612       -21.7313 
  90   2.0000      -0.797423       -21.6990 
  91   2.0000      -0.739806       -20.1311 
  92   2.0000      -0.731210       -19.8972 
  93   2.0000      -0.729605       -19.8536 
  94   2.0000      -0.721337       -19.6286 
  95   2.0000      -0.719753       -19.5855 
  96   2.0000      -0.712275       -19.3820 
  97   2.0000      -0.707922       -19.2635 
  98   2.0000      -0.699111       -19.0238 
  99   2.0000      -0.693510       -18.8714 
 100   2.0000      -0.686067       -18.6688 
 101   2.0000      -0.680901       -18.5283 
 102   2.0000      -0.679367       -18.4865 
 103   2.0000      -0.673221       -18.3193 
 104   2.0000      -0.668778       -18.1984 
 105   2.0000      -0.665488       -18.1088 
 106   2.0000      -0.662467       -18.0266 
 107   2.0000      -0.661254       -17.9936 
 108   2.0000      -0.657611       -17.8945 
 109   2.0000      -0.656770       -17.8716 
 110   2.0000      -0.652053       -17.7433 
 111   2.0000      -0.649959       -17.6863 
 112   2.0000      -0.646380       -17.5889 
 113   2.0000      -0.641532       -17.4570 
 114   2.0000      -0.635044       -17.2804 
 115   2.0000      -0.622822       -16.9478 
 116   2.0000      -0.621439       -16.9102 
 117   2.0000      -0.616475       -16.7751 
 118   2.0000      -0.611057       -16.6277 
 119   2.0000      -0.609434       -16.5835 
 120   2.0000      -0.608333       -16.5536 
 121   2.0000      -0.603602       -16.4248 
 122   2.0000      -0.600008       -16.3270 
 123   2.0000      -0.592754       -16.1297 
 124   2.0000      -0.589687       -16.0462 
 125   2.0000      -0.585160       -15.9230 
 126   2.0000      -0.578339       -15.7374 
 127   2.0000      -0.573176       -15.5969 
 128   2.0000      -0.570240       -15.5170 
 129   2.0000      -0.560309       -15.2468 
 130   2.0000      -0.553838       -15.0707 
 131   2.0000      -0.545333       -14.8393 
 132   2.0000      -0.541609       -14.7379 
 133   2.0000      -0.535752       -14.5786 
 134   2.0000      -0.533898       -14.5281 
 135   2.0000      -0.529353       -14.4044 
 136   2.0000      -0.524749       -14.2791 
 137   2.0000      -0.522425       -14.2159 
 138   2.0000      -0.519492       -14.1361 
 139   2.0000      -0.517023       -14.0689 
 140   2.0000      -0.509498       -13.8641 
 141   2.0000      -0.505762       -13.7625 
 142   2.0000      -0.504837       -13.7373 
 143   2.0000      -0.502141       -13.6639 
 144   2.0000      -0.499820       -13.6008 
 145   2.0000      -0.498366       -13.5612 
 146   2.0000      -0.495588       -13.4856 
 147   2.0000      -0.492527       -13.4023 
 148   2.0000      -0.490279       -13.3412 
 149   2.0000      -0.469069       -12.7640 
 150   2.0000      -0.460844       -12.5402 
 151   2.0000      -0.451939       -12.2979 
 152   2.0000      -0.448445       -12.2028 
 153   2.0000      -0.446179       -12.1412 
 154   2.0000      -0.445573       -12.1247 
 155   2.0000      -0.439183       -11.9508 
 156   2.0000      -0.435415       -11.8482 
 157   2.0000      -0.431590       -11.7442 
 158   2.0000      -0.392406       -10.6779 
 159   2.0000      -0.382494       -10.4082 
 160   2.0000      -0.379718       -10.3326 
 161   2.0000      -0.372321       -10.1314 
 162   2.0000      -0.364829        -9.9275 
 163   2.0000      -0.360044        -9.7973 
 164   2.0000      -0.352928        -9.6037 
 165   2.0000      -0.345148        -9.3920 
 166   2.0000      -0.337219        -9.1762 
 167   2.0000      -0.333026        -9.0621 
 168   2.0000      -0.329408        -8.9636 
 169   2.0000      -0.300152        -8.1676 
 170   2.0000      -0.297173        -8.0865 
 171   2.0000      -0.288367        -7.8469 
 172   2.0000      -0.287034        -7.8106 
 173   2.0000      -0.255460        -6.9514 
 174   2.0000      -0.247886        -6.7453 
 175   2.0000      -0.188334        -5.1248 
 176   2.0000      -0.178251        -4.8505 
 177   2.0000      -0.067382        -1.8336 
 178   2.0000      -0.055199        -1.5020 
 179   0.0000       0.030528         0.8307 
 180   0.0000       0.070309         1.9132 
 181   0.0000       0.093045         2.5319 
 182   0.0000       0.098582         2.6825 
 183   0.0000       0.129338         3.5195 
 184   0.0000       0.133834         3.6418 
 185   0.0000       0.141759         3.8575 
 186   0.0000       0.150088         4.0841 
 187   0.0000       0.158618         4.3162 
 188   0.0000       0.161526         4.3953 
 189   0.0000       0.162404         4.4192 
 190   0.0000       0.167813         4.5664 
 191   0.0000       0.173495         4.7210 
 192   0.0000       0.198393         5.3986 
 193   0.0000       0.201760         5.4902 
 194   0.0000       0.201925         5.4947 
 195   0.0000       0.205649         5.5960 
 196   0.0000       0.207934         5.6582 
 197   0.0000       0.210992         5.7414 
 198   0.0000       0.213130         5.7996 
 199   0.0000       0.217703         5.9240 
 200   0.0000       0.232971         6.3395 
 201   0.0000       0.237171         6.4538 
 202   0.0000       0.241981         6.5846 
 203   0.0000       0.247978         6.7478 
 204   0.0000       0.250736         6.8229 
 205   0.0000       0.254130         6.9152 
 206   0.0000       0.257180         6.9982 
 207   0.0000       0.258983         7.0473 
 208   0.0000       0.262950         7.1552 
 209   0.0000       0.263795         7.1782 
 210   0.0000       0.267903         7.2900 
 211   0.0000       0.269585         7.3358 
 212   0.0000       0.272018         7.4020 
 213   0.0000       0.275687         7.5018 
 214   0.0000       0.278373         7.5749 
 215   0.0000       0.280550         7.6341 
 216   0.0000       0.280801         7.6410 
 217   0.0000       0.282264         7.6808 
 218   0.0000       0.285190         7.7604 
 219   0.0000       0.288840         7.8597 
 220   0.0000       0.290576         7.9070 
 221   0.0000       0.291986         7.9454 
 222   0.0000       0.293273         7.9804 
 223   0.0000       0.294895         8.0245 
 224   0.0000       0.299116         8.1394 
 225   0.0000       0.301689         8.2094 
 226   0.0000       0.303757         8.2657 
 227   0.0000       0.306716         8.3462 
 228   0.0000       0.307294         8.3619 
 229   0.0000       0.308256         8.3881 
 230   0.0000       0.314940         8.5700 
 231   0.0000       0.318080         8.6554 
 232   0.0000       0.325443         8.8558 
 233   0.0000       0.327773         8.9192 
 234   0.0000       0.332312         9.0427 
 235   0.0000       0.336952         9.1689 
 236   0.0000       0.355809         9.6821 
 237   0.0000       0.386369        10.5136 
 238   0.0000       0.395499        10.7621 
 239   0.0000       0.400183        10.8895 
 240   0.0000       0.406167        11.0524 
 241   0.0000       0.410242        11.1633 
 242   0.0000       0.422080        11.4854 
 243   0.0000       0.423507        11.5242 
 244   0.0000       0.431610        11.7447 
 245   0.0000       0.432915        11.7802 
 246   0.0000       0.433555        11.7976 
 247   0.0000       0.438051        11.9200 
 248   0.0000       0.440316        11.9816 
 249   0.0000       0.444041        12.0830 
 250   0.0000       0.446366        12.1462 
 251   0.0000       0.451917        12.2973 
 252   0.0000       0.455686        12.3998 
 253   0.0000       0.466303        12.6888 
 254   0.0000       0.470796        12.8110 
 255   0.0000       0.474972        12.9247 
 256   0.0000       0.482321        13.1246 
 257   0.0000       0.486210        13.2304 
 258   0.0000       0.491530        13.3752 
 259   0.0000       0.496556        13.5120 
 260   0.0000       0.500731        13.6256 
 261   0.0000       0.502598        13.6764 
 262   0.0000       0.506990        13.7959 
 263   0.0000       0.510045        13.8790 
 264   0.0000       0.511377        13.9153 
 265   0.0000       0.515022        14.0145 
 266   0.0000       0.517217        14.0742 
 267   0.0000       0.521894        14.2015 
 268   0.0000       0.536071        14.5872 
 269   0.0000       0.537966        14.6388 
 270   0.0000       0.541321        14.7301 
 271   0.0000       0.545137        14.8339 
 272   0.0000       0.546559        14.8726 
 273   0.0000       0.553446        15.0600 
 274   0.0000       0.560289        15.2462 
 275   0.0000       0.564189        15.3524 
 276   0.0000       0.573251        15.5989 
 277   0.0000       0.577830        15.7236 
 278   0.0000       0.580433        15.7944 
 279   0.0000       0.585282        15.9263 
 280   0.0000       0.587773        15.9941 
 281   0.0000       0.590839        16.0776 
 282   0.0000       0.594151        16.1677 
 283   0.0000       0.596970        16.2444 
 284   0.0000       0.600328        16.3357 
 285   0.0000       0.601338        16.3632 
 286   0.0000       0.604828        16.4582 
 287   0.0000       0.608762        16.5652 
 288   0.0000       0.611030        16.6270 
 289   0.0000       0.616275        16.7697 
 290   0.0000       0.618523        16.8309 
 291   0.0000       0.627665        17.0796 
 292   0.0000       0.639072        17.3900 
 293   0.0000       0.639288        17.3959 
 294   0.0000       0.643655        17.5147 
 295   0.0000       0.650842        17.7103 
 296   0.0000       0.657154        17.8821 
 297   0.0000       0.659428        17.9440 
 298   0.0000       0.660975        17.9860 
 299   0.0000       0.663426        18.0527 
 300   0.0000       0.671407        18.2699 
 301   0.0000       0.672041        18.2872 
 302   0.0000       0.679367        18.4865 
 303   0.0000       0.682161        18.5626 
 304   0.0000       0.683469        18.5981 
 305   0.0000       0.685208        18.6455 
 306   0.0000       0.690432        18.7876 
 307   0.0000       0.693292        18.8654 
 308   0.0000       0.697536        18.9809 
 309   0.0000       0.701432        19.0869 
 310   0.0000       0.703758        19.1502 
 311   0.0000       0.705516        19.1981 
 312   0.0000       0.706685        19.2299 
 313   0.0000       0.708064        19.2674 
 314   0.0000       0.713206        19.4073 
 315   0.0000       0.713886        19.4258 
 316   0.0000       0.715336        19.4653 
 317   0.0000       0.718172        19.5425 
 318   0.0000       0.719665        19.5831 
 319   0.0000       0.722195        19.6519 
 320   0.0000       0.727163        19.7871 
 321   0.0000       0.728376        19.8201 
 322   0.0000       0.731549        19.9065 
 323   0.0000       0.733323        19.9547 
 324   0.0000       0.739261        20.1163 
 325   0.0000       0.742582        20.2067 
 326   0.0000       0.744855        20.2685 
 327   0.0000       0.746005        20.2998 
 328   0.0000       0.746650        20.3174 
 329   0.0000       0.748826        20.3766 
 330   0.0000       0.752745        20.4832 
 331   0.0000       0.754986        20.5442 
 332   0.0000       0.756385        20.5823 
 333   0.0000       0.762291        20.7430 
 334   0.0000       0.764052        20.7909 
 335   0.0000       0.772220        21.0132 
 336   0.0000       0.775058        21.0904 
 337   0.0000       0.780985        21.2517 
 338   0.0000       0.785488        21.3742 
 339   0.0000       0.785652        21.3787 
 340   0.0000       0.790636        21.5143 
 341   0.0000       0.793148        21.5827 
 342   0.0000       0.796645        21.6778 
 343   0.0000       0.800066        21.7709 
 344   0.0000       0.803563        21.8661 
 345   0.0000       0.807541        21.9743 
 346   0.0000       0.810643        22.0587 
 347   0.0000       0.811937        22.0939 
 348   0.0000       0.813353        22.1325 
 349   0.0000       0.817069        22.2336 
 350   0.0000       0.819086        22.2885 
 351   0.0000       0.823769        22.4159 
 352   0.0000       0.825692        22.4682 
 353   0.0000       0.826953        22.5025 
 354   0.0000       0.830144        22.5894 
 355   0.0000       0.832216        22.6457 
 356   0.0000       0.834034        22.6952 
 357   0.0000       0.835550        22.7365 
 358   0.0000       0.838020        22.8037 
 359   0.0000       0.838269        22.8105 
 360   0.0000       0.840170        22.8622 
 361   0.0000       0.841615        22.9015 
 362   0.0000       0.841866        22.9083 
 363   0.0000       0.845044        22.9948 
 364   0.0000       0.846669        23.0390 
 365   0.0000       0.848380        23.0856 
 366   0.0000       0.850297        23.1377 
 367   0.0000       0.854388        23.2491 
 368   0.0000       0.859515        23.3886 
 369   0.0000       0.861925        23.4542 
 370   0.0000       0.865544        23.5526 
 371   0.0000       0.867284        23.6000 
 372   0.0000       0.871984        23.7279 
 373   0.0000       0.877495        23.8779 
 374   0.0000       0.879132        23.9224 
 375   0.0000       0.880380        23.9564 
 376   0.0000       0.884569        24.0704 
 377   0.0000       0.888955        24.1897 
 378   0.0000       0.894634        24.3442 
 379   0.0000       0.895191        24.3594 
 380   0.0000       0.899235        24.4694 
 381   0.0000       0.900481        24.5033 
 382   0.0000       0.903769        24.5928 
 383   0.0000       0.904234        24.6055 
 384   0.0000       0.904516        24.6131 
 385   0.0000       0.906598        24.6698 
 386   0.0000       0.908882        24.7319 
 387   0.0000       0.910647        24.7800 
 388   0.0000       0.913136        24.8477 
 389   0.0000       0.915360        24.9082 
 390   0.0000       0.916577        24.9413 
 391   0.0000       0.919781        25.0285 
 392   0.0000       0.922940        25.1145 
 393   0.0000       0.926197        25.2031 
 394   0.0000       0.926586        25.2137 
 395   0.0000       0.931257        25.3408 
 396   0.0000       0.933466        25.4009 
 397   0.0000       0.936986        25.4967 
 398   0.0000       0.937592        25.5132 
 399   0.0000       0.941885        25.6300 
 400   0.0000       0.942171        25.6378 
 401   0.0000       0.945620        25.7316 
 402   0.0000       0.949294        25.8316 
 403   0.0000       0.951518        25.8921 
 404   0.0000       0.953519        25.9466 
 405   0.0000       0.957167        26.0458 
 406   0.0000       0.958918        26.0935 
 407   0.0000       0.962836        26.2001 
 408   0.0000       0.966629        26.3033 
 409   0.0000       0.970290        26.4029 
 410   0.0000       0.973853        26.4999 
 411   0.0000       0.975611        26.5477 
 412   0.0000       0.982699        26.7406 
 413   0.0000       0.985401        26.8141 
 414   0.0000       0.989027        26.9128 
 415   0.0000       0.989856        26.9354 
 416   0.0000       0.999950        27.2100 
 417   0.0000       1.000571        27.2269 
 418   0.0000       1.007562        27.4172 
 419   0.0000       1.014363        27.6022 
 420   0.0000       1.023763        27.8580 
 421   0.0000       1.025522        27.9059 
 422   0.0000       1.032298        28.0902 
 423   0.0000       1.038960        28.2715 
 424   0.0000       1.045463        28.4485 
 425   0.0000       1.048589        28.5336 
 426   0.0000       1.052613        28.6431 
 427   0.0000       1.062756        28.9191 
 428   0.0000       1.064761        28.9736 
 429   0.0000       1.072840        29.1935 
 430   0.0000       1.077124        29.3100 
 431   0.0000       1.080157        29.3926 
 432   0.0000       1.085770        29.5453 
 433   0.0000       1.090113        29.6635 
 434   0.0000       1.095832        29.8191 
 435   0.0000       1.105477        30.0816 
 436   0.0000       1.108485        30.1634 
 437   0.0000       1.109996        30.2045 
 438   0.0000       1.116095        30.3705 
 439   0.0000       1.118690        30.4411 
 440   0.0000       1.120236        30.4832 
 441   0.0000       1.124920        30.6106 
 442   0.0000       1.130236        30.7553 
 443   0.0000       1.131134        30.7797 
 444   0.0000       1.133800        30.8523 
 445   0.0000       1.134845        30.8807 
 446   0.0000       1.135466        30.8976 
 447   0.0000       1.139908        31.0185 
 448   0.0000       1.144013        31.1302 
 449   0.0000       1.145953        31.1830 
 450   0.0000       1.151879        31.3442 
 451   0.0000       1.152772        31.3685 
 452   0.0000       1.154492        31.4153 
 453   0.0000       1.155473        31.4420 
 454   0.0000       1.159870        31.5617 
 455   0.0000       1.166710        31.7478 
 456   0.0000       1.174387        31.9567 
 457   0.0000       1.177660        32.0457 
 458   0.0000       1.181521        32.1508 
 459   0.0000       1.184659        32.2362 
 460   0.0000       1.188731        32.3470 
 461   0.0000       1.190003        32.3816 
 462   0.0000       1.200205        32.6592 
 463   0.0000       1.204183        32.7675 
 464   0.0000       1.207000        32.8441 
 465   0.0000       1.208077        32.8735 
 466   0.0000       1.214950        33.0605 
 467   0.0000       1.216150        33.0931 
 468   0.0000       1.221610        33.2417 
 469   0.0000       1.229758        33.4634 
 470   0.0000       1.233569        33.5671 
 471   0.0000       1.234930        33.6042 
 472   0.0000       1.235687        33.6247 
 473   0.0000       1.240183        33.7471 
 474   0.0000       1.242434        33.8083 
 475   0.0000       1.246728        33.9252 
 476   0.0000       1.250873        34.0380 
 477   0.0000       1.252602        34.0850 
 478   0.0000       1.254836        34.1458 
 479   0.0000       1.256686        34.1962 
 480   0.0000       1.259114        34.2622 
 481   0.0000       1.264034        34.3961 
 482   0.0000       1.267970        34.5032 
 483   0.0000       1.271087        34.5880 
 484   0.0000       1.275858        34.7179 
 485   0.0000       1.276110        34.7247 
 486   0.0000       1.281965        34.8840 
 487   0.0000       1.285186        34.9717 
 488   0.0000       1.289429        35.0872 
 489   0.0000       1.290988        35.1296 
 490   0.0000       1.293438        35.1962 
 491   0.0000       1.301165        35.4065 
 492   0.0000       1.303158        35.4607 
 493   0.0000       1.310116        35.6501 
 494   0.0000       1.314305        35.7641 
 495   0.0000       1.315372        35.7931 
 496   0.0000       1.318342        35.8739 
 497   0.0000       1.319496        35.9053 
 498   0.0000       1.325288        36.0629 
 499   0.0000       1.330872        36.2149 
 500   0.0000       1.334116        36.3031 
 501   0.0000       1.338007        36.4090 
 502   0.0000       1.340335        36.4724 
 503   0.0000       1.344354        36.5817 
 504   0.0000       1.350145        36.7393 
 505   0.0000       1.353081        36.8192 
 506   0.0000       1.354065        36.8460 
 507   0.0000       1.355151        36.8755 
 508   0.0000       1.358652        36.9708 
 509   0.0000       1.363363        37.0990 
 510   0.0000       1.365210        37.1493 
 511   0.0000       1.368264        37.2323 
[...]
 76 H s       :     0.890673  s :     0.890673
      pz      :     0.021993  p :     0.079604
      px      :     0.043353
      py      :     0.014258
 77 H s       :     0.888383  s :     0.888383
      pz      :     0.047684  p :     0.078953
      px      :     0.015014
      py      :     0.016255
 78 H s       :     0.888800  s :     0.888800
      pz      :     0.025730  p :     0.078892
      px      :     0.020540
      py      :     0.032621
 79 H s       :     0.909190  s :     0.909190
      pz      :     0.022051  p :     0.086652
      px      :     0.021751
      py      :     0.042849
 80 H s       :     0.869836  s :     0.869836
      pz      :     0.038951  p :     0.084231
      px      :     0.029987
      py      :     0.015293
 81 H s       :     0.887153  s :     0.887153
      pz      :     0.037767  p :     0.083914
      px      :     0.016150
      py      :     0.029997
 82 H s       :     0.915440  s :     0.915440
      pz      :     0.022108  p :     0.086834
      px      :     0.031398
      py      :     0.033329
 83 H s       :     0.872916  s :     0.872916
      pz      :     0.039245  p :     0.083999
      px      :     0.015261
      py      :     0.029494
 84 H s       :     0.887151  s :     0.887151
      pz      :     0.035779  p :     0.083671
      px      :     0.031716
      py      :     0.016176
 85 H s       :     0.893632  s :     0.893632
      pz      :     0.022495  p :     0.079738
      px      :     0.014088
      py      :     0.043154
 86 H s       :     0.890846  s :     0.890846
      pz      :     0.024724  p :     0.078851
      px      :     0.032989
      py      :     0.021138
 87 H s       :     0.890121  s :     0.890121
      pz      :     0.047975  p :     0.078710
      px      :     0.015604
      py      :     0.015131
 88 H s       :     0.913371  s :     0.913371
      pz      :     0.022010  p :     0.086974
      px      :     0.042578
      py      :     0.022385
 89 H s       :     0.871922  s :     0.871922
      pz      :     0.037929  p :     0.083898
      px      :     0.030498
      py      :     0.015471


                      *****************************
                      * MAYER POPULATION ANALYSIS *
                      *****************************

  NA   - Mulliken gross atomic population
  ZA   - Total nuclear charge
  QA   - Mulliken gross atomic charge
  VA   - Mayer's total valence
  BVA  - Mayer's bonded valence
  FA   - Mayer's free valence

  ATOM       NA         ZA         QA         VA         BVA        FA
  0 C      5.7947     6.0000     0.2053     3.8337     3.8337     0.0000
  1 N      7.4451     7.0000    -0.4451     3.3558     3.3558     0.0000
  2 C      6.0647     6.0000    -0.0647     3.9186     3.9186    -0.0000
  3 N      7.3373     7.0000    -0.3373     3.4486     3.4486     0.0000
  4 C      6.0696     6.0000    -0.0696     3.9839     3.9839    -0.0000
  5 N      7.5616     7.0000    -0.5616     3.0881     3.0881    -0.0000
  6 C      6.0714     6.0000    -0.0714     4.0005     4.0005     0.0000
  7 N      7.3387     7.0000    -0.3387     3.4391     3.4391     0.0000
  8 C      5.7977     6.0000     0.2023     3.8309     3.8309     0.0000
  9 N      7.5629     7.0000    -0.5629     3.0829     3.0829    -0.0000
 10 C      5.8847     6.0000     0.1153     3.8988     3.8988     0.0000
 11 N      7.4373     7.0000    -0.4373     3.3848     3.3848    -0.0000
 12 C      6.0712     6.0000    -0.0712     3.9175     3.9175     0.0000
 13 N      7.4373     7.0000    -0.4373     3.3911     3.3911    -0.0000
 14 C      5.7647     6.0000     0.2353     3.7897     3.7897     0.0000
 15 N      7.4409     7.0000    -0.4409     3.3713     3.3713     0.0000
 16 C      5.7668     6.0000     0.2332     3.7870     3.7870     0.0000
 17 C      6.0776     6.0000    -0.0776     3.9995     3.9995     0.0000
 18 C      6.1937     6.0000    -0.1937     3.7575     3.7575    -0.0000
 19 C      5.7758     6.0000     0.2242     3.8742     3.8742    -0.0000
 20 C      5.7898     6.0000     0.2102     3.8259     3.8259    -0.0000
 21 C      6.0797     6.0000    -0.0797     3.9079     3.9079     0.0000
 22 C      6.0864     6.0000    -0.0864     3.9830     3.9830    -0.0000
 23 C      6.0467     6.0000    -0.0467     3.9905     3.9905    -0.0000
 24 C      5.7963     6.0000     0.2037     3.8228     3.8228     0.0000
 25 C      5.8862     6.0000     0.1138     3.8895     3.8895    -0.0000
 26 C      6.0733     6.0000    -0.0733     3.9038     3.9038     0.0000
 27 C      5.7805     6.0000     0.2195     3.8784     3.8784     0.0000
 28 C      6.0543     6.0000    -0.0543     3.9881     3.9881    -0.0000
 29 C      6.1838     6.0000    -0.1838     3.7373     3.7373    -0.0000
 30 C      5.7620     6.0000     0.2380     3.7940     3.7940    -0.0000
 31 C      5.7839     6.0000     0.2161     3.8249     3.8249    -0.0000
 32 C      6.0640     6.0000    -0.0640     3.9193     3.9193    -0.0000
 33 C      6.0763     6.0000    -0.0763     3.9819     3.9819     0.0000
 34 C      6.0497     6.0000    -0.0497     3.9900     3.9900    -0.0000
 35 C      5.7904     6.0000     0.2096     3.8230     3.8230    -0.0000
 36 C      5.8873     6.0000     0.1127     3.8874     3.8874     0.0000
 37 C      6.0660     6.0000    -0.0660     3.9176     3.9176     0.0000
 38 C      5.7639     6.0000     0.2361     3.8002     3.8002    -0.0000
 39 C      6.0610     6.0000    -0.0610     3.9892     3.9892    -0.0000
 40 C      6.1868     6.0000    -0.1868     3.7375     3.7375     0.0000
 41 C      5.7788     6.0000     0.2212     3.8822     3.8822     0.0000
 42 C      5.7985     6.0000     0.2015     3.8272     3.8272    -0.0000
 43 C      6.0736     6.0000    -0.0736     3.9023     3.9023    -0.0000
 44 C      6.0895     6.0000    -0.0895     3.9855     3.9855     0.0000
 45 C      6.0551     6.0000    -0.0551     3.9924     3.9924    -0.0000
 46 C      5.7949     6.0000     0.2051     3.8265     3.8265    -0.0000
 47 C      5.8844     6.0000     0.1156     3.8938     3.8938     0.0000
 48 C      6.0732     6.0000    -0.0732     3.9052     3.9052    -0.0000
 49 C      5.7712     6.0000     0.2288     3.8868     3.8868    -0.0000
 50 C      6.0511     6.0000    -0.0511     3.9904     3.9904     0.0000
 51 C      6.1908     6.0000    -0.1908     3.7371     3.7371     0.0000
 52 H      0.9495     1.0000     0.0505     0.9853     0.9853    -0.0000
 53 H      1.0147     1.0000    -0.0147     0.9989     0.9989    -0.0000
 54 H      0.9551     1.0000     0.0449     1.0108     1.0108    -0.0000
 55 H      0.9513     1.0000     0.0487     0.9861     0.9861    -0.0000
 56 H      0.9440     1.0000     0.0560     0.9709     0.9709    -0.0000
 57 H      0.9456     1.0000     0.0544     0.9828     0.9828     0.0000
 58 H      0.9463     1.0000     0.0537     0.9859     0.9859     0.0000
 59 H      1.0100     1.0000    -0.0100     1.0010     1.0010     0.0000
 60 H      0.9543     1.0000     0.0457     1.0080     1.0080     0.0000
 61 H      0.8278     1.0000     0.1722     1.0423     1.0423     0.0000
 62 H      0.8264     1.0000     0.1736     1.0435     1.0435     0.0000
 63 H      0.9429     1.0000     0.0571     0.9853     0.9853    -0.0000
 64 H      1.0162     1.0000    -0.0162     0.9953     0.9953     0.0000
 65 H      0.9533     1.0000     0.0467     1.0094     1.0094    -0.0000
 66 H      0.9424     1.0000     0.0576     0.9851     0.9851    -0.0000
 67 H      0.9366     1.0000     0.0634     0.9720     0.9720    -0.0000
 68 H      0.9418     1.0000     0.0582     0.9868     0.9868    -0.0000
 69 H      0.9413     1.0000     0.0587     0.9830     0.9830     0.0000
 70 H      1.0256     1.0000    -0.0256     0.9935     0.9935     0.0000
 71 H      0.9521     1.0000     0.0479     1.0064     1.0064    -0.0000
 72 H      0.9400     1.0000     0.0600     0.9846     0.9846    -0.0000
 73 H      1.0126     1.0000    -0.0126     0.9992     0.9992    -0.0000
 74 H      0.9499     1.0000     0.0501     1.0100     1.0100    -0.0000
 75 H      0.9409     1.0000     0.0591     0.9852     0.9852    -0.0000
 76 H      0.9349     1.0000     0.0651     0.9717     0.9717     0.0000
 77 H      0.9395     1.0000     0.0605     0.9852     0.9852    -0.0000
 78 H      0.9403     1.0000     0.0597     0.9849     0.9849     0.0000
 79 H      1.0142     1.0000    -0.0142     0.9991     0.9991     0.0000
 80 H      0.9496     1.0000     0.0504     1.0071     1.0071    -0.0000
 81 H      0.9463     1.0000     0.0537     0.9855     0.9855    -0.0000
 82 H      1.0242     1.0000    -0.0242     0.9939     0.9939    -0.0000
 83 H      0.9576     1.0000     0.0424     1.0091     1.0091    -0.0000
 84 H      0.9469     1.0000     0.0531     0.9855     0.9855     0.0000
 85 H      0.9408     1.0000     0.0592     0.9716     0.9716     0.0000
 86 H      0.9441     1.0000     0.0559     0.9840     0.9840    -0.0000
 87 H      0.9433     1.0000     0.0567     0.9856     0.9856    -0.0000
 88 H      1.0202     1.0000    -0.0202     0.9950     0.9950    -0.0000
 89 H      0.9545     1.0000     0.0455     1.0068     1.0068     0.0000

  Mayer bond orders larger than 0.100000
B(  0-C ,  1-N ) :   1.1084 B(  0-C , 17-C ) :   1.6578 B(  0-C , 52-H ) :   0.9689 
B(  1-N ,  8-C ) :   1.1024 B(  1-N , 10-C ) :   0.9675 B(  2-C , 12-C ) :   1.5304 
B(  2-C , 16-C ) :   1.3302 B(  2-C , 53-H ) :   0.9775 B(  3-N , 14-C ) :   1.2075 
B(  3-N , 16-C ) :   1.1940 B(  3-N , 61-H ) :   0.8988 B(  4-C ,  6-C ) :   1.2485 
B(  4-C , 17-C ) :   1.2452 B(  4-C , 18-C ) :   1.3165 B(  5-N , 19-C ) :   1.4293 
B(  5-N , 27-C ) :   1.3979 B(  6-C ,  8-C ) :   1.6580 B(  6-C , 54-H ) :   0.9698 
B(  7-N , 30-C ) :   1.1929 B(  7-N , 38-C ) :   1.1993 B(  7-N , 62-H ) :   0.8978 
B(  8-C , 55-H ) :   0.9703 B(  9-N , 41-C ) :   1.4032 B(  9-N , 49-C ) :   1.4202 
B( 10-C , 56-H ) :   0.9763 B( 10-C , 57-H ) :   0.9826 B( 10-C , 58-H ) :   0.9832 
B( 11-N , 20-C ) :   1.1277 B( 11-N , 24-C ) :   1.1207 B( 11-N , 25-C ) :   0.9579 
B( 12-C , 14-C ) :   1.3329 B( 12-C , 59-H ) :   0.9764 B( 13-N , 31-C ) :   1.1336 
B( 13-N , 35-C ) :   1.1265 B( 13-N , 36-C ) :   0.9553 B( 14-C , 18-C ) :   1.1803 
B( 15-N , 42-C ) :   1.1131 B( 15-N , 46-C ) :   1.1165 B( 15-N , 47-C ) :   0.9623 
B( 16-C , 51-C ) :   1.1940 B( 17-C , 60-H ) :   0.9704 B( 18-C , 19-C ) :   1.1913 
B( 19-C , 21-C ) :   1.2211 B( 20-C , 28-C ) :   1.6227 B( 20-C , 63-H ) :   0.9702 
B( 21-C , 26-C ) :   1.6350 B( 21-C , 64-H ) :   0.9729 B( 22-C , 23-C ) :   1.2865 
B( 22-C , 28-C ) :   1.2737 B( 22-C , 29-C ) :   1.2248 B( 23-C , 24-C ) :   1.6168 
B( 23-C , 65-H ) :   0.9708 B( 24-C , 66-H ) :   0.9692 B( 25-C , 67-H ) :   0.9761 
B( 25-C , 68-H ) :   0.9829 B( 25-C , 69-H ) :   0.9821 B( 26-C , 27-C ) :   1.2171 
B( 26-C , 70-H ) :   0.9727 B( 27-C , 29-C ) :   1.2251 B( 28-C , 71-H ) :   0.9715 
B( 29-C , 30-C ) :   1.2212 B( 30-C , 32-C ) :   1.3026 B( 31-C , 39-C ) :   1.6202 
B( 31-C , 72-H ) :   0.9693 B( 32-C , 37-C ) :   1.5559 B( 32-C , 73-H ) :   0.9780 
B( 33-C , 34-C ) :   1.2836 B( 33-C , 39-C ) :   1.2763 B( 33-C , 40-C ) :   1.2302 
B( 34-C , 35-C ) :   1.6170 B( 34-C , 74-H ) :   0.9702 B( 35-C , 75-H ) :   0.9693 
B( 36-C , 76-H ) :   0.9764 B( 36-C , 77-H ) :   0.9819 B( 36-C , 78-H ) :   0.9829 
B( 37-C , 38-C ) :   1.3048 B( 37-C , 79-H ) :   0.9775 B( 38-C , 40-C ) :   1.2156 
B( 39-C , 80-H ) :   0.9713 B( 40-C , 41-C ) :   1.2257 B( 41-C , 43-C ) :   1.2086 
B( 42-C , 50-C ) :   1.6340 B( 42-C , 81-H ) :   0.9696 B( 43-C , 48-C ) :   1.6428 
B( 43-C , 82-H ) :   0.9733 B( 44-C , 45-C ) :   1.2681 B( 44-C , 50-C ) :   1.2679 
B( 44-C , 51-C ) :   1.2583 B( 45-C , 46-C ) :   1.6338 B( 45-C , 83-H ) :   0.9713 
B( 46-C , 84-H ) :   0.9702 B( 47-C , 85-H ) :   0.9761 B( 47-C , 86-H ) :   0.9828 
B( 47-C , 87-H ) :   0.9826 B( 48-C , 49-C ) :   1.2095 B( 48-C , 88-H ) :   0.9741 
B( 49-C , 51-C ) :   1.2217 B( 50-C , 89-H ) :   0.9712 

-------
TIMINGS
-------

Total SCF time: 0 days 0 hours 39 min 7 sec 

Total time                  ....    2347.844 sec
Sum of individual times     ....    2343.703 sec  ( 99.8%)

Fock matrix formation       ....    2326.671 sec  ( 99.1%)
Diagonalization             ....       4.736 sec  (  0.2%)
Density matrix formation    ....       0.993 sec  (  0.0%)
Population analysis         ....       0.314 sec  (  0.0%)
Initial guess               ....       2.125 sec  (  0.1%)
Orbital Transformation      ....       0.000 sec  (  0.0%)
Orbital Orthonormalization  ....       0.000 sec  (  0.0%)
DIIS solution               ....       2.620 sec  (  0.1%)
SOSCF solution              ....       5.026 sec  (  0.2%)

Maximum memory used throughout the entire SCF-calculation: 304.1 MB


           ************************************************************
           *        Program running with 8 parallel MPI-processes     *
           *              working on a common directory               *
           ************************************************************

------------------------------------------------------------------------------
                                ORCA  MP2 
------------------------------------------------------------------------------

Freezing NCore=104 chemical core electrons

----------
MP2 ENERGY (disk based algorithm)
----------

Dimension of the basis                    ...  918
Memory devoted to MP2                     ... 7000 MB   
Data format for buffers                   ... DOUBLE
Compression type for matrix containers    ... UNCOMPRESSED

-------------------------------
PARTIAL EXCHANGE TRANSFORMATION
-------------------------------

Transformation type                        ... one-operator
Generation of integrals (i,mue|j,nue)      ... ON
Generation of integrals (mue,kappa|nue,tau)... OFF
Generation of integrals (i,mue|a,nue)      ... OFF
Dimension of the basis                     ...  918
Number of internal MOs                     ...  127 (  52- 178)
Pair cutoff                                ... 2.500e-12 Eh
Number of AO pairs in the trafo            ... 421821
Total Number of distinct AO pairs          ... 421821
Memory devoted for trafo                   ... 7000.0 MB 
Max. Number of MO pairs treated together   ... 1088      
Number Format for Storage                  ... Double (8 Byte)
Integral package used                      ... LIBINT

Starting integral evaluation:
    ... done with AO integral generation
Closing buffer AOK     (38.17 GB; CompressionRatio= 1.33)
Collecting buffer AOK 
Number of MO pairs included in the trafo   ... 8128
------------------------
SORTING OF (i,mue|j,nue)
------------------------

IBATCH = 1 of  1
Closing buffer KAO     (51.03 GB; CompressionRatio= 1.00)
Collecting buffer KAO 
N(AO-Batches) Done                         ... 173561089 
N(AO-Batches) Skipped                      ... 167564874 
N(IJ)-pairs Skipped                        ...         0 
TOTAL TIME for half transformation         ...  1141.334 sec
AO-integral generation                     ...   252.984 sec
Half transformation                        ...   480.658 sec
K-integral sorting                         ...   110.429 sec

Finished integral transformation - now doing MP2 part

OPERATOR COMBINATION   0   0: ij=( 52..178, 52..178)
Process 2:   Internal MO  84
Process 5:   Internal MO 132
Process 0:   Internal MO  54
Process 0:   Internal MO  57
Process 1:   Internal MO  69
Process 0:   Internal MO  60
Process 4:   Internal MO 117
Process 0:   Internal MO  63
Process 1:   Internal MO  72
Process 2:   Internal MO  87
Process 3:   Internal MO 102
Process 0:   Internal MO  66
Process 7:   Internal MO 165
Process 1:   Internal MO  75
Process 6:   Internal MO 150
Process 2:   Internal MO  90
Process 1:   Internal MO  78
Process 5:   Internal MO 135
Process 4:   Internal MO 120
Process 3:   Internal MO 105
Process 2:   Internal MO  93
Process 1:   Internal MO  81
Process 2:   Internal MO  96
Process 4:   Internal MO 123
Process 6:   Internal MO 153
Process 3:   Internal MO 108
Process 7:   Internal MO 168
Process 5:   Internal MO 138
Process 2:   Internal MO  99
Process 3:   Internal MO 111
Process 4:   Internal MO 126
Process 6:   Internal MO 156
Process 5:   Internal MO 141
Process 3:   Internal MO 114
Process 7:   Internal MO 171
Process 4:   Internal MO 129
Process 6:   Internal MO 159
Process 5:   Internal MO 144
Process 7:   Internal MO 174
Process 6:   Internal MO 162
Process 5:   Internal MO 147
Process 7:   Internal MO 177
-----------------------------------------------
 MP2 CORRELATION ENERGY   :     -7.288527940 Eh
-----------------------------------------------


-------
TIMINGS
-------
Total time                : 1309.451 sec
Integral trafo            : 1152.426 sec ( 88.0%)
K(i,j)                    :    9.619 sec (  0.7%)
T(i,j)                    :    0.154 sec (  0.0%)

---------------------------------------
MP2 TOTAL ENERGY:    -2130.916058571 Eh
---------------------------------------

Maximum memory used throughout the entire MP2-calculation: 6735.7 MB

-------------------------   --------------------
FINAL SINGLE POINT ENERGY     -2130.916058571383
-------------------------   --------------------


                            ***************************************
                            *     ORCA property calculations      *
                            ***************************************


  WARNING: The energy has been calculated at the MP2 level but the densities
           used in the property calculations are still SCF densities
           MP2 response densities have not been calculated 
           use %mp2 Density relaxed end
           or  %mp2 Density unrelaxed end

                                    ---------------------
                                    Active property flags
                                    ---------------------
   (+) Dipole Moment


------------------------------------------------------------------------------
                       ORCA ELECTRIC PROPERTIES CALCULATION
------------------------------------------------------------------------------

Dipole Moment Calculation                       ... on
Quadrupole Moment Calculation                   ... off
Polarizability Calculation                      ... off
GBWName                                         ... /scratch/chu_02/allen/tmpyp4_amber_gaff2/conf1/conf1/Conf306.orca.gbw
Electron density                                ... /scratch/chu_02/allen/tmpyp4_amber_gaff2/conf1/conf1/Conf306.orca.scfp
The origin for moment calculation is the CENTER OF MASS  = (-0.000855, -0.004630 -0.000637)

-------------
DIPOLE MOMENT
-------------
                                X             Y             Z
Electronic contribution:      0.37511      -1.75523      -0.05818
Nuclear contribution   :      0.01894       0.20073       0.07116
                        -----------------------------------------
Total Dipole Moment    :      0.39405      -1.55450       0.01297
                        -----------------------------------------
Magnitude (a.u.)       :      1.60372
Magnitude (Debye)      :      4.07633



--------------------
Rotational spectrum 
--------------------
 
Rotational constants in cm-1:     0.001500     0.001474     0.000762 
Rotational constants in MHz :    44.965460    44.176835    22.841197 

 Dipole components along the rotational axes: 
x,y,z [a.u.] :     0.866553    -1.349367     0.014649 
x,y,z [Debye]:     2.202602    -3.429818     0.037234 

 

Timings for individual modules:

Sum of individual times         ...     3664.911 sec (=  61.082 min)
GTO integral calculation        ...        5.140 sec (=   0.086 min)   0.1 %
SCF iterations                  ...     2349.022 sec (=  39.150 min)  64.1 %
MP2 module                      ...     1310.748 sec (=  21.846 min)  35.8 %
                             ****ORCA TERMINATED NORMALLY****
TOTAL RUN TIME: 0 days 1 hours 1 minutes 7 seconds 467 msec
# of primitive gaussian functions

