
                                 *****************
                                 * O   R   C   A *
                                 *****************

                                            #,                                       
                                            ###                                      
                                            ####                                     
                                            #####                                    
                                            ######                                   
                                           ########,                                 
                                     ,,################,,,,,                         
                               ,,#################################,,                 
                          ,,##########################################,,             
                       ,#########################################, ''#####,          
                    ,#############################################,,   '####,        
                  ,##################################################,,,,####,       
                ,###########''''           ''''###############################       
              ,#####''   ,,,,##########,,,,          '''####'''          '####       
            ,##' ,,,,###########################,,,                        '##       
           ' ,,###''''                  '''############,,,                           
         ,,##''                                '''############,,,,        ,,,,,,###''
      ,#''                                            '''#######################'''  
     '                                                          ''''####''''         
             ,#######,   #######,   ,#######,      ##                                
            ,#'     '#,  ##    ##  ,#'     '#,    #''#        ######   ,####,        
            ##       ##  ##   ,#'  ##            #'  '#       #        #'  '#        
            ##       ##  #######   ##           ,######,      #####,   #    #        
            '#,     ,#'  ##    ##  '#,     ,#' ,#      #,         ##   #,  ,#        
             '#######'   ##     ##  '#######'  #'      '#     #####' # '####'        



                  #######################################################
                  #                        -***-                        #
                  #          Department of theory and spectroscopy      #
                  #    Directorship and core code : Frank Neese         #
                  #        Max Planck Institute fuer Kohlenforschung    #
                  #                Kaiser Wilhelm Platz 1               #
                  #                 D-45470 Muelheim/Ruhr               #
                  #                      Germany                        #
                  #                                                     #
                  #                  All rights reserved                #
                  #                        -***-                        #
                  #######################################################


                         Program Version 5.0.4 -  RELEASE  -


 With contributions from (in alphabetic order):
   Daniel Aravena         : Magnetic Suceptibility
   Michael Atanasov       : Ab Initio Ligand Field Theory (pilot matlab implementation)
   Alexander A. Auer      : GIAO ZORA, VPT2 properties, NMR spectrum
   Ute Becker             : Parallelization
   Giovanni Bistoni       : ED, misc. LED, open-shell LED, HFLD
   Martin Brehm           : Molecular dynamics
   Dmytro Bykov           : SCF Hessian
   Vijay G. Chilkuri      : MRCI spin determinant printing, contributions to CSF-ICE
   Dipayan Datta          : RHF DLPNO-CCSD density
   Achintya Kumar Dutta   : EOM-CC, STEOM-CC
   Dmitry Ganyushin       : Spin-Orbit,Spin-Spin,Magnetic field MRCI
   Miquel Garcia          : C-PCM and meta-GGA Hessian, CC/C-PCM, Gaussian charge scheme
   Yang Guo               : DLPNO-NEVPT2, F12-NEVPT2, CIM, IAO-localization
   Andreas Hansen         : Spin unrestricted coupled pair/coupled cluster methods
   Benjamin Helmich-Paris : MC-RPA, TRAH-SCF, COSX integrals
   Lee Huntington         : MR-EOM, pCC
   Robert Izsak           : Overlap fitted RIJCOSX, COSX-SCS-MP3, EOM
   Marcus Kettner         : VPT2
   Christian Kollmar      : KDIIS, OOCD, Brueckner-CCSD(T), CCSD density, CASPT2, CASPT2-K
   Simone Kossmann        : Meta GGA functionals, TD-DFT gradient, OOMP2, MP2 Hessian
   Martin Krupicka        : Initial AUTO-CI
   Lucas Lang             : DCDCAS
   Marvin Lechner         : AUTO-CI (C++ implementation), FIC-MRCC
   Dagmar Lenk            : GEPOL surface, SMD
   Dimitrios Liakos       : Extrapolation schemes; Compound Job, initial MDCI parallelization
   Dimitrios Manganas     : Further ROCIS development; embedding schemes
   Dimitrios Pantazis     : SARC Basis sets
   Anastasios Papadopoulos: AUTO-CI, single reference methods and gradients
   Taras Petrenko         : DFT Hessian,TD-DFT gradient, ASA, ECA, R-Raman, ABS, FL, XAS/XES, NRVS
   Peter Pinski           : DLPNO-MP2, DLPNO-MP2 Gradient
   Christoph Reimann      : Effective Core Potentials
   Marius Retegan         : Local ZFS, SOC
   Christoph Riplinger    : Optimizer, TS searches, QM/MM, DLPNO-CCSD(T), (RO)-DLPNO pert. Triples
   Tobias Risthaus        : Range-separated hybrids, TD-DFT gradient, RPA, STAB
   Michael Roemelt        : Original ROCIS implementation
   Masaaki Saitow         : Open-shell DLPNO-CCSD energy and density
   Barbara Sandhoefer     : DKH picture change effects
   Avijit Sen             : IP-ROCIS
   Kantharuban Sivalingam : CASSCF convergence, NEVPT2, FIC-MRCI
   Bernardo de Souza      : ESD, SOC TD-DFT
   Georgi Stoychev        : AutoAux, RI-MP2 NMR, DLPNO-MP2 response
   Willem Van den Heuvel  : Paramagnetic NMR
   Boris Wezisla          : Elementary symmetry handling
   Frank Wennmohs         : Technical directorship


 We gratefully acknowledge several colleagues who have allowed us to
 interface, adapt or use parts of their codes:
   Stefan Grimme, W. Hujo, H. Kruse, P. Pracht,  : VdW corrections, initial TS optimization,
                  C. Bannwarth, S. Ehlert          DFT functionals, gCP, sTDA/sTD-DF
   Ed Valeev, F. Pavosevic, A. Kumar             : LibInt (2-el integral package), F12 methods
   Garnet Chan, S. Sharma, J. Yang, R. Olivares  : DMRG
   Ulf Ekstrom                                   : XCFun DFT Library
   Mihaly Kallay                                 : mrcc  (arbitrary order and MRCC methods)
   Jiri Pittner, Ondrej Demel                    : Mk-CCSD
   Frank Weinhold                                : gennbo (NPA and NBO analysis)
   Christopher J. Cramer and Donald G. Truhlar   : smd solvation model
   Lars Goerigk                                  : TD-DFT with DH, B97 family of functionals
   V. Asgeirsson, H. Jonsson                     : NEB implementation
   FAccTs GmbH                                   : IRC, NEB, NEB-TS, DLPNO-Multilevel, CI-OPT
                                                   MM, QMMM, 2- and 3-layer-ONIOM, Crystal-QMMM,
                                                   LR-CPCM, SF, NACMEs, symmetry and pop. for TD-DFT,
                                                   nearIR, NL-DFT gradient (VV10), updates on ESD,
                                                   ML-optimized integration grids
   S Lehtola, MJT Oliveira, MAL Marques          : LibXC Library
   Liviu Ungur et al                             : ANISO software


 Your calculation uses the libint2 library for the computation of 2-el integrals
 For citations please refer to: http://libint.valeyev.net

 Your ORCA version has been built with support for libXC version: 5.1.0
 For citations please refer to: https://tddft.org/programs/libxc/

 This ORCA versions uses:
   CBLAS   interface :  Fast vector & matrix operations
   LAPACKE interface :  Fast linear algebra routines
   SCALAPACK package :  Parallel linear algebra routines
   Shared memory     :  Shared parallel matrices
   BLAS/LAPACK       :  OpenBLAS 0.3.15  USE64BITINT DYNAMIC_ARCH NO_AFFINITY Sandybridge SINGLE_THREADED
        Core in use  :  Sandybridge
   Copyright (c) 2011-2014, The OpenBLAS Project


================================================================================

----- Orbital basis set information -----
Your calculation utilizes the basis: cc-pVDZ 
       H, B-Ne : Obtained from the ccRepo (grant-hill.group.shef.ac.uk/ccrepo) Feb. 2017
                 T. H. Dunning, Jr., J. Chem. Phys. 90, 1007 (1989)
            He : Obtained from the ccRepo (grant-hill.group.shef.ac.uk/ccrepo) Feb. 2017
                 D. E. Woon, T. H. Dunning, Jr., J. Chem. Phys. 100, 2975 (1994)
  Li-Be, Na-Mg : Obtained from the ccRepo (grant-hill.group.shef.ac.uk/ccrepo) Feb. 2017
                 B. P. Prascher, D. E. Woon, K. A. Peterson, T. H. Dunning, Jr., A. K. Wilson, Theor. Chem. Acc. 128, 69 (2011)
         Al-Ar : Obtained from the ccRepo (grant-hill.group.shef.ac.uk/ccrepo) Feb. 2017
                 D. E. Woon, T. H. Dunning, Jr., J. Chem. Phys. 98, 1358 (1993)
            Ca : Obtained from the Peterson Research Group Website (tyr0.chem.wsu.edu/~kipeters) Feb. 2017
                 J. Koput, K. A. Peterson, J. Phys. Chem. 106, 9595 (2002)
         Sc-Zn : Obtained from the ccRepo (grant-hill.group.shef.ac.uk/ccrepo) Feb. 2017
                 N. B. Balabanov, K. A. Peterson, J. Chem. Phys. 123, 064107 (2005)
                 N. B. Balabanov, K. A. Peterson, J. Chem. Phys. 125, 074110 (2006)
         Ga-Kr : Obtained from the ccRepo (grant-hill.group.shef.ac.uk/ccrepo) Feb. 2017
                 A. K. Wilson, D. E. Woon, K. A. Peterson, T. H. Dunning, Jr., J. Chem. Phys. 110, 7667 (1999)

================================================================================
                                        WARNINGS
                       Please study these warnings very carefully!
================================================================================


WARNING: No MP2 level density has been requested!
         To caclulate MP2 level properties use
         %mp2 Density relaxed end
         or
         %mp2 Density unrelaxed end

WARNING: Post HF methods need fully converged wavefunctions
  ===> : Setting SCFConvForced true
         You can overwrite this default with %scf ConvForced false 


INFO   : the flag for use of the SHARK integral package has been found!

================================================================================
                                       INPUT FILE
================================================================================
NAME = /scratch/allen/tmpyp4_amber_gaff2/2.Mdgx/conf11/conf11/Conf172.orca
|  1> ! PAL2
|  2> ! mp2 cc-pvdz TightSCF  NoKeepInts
|  3> 
|  4> %scf
|  5>   MaxCore 2000
|  6> end
|  7> %mp2
|  8>   MaxCore 2000
|  9> end
| 10> * xyz 0 1
| 11>    C       -4.94200         5.19500        -0.12800
| 12>    C        1.47400         4.04100         0.05700
| 13>    C       -2.80200         4.09300         0.04900
| 14>    C       -2.22700         5.35500         0.26500
| 15>    C       -3.02000         6.48500         0.28000
| 16>    C       -5.18400         7.62200         0.14100
| 17>    C        0.13200         4.30700         0.06100
| 18>    C       -0.56900         3.05600         0.04700
| 19>    C        1.64900         2.61800         0.02300
| 20>    C       -4.19100         4.03600        -0.14600
| 21>    N       -4.35600         6.39600         0.08200
| 22>    N        0.38800         2.06700         0.02500
| 23>    N       -2.01000         0.39500        -0.07500
| 24>    N       -0.38800        -2.07400        -0.02700
| 25>    N        2.01000        -0.40100         0.06500
| 26>    C       -1.96000         2.86100         0.02400
| 27>    C       -2.62300         1.61500        -0.01800
| 28>    C       -5.57300        -4.32900         1.06600
| 29>    C       -4.07300         1.47100         0.05600
| 30>    C       -4.10600        -2.75600        -0.02600
| 31>    C       -4.99500        -2.75700        -1.11100
| 32>    C       -6.13200        -3.54200        -1.07600
| 33>    C       -7.65100        -5.11300         0.04000
| 34>    C       -4.32400         0.14100         0.03700
| 35>    C       -3.02500        -0.52000        -0.04800
| 36>    C       -4.42200        -3.56600         1.07500
| 37>    N       -6.40700        -4.31300         0.00100
| 38>    C       -2.86700        -1.92200        -0.04000
| 39>    C       -1.65000        -2.62400        -0.02700
| 40>    C        3.56800        -6.14200        -1.04000
| 41>    C       -1.47600        -4.04900        -0.03400
| 42>    C        2.80300        -4.09900        -0.00800
| 43>    C        3.65700        -4.38400         1.06900
| 44>    C        4.42700        -5.53000         1.05900
| 45>    C        5.24500        -7.58800         0.01400
| 46>    C       -0.13400        -4.31500        -0.02200
| 47>    C        0.56800        -3.06400        -0.02700
| 48>    C        2.77500        -5.01200        -1.07400
| 49>    N        4.37600        -6.39100         0.01700
| 50>    C        1.95900        -2.86900        -0.00900
| 51>    C        2.62100        -1.62200         0.00900
| 52>    C        5.54300         4.33900        -1.13000
| 53>    C        4.07000        -1.47900        -0.09400
| 54>    C        4.10400         2.75100        -0.02100
| 55>    C        5.02700         2.72900         1.03600
| 56>    C        6.16600         3.50900         0.97800
| 57>    C        7.61900         5.15300        -0.11500
| 58>    C        4.32100        -0.14800        -0.09200
| 59>    C        3.02500         0.51400         0.01500
| 60>    C        4.38700         3.58200        -1.11500
| 61>    C        2.86600         1.91600         0.01300
| 62>    N        6.41300         4.29600        -0.09500
| 63>    H       -6.01300         5.20000        -0.28700
| 64>    H        2.27400         4.76600         0.08100
| 65>    H       -1.16200         5.46300         0.43200
| 66>    H       -2.62400         7.47700         0.45100
| 67>    H       -5.45600         7.81600         1.18100
| 68>    H       -4.60600         8.45500        -0.25800
| 69>    H       -6.08100         7.46800        -0.45800
| 70>    H       -0.33200         5.28200         0.06900
| 71>    H       -4.69200         3.09300        -0.33200
| 72>    H        0.18200         1.07200         0.00500
| 73>    H       -0.18300        -1.08000        -0.02100
| 74>    H       -5.86400        -4.96200         1.89500
| 75>    H       -4.79400         2.27200         0.13900
| 76>    H       -4.80000        -2.16000        -1.99400
| 77>    H       -6.84100        -3.58200        -1.89300
| 78>    H       -8.42800        -4.53600         0.54600
| 79>    H       -7.95600        -5.33700        -0.98100
| 80>    H       -7.45600        -6.03700         0.58400
| 81>    H       -5.28700        -0.34400         0.10000
| 82>    H       -3.78000        -3.60100         1.94700
| 83>    H        3.58700        -6.86800        -1.84300
| 84>    H       -2.27600        -4.77400        -0.05000
| 85>    H        3.71400        -3.72400         1.92600
| 86>    H        5.09200        -5.79500         1.87100
| 87>    H        6.20500        -7.32900        -0.43900
| 88>    H        5.39300        -7.91700         1.04200
| 89>    H        4.75900        -8.37300        -0.56400
| 90>    H        0.32900        -5.29000        -0.00800
| 91>    H        2.14600        -4.84200        -1.94000
| 92>    H        5.80800         4.98600        -1.95600
| 93>    H        4.78800        -2.28100        -0.18500
| 94>    H        4.86000         2.11400         1.91200
| 95>    H        6.90100         3.53100         1.77200
| 96>    H        7.38300         6.10900         0.35600
| 97>    H        8.41400         4.65200         0.43500
| 98>    H        7.92100         5.31000        -1.15000
| 99>    H        5.28300         0.33600        -0.17900
|100>    H        3.72000         3.63200        -1.96700
|101> *
|102> 
|103>                          ****END OF INPUT****
================================================================================

                       ****************************
                       * Single Point Calculation *
                       ****************************

---------------------------------
CARTESIAN COORDINATES (ANGSTROEM)
---------------------------------
  C     -4.942000    5.195000   -0.128000
  C      1.474000    4.041000    0.057000
  C     -2.802000    4.093000    0.049000
  C     -2.227000    5.355000    0.265000
  C     -3.020000    6.485000    0.280000
  C     -5.184000    7.622000    0.141000
  C      0.132000    4.307000    0.061000
  C     -0.569000    3.056000    0.047000
  C      1.649000    2.618000    0.023000
  C     -4.191000    4.036000   -0.146000
  N     -4.356000    6.396000    0.082000
  N      0.388000    2.067000    0.025000
  N     -2.010000    0.395000   -0.075000
  N     -0.388000   -2.074000   -0.027000
  N      2.010000   -0.401000    0.065000
  C     -1.960000    2.861000    0.024000
  C     -2.623000    1.615000   -0.018000
  C     -5.573000   -4.329000    1.066000
  C     -4.073000    1.471000    0.056000
  C     -4.106000   -2.756000   -0.026000
  C     -4.995000   -2.757000   -1.111000
  C     -6.132000   -3.542000   -1.076000
  C     -7.651000   -5.113000    0.040000
  C     -4.324000    0.141000    0.037000
  C     -3.025000   -0.520000   -0.048000
  C     -4.422000   -3.566000    1.075000
  N     -6.407000   -4.313000    0.001000
  C     -2.867000   -1.922000   -0.040000
  C     -1.650000   -2.624000   -0.027000
  C      3.568000   -6.142000   -1.040000
  C     -1.476000   -4.049000   -0.034000
  C      2.803000   -4.099000   -0.008000
  C      3.657000   -4.384000    1.069000
  C      4.427000   -5.530000    1.059000
  C      5.245000   -7.588000    0.014000
  C     -0.134000   -4.315000   -0.022000
  C      0.568000   -3.064000   -0.027000
  C      2.775000   -5.012000   -1.074000
  N      4.376000   -6.391000    0.017000
  C      1.959000   -2.869000   -0.009000
  C      2.621000   -1.622000    0.009000
  C      5.543000    4.339000   -1.130000
  C      4.070000   -1.479000   -0.094000
  C      4.104000    2.751000   -0.021000
  C      5.027000    2.729000    1.036000
  C      6.166000    3.509000    0.978000
  C      7.619000    5.153000   -0.115000
  C      4.321000   -0.148000   -0.092000
  C      3.025000    0.514000    0.015000
  C      4.387000    3.582000   -1.115000
  C      2.866000    1.916000    0.013000
  N      6.413000    4.296000   -0.095000
  H     -6.013000    5.200000   -0.287000
  H      2.274000    4.766000    0.081000
  H     -1.162000    5.463000    0.432000
  H     -2.624000    7.477000    0.451000
  H     -5.456000    7.816000    1.181000
  H     -4.606000    8.455000   -0.258000
  H     -6.081000    7.468000   -0.458000
  H     -0.332000    5.282000    0.069000
  H     -4.692000    3.093000   -0.332000
  H      0.182000    1.072000    0.005000
  H     -0.183000   -1.080000   -0.021000
  H     -5.864000   -4.962000    1.895000
  H     -4.794000    2.272000    0.139000
  H     -4.800000   -2.160000   -1.994000
  H     -6.841000   -3.582000   -1.893000
  H     -8.428000   -4.536000    0.546000
  H     -7.956000   -5.337000   -0.981000
  H     -7.456000   -6.037000    0.584000
  H     -5.287000   -0.344000    0.100000
  H     -3.780000   -3.601000    1.947000
  H      3.587000   -6.868000   -1.843000
  H     -2.276000   -4.774000   -0.050000
  H      3.714000   -3.724000    1.926000
  H      5.092000   -5.795000    1.871000
  H      6.205000   -7.329000   -0.439000
  H      5.393000   -7.917000    1.042000
  H      4.759000   -8.373000   -0.564000
  H      0.329000   -5.290000   -0.008000
  H      2.146000   -4.842000   -1.940000
  H      5.808000    4.986000   -1.956000
  H      4.788000   -2.281000   -0.185000
  H      4.860000    2.114000    1.912000
  H      6.901000    3.531000    1.772000
  H      7.383000    6.109000    0.356000
  H      8.414000    4.652000    0.435000
  H      7.921000    5.310000   -1.150000
  H      5.283000    0.336000   -0.179000
  H      3.720000    3.632000   -1.967000

----------------------------
CARTESIAN COORDINATES (A.U.)
----------------------------
  NO LB      ZA    FRAG     MASS         X           Y           Z
   0 C     6.0000    0    12.011   -9.339027    9.817127   -0.241885
   1 C     6.0000    0    12.011    2.785456    7.636383    0.107714
   2 C     6.0000    0    12.011   -5.295013    7.734649    0.092597
   3 C     6.0000    0    12.011   -4.208420   10.119483    0.500777
   4 C     6.0000    0    12.011   -5.706973   12.254874    0.529123
   5 C     6.0000    0    12.011   -9.796340   14.403493    0.266451
   6 C     6.0000    0    12.011    0.249444    8.139050    0.115273
   7 C     6.0000    0    12.011   -1.075254    5.775003    0.088817
   8 C     6.0000    0    12.011    3.116158    4.947303    0.043464
   9 C     6.0000    0    12.011   -7.919842    7.626935   -0.275900
  10 N     7.0000    0    14.007   -8.231647   12.086688    0.154958
  11 N     7.0000    0    14.007    0.733214    3.906064    0.047243
  12 N     7.0000    0    14.007   -3.798350    0.746442   -0.141729
  13 N     7.0000    0    14.007   -0.733214   -3.919292   -0.051023
  14 N     7.0000    0    14.007    3.798350   -0.757780    0.122832
  15 C     6.0000    0    12.011   -3.703863    5.406506    0.045353
  16 C     6.0000    0    12.011   -4.956752    3.051908   -0.034015
  17 C     6.0000    0    12.011  -10.531444   -8.180624    2.014448
  18 C     6.0000    0    12.011   -7.696855    2.779787    0.105825
  19 C     6.0000    0    12.011   -7.759216   -5.208085   -0.049133
  20 C     6.0000    0    12.011   -9.439182   -5.209975   -2.099486
  21 C     6.0000    0    12.011  -11.587801   -6.693410   -2.033345
  22 C     6.0000    0    12.011  -14.458295   -9.662170    0.075589
  23 C     6.0000    0    12.011   -8.171176    0.266451    0.069920
  24 C     6.0000    0    12.011   -5.716422   -0.982658   -0.090707
  25 C     6.0000    0    12.011   -8.356369   -6.738763    2.031456
  26 N     7.0000    0    14.007  -12.107475   -8.150389    0.001890
  27 C     6.0000    0    12.011   -5.417845   -3.632054   -0.075589
  28 C     6.0000    0    12.011   -3.118048   -4.958641   -0.051023
  29 C     6.0000    0    12.011    6.742543  -11.606698   -1.965315
  30 C     6.0000    0    12.011   -2.789236   -7.651501   -0.064251
  31 C     6.0000    0    12.011    5.296902   -7.745987   -0.015118
  32 C     6.0000    0    12.011    6.910728   -8.284559    2.020117
  33 C     6.0000    0    12.011    8.365818  -10.450186    2.001220
  34 C     6.0000    0    12.011    9.911614  -14.339242    0.026456
  35 C     6.0000    0    12.011   -0.253223   -8.154168   -0.041574
  36 C     6.0000    0    12.011    1.073364   -5.790121   -0.051023
  37 C     6.0000    0    12.011    5.243990   -9.471307   -2.029566
  38 N     7.0000    0    14.007    8.269442  -12.077240    0.032125
  39 C     6.0000    0    12.011    3.701973   -5.421624   -0.017008
  40 C     6.0000    0    12.011    4.952972   -3.065136    0.017008
  41 C     6.0000    0    12.011   10.474752    8.199522   -2.135391
  42 C     6.0000    0    12.011    7.691185   -2.794905   -0.177634
  43 C     6.0000    0    12.011    7.755436    5.198637   -0.039684
  44 C     6.0000    0    12.011    9.499653    5.157063    1.957756
  45 C     6.0000    0    12.011   11.652051    6.631049    1.848152
  46 C     6.0000    0    12.011   14.397823    9.737759   -0.217319
  47 C     6.0000    0    12.011    8.165507   -0.279679   -0.173855
  48 C     6.0000    0    12.011    5.716422    0.971319    0.028346
  49 C     6.0000    0    12.011    8.290229    6.768999   -2.107045
  50 C     6.0000    0    12.011    5.415955    3.620715    0.024566
  51 N     7.0000    0    14.007   12.118814    8.118263   -0.179524
  52 H     1.0000    0     1.008  -11.362923    9.826576   -0.542351
  53 H     1.0000    0     1.008    4.297237    9.006435    0.153068
  54 H     1.0000    0     1.008   -2.195862   10.323574    0.816362
  55 H     1.0000    0     1.008   -4.958641   14.129482    0.852266
  56 H     1.0000    0     1.008  -10.310346   14.770099    2.231767
  57 H     1.0000    0     1.008   -8.704079   15.977634   -0.487549
  58 H     1.0000    0     1.008  -11.491425   14.112475   -0.865495
  59 H     1.0000    0     1.008   -0.627389    9.981533    0.130391
  60 H     1.0000    0     1.008   -8.866595    5.844923   -0.627389
  61 H     1.0000    0     1.008    0.343930    2.025786    0.009449
  62 H     1.0000    0     1.008   -0.345820   -2.040904   -0.039684
  63 H     1.0000    0     1.008  -11.081354   -9.376821    3.581031
  64 H     1.0000    0     1.008   -9.059347    4.293458    0.262672
  65 H     1.0000    0     1.008   -9.070685   -4.081808   -3.768114
  66 H     1.0000    0     1.008  -12.927616   -6.768999   -3.577252
  67 H     1.0000    0     1.008  -15.926612   -8.571798    1.031790
  68 H     1.0000    0     1.008  -15.034661  -10.085468   -1.853821
  69 H     1.0000    0     1.008  -14.089798  -11.408277    1.103600
  70 H     1.0000    0     1.008   -9.990982   -0.650066    0.188973
  71 H     1.0000    0     1.008   -7.143165   -6.804904    3.679297
  72 H     1.0000    0     1.008    6.778448  -12.978639   -3.482765
  73 H     1.0000    0     1.008   -4.301017   -9.021553   -0.094486
  74 H     1.0000    0     1.008    7.018443   -7.037340    3.639613
  75 H     1.0000    0     1.008    9.622485  -10.950963    3.535678
  76 H     1.0000    0     1.008   11.725751  -13.849803   -0.829590
  77 H     1.0000    0     1.008   10.191293  -14.960962    1.969095
  78 H     1.0000    0     1.008    8.993207  -15.822677   -1.065806
  79 H     1.0000    0     1.008    0.621720   -9.996651   -0.015118
  80 H     1.0000    0     1.008    4.055352   -9.150054   -3.666069
  81 H     1.0000    0     1.008   10.975529    9.422175   -3.696304
  82 H     1.0000    0     1.008    9.048009   -4.310465   -0.349599
  83 H     1.0000    0     1.008    9.184069    3.994881    3.613156
  84 H     1.0000    0     1.008   13.041000    6.672623    3.348595
  85 H     1.0000    0     1.008   13.951848   11.544337    0.672743
  86 H     1.0000    0     1.008   15.900156    8.791006    0.822031
  87 H     1.0000    0     1.008   14.968521   10.034446   -2.173185
  88 H     1.0000    0     1.008    9.983423    0.634948   -0.338261
  89 H     1.0000    0     1.008    7.029781    6.863485   -3.717091

--------------------------------
INTERNAL COORDINATES (ANGSTROEM)
--------------------------------
 C      0   0   0     0.000000000000     0.00000000     0.00000000
 C      1   0   0     6.521579333260     0.00000000     0.00000000
 C      1   2   0     2.413572663087    17.22067253     0.00000000
 C      3   1   2     1.403540166864    87.93622345    17.15180042
 C      4   3   1     1.380570172067   120.15315505     0.12170701
 C      5   4   3     2.448466050408   152.51588915     1.61147169
 C      2   1   3     1.368114030335     2.06036000   249.47001482
 C      7   2   4     1.434084376876   108.05010202   198.41084789
 C      2   1   3     1.434123425651   107.15491410    10.91375526
 C      1   2   7     1.381161105737    46.91668252   237.93641377
 N      1   2   7     1.352736855416    74.12829956    51.65729441
 N      9   2   1     1.376127174356   106.58526707   357.38700626
 N     12   9   2     2.925062050624   168.53581413   171.12065651
 N     13  12   9     2.954513327098    91.55032014    11.12112580
 N     14  13  12     2.925371258490    88.43092389   359.84326247
 C      8   7   2     1.404790019896   127.24786865   181.11170171
 C     13  12   9     1.366535034311    81.72106996   188.00453233
 C     14  13  12     5.758810554272    80.56209567   166.76250791
 C     17  13  12     1.459010623676   111.08861209   183.82872609
 C     18  14  13     2.412235892279    27.27532823    36.33507194
 C     20  18  14     1.402692767501    87.95206320   148.94598259
 C     21  20  18     1.382106725257   120.14573887   359.70382047
 C     18  14  13     2.446510985056   144.15733107    82.80075377
 C     19  17  13     1.353610726908   106.29293361   359.75308708
 C     13  12   9     1.366813447402   172.21332906    33.46711076
 C     18  14  13     1.380960173213    15.08449437   309.23336894
 N     22  21  20     1.352773077792   120.73759875     0.27865223
 C     25  13  17     1.410897586645   125.60330303   182.37774668
 C     14  13  12     1.376642291955    80.24689249   177.85461986
 C     14  13  12     5.764089607215   164.51507311   312.20821879
 C     29  14  13     1.435600919476   106.58649366   178.76395472
 C     30  14  13     2.413316804732    27.10625047    82.12560436
 C     32  30  14     1.403734305344    87.90059683   149.76154742
 C     33  32  30     1.380694028378   120.14881443   359.74174632
 C     34  33  32     2.448777858443   152.49203239     2.45173620
 C     31  29  14     1.368160809262   108.16950133     0.70383075
 C     14  13  12     1.376239804685   169.26375223   353.09862627
 C     30  14  13     1.380907310430    14.68948582   353.70041132
 N     34  33  32     1.352658863128   120.85575621     0.19603406
 C     37  14  29     1.404717053360   126.01551127   180.90772073
 C     15  14  13     1.366491126938    81.61824056   183.09049352
 C      2   1   3     4.249062720177   157.18845802   136.96178483
 C     41  15  14     1.459677704153   111.05201287   175.08990246
 C     42   2   1     2.412953791518    41.78584867   207.04100072
 C     44  42   2     1.403446472082    87.95153797   233.97558675
 C     45  44  42     1.381696421071   120.11137308     0.19721020
 C     42   2   1     2.450019795838   135.97209175   117.35584982
 C     43  41  15     1.354461516618   106.26758155     0.30894352
 C     15  14  13     1.367461151185   171.87382904   332.35056460
 C     42   2   1     1.381886391857    32.59078432   255.89627991
 C      9   2   1     1.404988612053   126.98745415   178.39134379
 N     42   2   1     1.352765315936   113.57249190   145.09243901
 H      1   2   7     1.082749740245   167.99171627   205.54279073
 H      2   1   3     1.079907866440   127.63612974   189.34408503
 H      4   3   1     1.083410356236   121.06908228   179.51658866
 H      5   4   3     1.081721313463   122.82347263   179.45055964
 H      6   5   4     1.092346099000   104.38865207   100.08605266
 H      6   5   4     1.089575146559    84.66150058   209.58040384
 H      6   5   4     1.089553119403   133.88389130   322.45692639
 H     55   4   3     0.923812751590   143.42558940    56.32321492
 H     10   1   2     1.083903132203   118.74878823   187.94553068
 H     12   9   2     1.016297692608   125.29023241   180.00180175
 H     14  13  12     1.014936943854    44.97226959   359.42596618
 H     18  14  13     1.082871645210   128.03556573   234.20482432
 H     61  10   1     0.951990546172   135.63645996   239.06601263
 H     21  20  18     1.083569563987   121.05669627   180.67006309
 H     22  21  20     1.082483256222   122.73097286   180.59748951
 H     23  18  14     1.092105306278   103.92715769   234.93429879
 H     23  18  14     1.088871893291   134.19244188    12.25587044
 H     23  18  14     1.089833473518    84.85857450   125.45241208
 H     24  19  17     1.080075460327   127.28078426   178.44613241
 H     26  18  14     1.083408048706   118.76995697   244.94906660
 H     30  14  13     1.082703098730   127.99711412   279.66882698
 H     31  29  14     1.079759695488   125.22293469   180.92530585
 H     33  32  30     1.083188810873   121.01964473   180.74284758
 H     34  33  32     1.082494341787   122.70821597   180.59516895
 H     35  34  33     1.092652735319   105.73575241    97.19771933
 H     35  34  33     1.089462711615    84.05943581   206.43036958
 H     35  34  33     1.089268102902   133.08365142   318.50306270
 H     36  31  29     1.079439669458   126.61599965   178.98859863
 H     38  30  73     1.083742127999   118.77264435   359.90091293
 H     42   2   1     1.082178358682   119.31790784     1.72396947
 H     43  41  15     1.080281907652   126.36969097   182.06329380
 H     45  44  42     1.083277434455   121.10105945   179.58025624
 H     46  45  44     1.082194529648   122.72144639   179.46906377
 H     47  42   2     1.091546151109   106.65128841   315.16475048
 H     47  42   2     1.088818625851   132.46019523    94.52397119
 H     47  42   2     1.089531091801    83.63838232   206.04504406
 H     48  43  41     1.080402239909   127.23657387   181.62955349
 H     50  42   2     1.083186502870   118.77001737    94.71359229

---------------------------
INTERNAL COORDINATES (A.U.)
---------------------------
 C      0   0   0     0.000000000000     0.00000000     0.00000000
 C      1   0   0    12.323998900502     0.00000000     0.00000000
 C      1   2   0     4.560991337553    17.22067253     0.00000000
 C      3   1   2     2.652306533331    87.93622345    17.15180042
 C      4   3   1     2.608899533866   120.15315505     0.12170701
 C      5   4   3     4.626930283475   152.51588915     1.61147169
 C      2   1   3     2.585360837309     2.06036000   249.47001482
 C      7   2   4     2.710026725231   108.05010202   198.41084789
 C      2   1   3     2.710100516721   107.15491410    10.91375526
 C      1   2   7     2.610016236666    46.91668252   237.93641377
 N      1   2   7     2.556302187998    74.12829956    51.65729441
 N      9   2   1     2.600503484979   106.58526707   357.38700626
 N     12   9   2     5.527566200405   168.53581413   171.12065651
 N     13  12   9     5.583221047236    91.55032014    11.12112580
 N     14  13  12     5.528150518591    88.43092389   359.84326247
 C      8   7   2     2.654668413270   127.24786865   181.11170171
 C     13  12   9     2.582376967257    81.72106996   188.00453233
 C     14  13  12    10.882574804710    80.56209567   166.76250791
 C     17  13  12     2.757130505230   111.08861209   183.82872609
 C     18  14  13     4.558465206823    27.27532823    36.33507194
 C     20  18  14     2.650705180609    87.95206320   148.94598259
 C     21  20  18     2.611803198586   120.14573887   359.70382047
 C     18  14  13     4.623235745386   144.15733107    82.80075377
 C     19  17  13     2.557953565794   106.29293361   359.75308708
 C     13  12   9     2.582903091751   172.21332906    33.46711076
 C     18  14  13     2.609636529225    15.08449437   309.23336894
 N     22  21  20     2.556370638369   120.73759875     0.27865223
 C     25  13  17     2.666210041769   125.60330303   182.37774668
 C     14  13  12     2.601476916169    80.24689249   177.85461986
 C     14  13  12    10.892550769017   164.51507311   312.20821879
 C     29  14  13     2.712892575415   106.58649366   178.76395472
 C     30  14  13     4.560507835333    27.10625047    82.12560436
 C     32  30  14     2.652673401891    87.90059683   149.76154742
 C     33  32  30     2.609133588376   120.14881443   359.74174632
 C     34  33  32     4.627519515267   152.49203239     2.45173620
 C     31  29  14     2.585449236669   108.16950133     0.70383075
 C     14  13  12     2.600716325456   169.26375223   353.09862627
 C     30  14  13     2.609536633043    14.68948582   353.70041132
 N     34  33  32     2.556154803934   120.85575621     0.19603406
 C     37  14  29     2.654530526499   126.01551127   180.90772073
 C     15  14  13     2.582293994346    81.61824056   183.09049352
 C      2   1   3     8.029564866989   157.18845802   136.96178483
 C     41  15  14     2.758391104639   111.05201287   175.08990246
 C     42   2   1     4.559821839776    41.78584867   207.04100072
 C     44  42   2     2.652129475853    87.95153797   233.97558675
 C     45  44  42     2.611027836043   120.11137308     0.19721020
 C     42   2   1     4.629866436820   135.97209175   117.35584982
 C     43  41  15     2.559561325344   106.26758155     0.30894352
 C     15  14  13     2.584127074516   171.87382904   332.35056460
 C     42   2   1     2.611386828803    32.59078432   255.89627991
 C      9   2   1     2.655043698059   126.98745415   178.39134379
 N     42   2   1     2.556355970587   113.57249190   145.09243901
 H      1   2   7     2.046100480637   167.99171627   205.54279073
 H      2   1   3     2.040730117440   127.63612974   189.34408503
 H      4   3   1     2.047348863941   121.06908228   179.51658866
 H      5   4   3     2.044157035671   122.82347263   179.45055964
 H      6   5   4     2.064234970567   104.38865207   100.08605266
 H      6   5   4     2.058998629324    84.66150058   209.58040384
 H      6   5   4     2.058957004031   133.88389130   322.45692639
 H     55   4   3     1.745753099529   143.42558940    56.32321492
 H     10   1   2     2.048280075564   118.74878823   187.94553068
 H     12   9   2     1.920524309565   125.29023241   180.00180175
 H     14  13  12     1.917952867083    44.97226959   359.42596618
 H     18  14  13     2.046330847636   128.03556573   234.20482432
 H     61  10   1     1.799001414346   135.63645996   239.06601263
 H     21  20  18     2.047649722989   121.05669627   180.67006309
 H     22  21  20     2.045596898814   122.73097286   180.59748951
 H     23  18  14     2.063779938267   103.92715769   234.93429879
 H     23  18  14     2.057669673245   134.19244188    12.25587044
 H     23  18  14     2.059486796529    84.85857450   125.45241208
 H     24  19  17     2.041046823986   127.28078426   178.44613241
 H     26  18  14     2.047344503340   118.76995697   244.94906660
 H     30  14  13     2.046012340948   127.99711412   279.66882698
 H     31  29  14     2.040450114918   125.22293469   180.92530585
 H     33  32  30     2.046930203877   121.01964473   180.74284758
 H     34  33  32     2.045617847496   122.70821597   180.59516895
 H     35  34  33     2.064814429233   105.73575241    97.19771933
 H     35  34  33     2.058786158072    84.05943581   206.43036958
 H     35  34  33     2.058418400901   133.08365142   318.50306270
 H     36  31  29     2.039845353366   126.61599965   178.98859863
 H     38  30  73     2.047975821711   118.77264435   359.90091293
 H     42   2   1     2.045020725966   119.31790784     1.72396947
 H     43  41  15     2.041436952892   126.36969097   182.06329380
 H     45  44  42     2.047097678177   121.10105945   179.58025624
 H     46  45  44     2.045051284662   122.72144639   179.46906377
 H     47  42   2     2.062723288131   106.65128841   315.16475048
 H     47  42   2     2.057569012371   132.46019523    94.52397119
 H     47  42   2     2.058915377895    83.63838232   206.04504406
 H     48  43  41     2.041664347903   127.23657387   181.62955349
 H     50  42   2     2.046925842384   118.77001737    94.71359229

---------------------
BASIS SET INFORMATION
---------------------
There are 3 groups of distinct atoms

 Group   1 Type C   : 17s4p1d contracted to 3s2p1d pattern {881/31/1}
 Group   2 Type N   : 17s4p1d contracted to 3s2p1d pattern {881/31/1}
 Group   3 Type H   : 4s1p contracted to 2s1p pattern {31/1}

Atom   0C    basis set group =>   1
Atom   1N    basis set group =>   2
Atom   2C    basis set group =>   1
Atom   3N    basis set group =>   2
Atom   4C    basis set group =>   1
Atom   5N    basis set group =>   2
Atom   6C    basis set group =>   1
Atom   7N    basis set group =>   2
Atom   8C    basis set group =>   1
Atom   9N    basis set group =>   2
Atom  10C    basis set group =>   1
Atom  11N    basis set group =>   2
Atom  12C    basis set group =>   1
Atom  13N    basis set group =>   2
Atom  14C    basis set group =>   1
Atom  15N    basis set group =>   2
Atom  16C    basis set group =>   1
Atom  17C    basis set group =>   1
Atom  18C    basis set group =>   1
Atom  19C    basis set group =>   1
Atom  20C    basis set group =>   1
Atom  21C    basis set group =>   1
Atom  22C    basis set group =>   1
Atom  23C    basis set group =>   1
Atom  24C    basis set group =>   1
Atom  25C    basis set group =>   1
Atom  26C    basis set group =>   1
Atom  27C    basis set group =>   1
Atom  28C    basis set group =>   1
Atom  29C    basis set group =>   1
Atom  30C    basis set group =>   1
Atom  31C    basis set group =>   1
Atom  32C    basis set group =>   1
Atom  33C    basis set group =>   1
Atom  34C    basis set group =>   1
Atom  35C    basis set group =>   1
Atom  36C    basis set group =>   1
Atom  37C    basis set group =>   1
Atom  38C    basis set group =>   1
Atom  39C    basis set group =>   1
Atom  40C    basis set group =>   1
Atom  41C    basis set group =>   1
Atom  42C    basis set group =>   1
Atom  43C    basis set group =>   1
Atom  44C    basis set group =>   1
Atom  45C    basis set group =>   1
Atom  46C    basis set group =>   1
Atom  47C    basis set group =>   1
Atom  48C    basis set group =>   1
Atom  49C    basis set group =>   1
Atom  50C    basis set group =>   1
Atom  51C    basis set group =>   1
Atom  52H    basis set group =>   3
Atom  53H    basis set group =>   3
Atom  54H    basis set group =>   3
Atom  55H    basis set group =>   3
Atom  56H    basis set group =>   3
Atom  57H    basis set group =>   3
Atom  58H    basis set group =>   3
Atom  59H    basis set group =>   3
Atom  60H    basis set group =>   3
Atom  61H    basis set group =>   3
Atom  62H    basis set group =>   3
Atom  63H    basis set group =>   3
Atom  64H    basis set group =>   3
Atom  65H    basis set group =>   3
Atom  66H    basis set group =>   3
Atom  67H    basis set group =>   3
Atom  68H    basis set group =>   3
Atom  69H    basis set group =>   3
Atom  70H    basis set group =>   3
Atom  71H    basis set group =>   3
Atom  72H    basis set group =>   3
Atom  73H    basis set group =>   3
Atom  74H    basis set group =>   3
Atom  75H    basis set group =>   3
Atom  76H    basis set group =>   3
Atom  77H    basis set group =>   3
Atom  78H    basis set group =>   3
Atom  79H    basis set group =>   3
Atom  80H    basis set group =>   3
Atom  81H    basis set group =>   3
Atom  82H    basis set group =>   3
Atom  83H    basis set group =>   3
Atom  84H    basis set group =>   3
Atom  85H    basis set group =>   3
Atom  86H    basis set group =>   3
Atom  87H    basis set group =>   3
Atom  88H    basis set group =>   3
Atom  89H    basis set group =>   3


           ************************************************************
           *        Program running with 16 parallel MPI-processes    *
           *              working on a common directory               *
           ************************************************************
------------------------------------------------------------------------------
                           ORCA GTO INTEGRAL CALCULATION
------------------------------------------------------------------------------
------------------------------------------------------------------------------
                   ___                                                        
                  /   \      - P O W E R E D   B Y -                         
                 /     \                                                     
                 |  |  |   _    _      __       _____    __    __             
                 |  |  |  | |  | |    /  \     |  _  \  |  |  /  |          
                  \  \/   | |  | |   /    \    | | | |  |  | /  /          
                 / \  \   | |__| |  /  /\  \   | |_| |  |  |/  /          
                |  |  |   |  __  | /  /__\  \  |    /   |      \           
                |  |  |   | |  | | |   __   |  |    \   |  |\   \          
                \     /   | |  | | |  |  |  |  | |\  \  |  | \   \       
                 \___/    |_|  |_| |__|  |__|  |_| \__\ |__|  \__/        
                                                                              
                      - O R C A' S   B I G   F R I E N D -                    
                                      &                                       
                       - I N T E G R A L  F E E D E R -                       
                                                                              
 v1 FN, 2020, v2 2021                                                         
------------------------------------------------------------------------------


Reading SHARK input file /scratch/allen/tmpyp4_amber_gaff2/conf1/conf1/Conf172.orca.SHARKINP.tmp ... ok
----------------------
SHARK INTEGRAL PACKAGE
----------------------

Number of atoms                             ...     90
Number of basis functions                   ...   1230
Number of shells                            ...    738
Maximum angular momentum                    ...      2
Integral batch strategy                     ... SHARK/LIBINT Hybrid
RI-J (if used) integral strategy            ... SPLIT-RIJ (Revised 2003 algorithm where possible)
Printlevel                                  ...      1
Contraction scheme used                     ... PARTIAL GENERAL contraction
Coulomb Range Separation                    ... NOT USED
Exchange Range Separation                   ... NOT USED
Finite Nucleus Model                        ... NOT USED
Auxiliary Coulomb fitting basis             ... NOT available
Auxiliary J/K fitting basis                 ... NOT available
Auxiliary Correlation fitting basis         ... NOT available
Auxiliary 'external' fitting basis          ... NOT available
Integral threshold                          ...     2.500000e-11
Primitive cut-off                           ...     2.500000e-12
Primitive pair pre-selection threshold      ...     2.500000e-12

Calculating pre-screening integrals         ... done (  0.1 sec) Dimension = 738
Calculating pre-screening integrals (ORCA)  ... done (  0.3 sec) Dimension = 426
Organizing shell pair data                  ... done (  0.7 sec)
Shell pair information
Total number of shell pairs                 ...    272691
Shell pairs after pre-screening             ...     71725
Total number of primitive shell pairs       ...    422091
Primitive shell pairs kept                  ...     92637
          la=0 lb=0:  29439 shell pairs
          la=1 lb=0:  26039 shell pairs
          la=1 lb=1:   4699 shell pairs
          la=2 lb=0:   7892 shell pairs
          la=2 lb=1:   3127 shell pairs
          la=2 lb=2:    529 shell pairs

Calculating one electron integrals          ... done (  0.2 sec)
Calculating Nuclear repulsion               ... done (  0.0 sec) ENN=   6235.208741484338 Eh

SHARK setup successfully completed in   2.2 seconds

Maximum memory used throughout the entire GTOINT-calculation: 99.1 MB


           ************************************************************
           *        Program running with 16 parallel MPI-processes    *
           *              working on a common directory               *
           ************************************************************
-------------------------------------------------------------------------------
                                 ORCA SCF
-------------------------------------------------------------------------------

------------
SCF SETTINGS
------------
Hamiltonian:
 Ab initio Hamiltonian  Method          .... Hartree-Fock(GTOs)


General Settings:
 Integral files         IntName         .... /scratch/allen/tmpyp4_amber_gaff2/conf1/conf1/Conf172.orca
 Hartree-Fock type      HFTyp           .... RHF
 Total Charge           Charge          ....    0
 Multiplicity           Mult            ....    1
 Number of Electrons    NEL             ....  358
 Basis Dimension        Dim             ....  918
 Nuclear Repulsion      ENuc            ....   6235.2087414843 Eh

Convergence Acceleration:
 DIIS                   CNVDIIS         .... on
   Start iteration      DIISMaxIt       ....    12
   Startup error        DIISStart       ....  0.200000
   # of expansion vecs  DIISMaxEq       ....     5
   Bias factor          DIISBfac        ....   1.050
   Max. coefficient     DIISMaxC        ....  10.000
 Trust-Rad. Augm. Hess. CNVTRAH         .... auto
   Auto Start mean grad. ratio tolernc. ....  1.125000
   Auto Start start iteration           ....    20
   Auto Start num. interpolation iter.  ....    10
   Max. Number of Micro iterations      ....    16
   Max. Number of Macro iterations      .... Maxiter - #DIIS iter
   Number of Davidson start vectors     ....     2
   Converg. threshold I  (grad. norm)   ....   1.000e-05
   Converg. threshold II (energy diff.) ....   1.000e-08
   Grad. Scal. Fac. for Micro threshold ....   0.100
   Minimum threshold for Micro iter.    ....   0.010
   NR start threshold (gradient norm)   ....   0.001
   Initial trust radius                 ....   0.400
   Minimum AH scaling param. (alpha)    ....   1.000
   Maximum AH scaling param. (alpha)    .... 1000.000
   Orbital update algorithm             .... Taylor
   White noise on init. David. guess    .... on
   Maximum white noise                  ....   0.010
   Quad. conv. algorithm                .... NR
 SOSCF                  CNVSOSCF        .... on
   Start iteration      SOSCFMaxIt      ....   150
   Startup grad/error   SOSCFStart      ....  0.003300
 Level Shifting         CNVShift        .... on
   Level shift para.    LevelShift      ....    0.2500
   Turn off err/grad.   ShiftErr        ....    0.0010
 Zerner damping         CNVZerner       .... off
 Static damping         CNVDamp         .... on
   Fraction old density DampFac         ....    0.7000
   Max. Damping (<1)    DampMax         ....    0.9800
   Min. Damping (>=0)   DampMin         ....    0.0000
   Turn off err/grad.   DampErr         ....    0.1000
 Fernandez-Rico         CNVRico         .... off

SCF Procedure:
 Maximum # iterations   MaxIter         ....   125
 SCF integral mode      SCFMode         .... Direct
   Integral package                     .... SHARK and LIBINT hybrid scheme
 Reset frequency        DirectResetFreq ....    20
 Integral Threshold     Thresh          ....  2.500e-11 Eh
 Primitive CutOff       TCut            ....  2.500e-12 Eh

Convergence Tolerance:
 Convergence Check Mode ConvCheckMode   .... Total+1el-Energy
 Convergence forced     ConvForced      .... 1
 Energy Change          TolE            ....  1.000e-08 Eh
 1-El. energy change                    ....  1.000e-05 Eh
 Orbital Gradient       TolG            ....  1.000e-05
 Orbital Rotation angle TolX            ....  1.000e-05
 DIIS Error             TolErr          ....  5.000e-07


Diagonalization of the overlap matrix:
Smallest eigenvalue                        ... 1.677e-04
Time for diagonalization                   ...    0.424 sec
Threshold for overlap eigenvalues          ... 1.000e-08
Number of eigenvalues below threshold      ... 0
Time for construction of square roots      ...    0.266 sec
Total time needed                          ...    0.696 sec

Time for model grid setup =    1.297 sec

------------------------------
INITIAL GUESS: MODEL POTENTIAL
------------------------------
Loading Hartree-Fock densities                     ... done
Calculating cut-offs                               ... done
Initializing the effective Hamiltonian             ... done
Setting up the integral package (SHARK)            ... done
Starting the Coulomb interaction                   ... done (   1.5 sec)
Reading the grid                                   ... done
Mapping shells                                     ... done
Starting the XC term evaluation                    ... done (   0.2 sec)
Transforming the Hamiltonian                       ... done (   0.3 sec)
Diagonalizing the Hamiltonian                      ... done (   0.4 sec)
Back transforming the eigenvectors                 ... done (   0.1 sec)
Now organizing SCF variables                       ... done
                      ------------------
                      INITIAL GUESS DONE (   3.8 sec)
                      ------------------
--------------
SCF ITERATIONS
--------------
ITER       Energy         Delta-E        Max-DP      RMS-DP      [F,P]     Damp
               ***  Starting incremental Fock matrix formation  ***
  0  -2121.5996858828   0.000000000000 0.07970318  0.00129036  0.2311067 0.7000
  1  -2122.2407336578  -0.641047775041 0.06048633  0.00105335  0.1434477 0.7000
                               ***Turning on DIIS***
  2  -2122.6409151084  -0.400181450590 0.14088440  0.00238536  0.0803183 0.0000
  3  -2118.0507845043   4.590130604121 0.07931944  0.00072233  0.0433942 0.0000
  4  -2123.3415204003  -5.290735895956 0.02406782  0.00023773  0.0093217 0.0000
  5  -2123.4691780750  -0.127657674706 0.01090117  0.00013581  0.0048209 0.0000
  6  -2123.4532188520   0.015959222967 0.00681465  0.00008665  0.0022481 0.0000
  7  -2123.5448869333  -0.091668081319 0.00424656  0.00006782  0.0016376 0.0000
  8  -2123.5508811315  -0.005994198205 0.00335718  0.00006469  0.0015345 0.0000
  9  -2123.5246034109   0.026277720672 0.00269772  0.00004619  0.0012363 0.0000
 10  -2123.5320321385  -0.007428727673 0.00545281  0.00009691  0.0009701 0.0000
                      *** Initiating the SOSCF procedure ***
                           *** Shutting down DIIS ***
                      *** Re-Reading the Fockian *** 
                      *** Removing any level shift *** 
ITER      Energy       Delta-E        Grad      Rot      Max-DP    RMS-DP
 11  -2123.42724668   0.1047854545  0.000183  0.000183  0.000245  0.000005
               *** Restarting incremental Fock matrix formation ***
 12  -2123.49243497  -0.0651882832  0.000921  0.006245  0.001520  0.000035
 13  -2123.49254723  -0.0001122591  0.001125  0.030625  0.006933  0.000139
 14  -2123.49273120  -0.0001839786  0.000405  0.002137  0.000631  0.000013
 15  -2123.49274627  -0.0000150631  0.000156  0.001803  0.000469  0.000012
 16  -2123.49275236  -0.0000060871  0.000136  0.002058  0.000500  0.000008
 17  -2123.49275469  -0.0000023382  0.000108  0.001624  0.000271  0.000006
 18  -2123.49275563  -0.0000009399  0.000053  0.000611  0.000198  0.000003
 19  -2123.49275615  -0.0000005148  0.000039  0.001018  0.000200  0.000004
 20  -2123.49275644  -0.0000002962  0.000020  0.000611  0.000095  0.000002
 21  -2123.49275657  -0.0000001263  0.000024  0.000819  0.000119  0.000003
 22  -2123.49275669  -0.0000001217  0.000017  0.000849  0.000133  0.000003
 23  -2123.49275678  -0.0000000830  0.000013  0.000410  0.000069  0.000001
 24  -2123.49275682  -0.0000000403  0.000007  0.000334  0.000054  0.000001
 25  -2123.49275685  -0.0000000296  0.000007  0.000118  0.000034  0.000001
 26  -2123.49275686  -0.0000000150  0.000006  0.000076  0.000028  0.000000
 27  -2123.49275687  -0.0000000063  0.000003  0.000064  0.000019  0.000000
                 **** Energy Check signals convergence ****
              ***Rediagonalizing the Fockian in SOSCF/NRSCF***

               *****************************************************
               *                     SUCCESS                       *
               *           SCF CONVERGED AFTER  28 CYCLES          *
               *****************************************************


----------------
TOTAL SCF ENERGY
----------------

Total Energy       :        -2123.49275687 Eh          -57783.17555 eV

Components:
Nuclear Repulsion  :         6235.20874148 Eh          169668.65564 eV
Electronic Energy  :        -8358.70149836 Eh         -227451.83120 eV
One Electron Energy:       -15310.90515050 Eh         -416630.91025 eV
Two Electron Energy:         6952.20365214 Eh          189179.07905 eV

Virial components:
Potential Energy   :        -4246.04398410 Eh         -115540.73078 eV
Kinetic Energy     :         2122.55122723 Eh           57757.55523 eV
Virial Ratio       :            2.00044358


---------------
SCF CONVERGENCE
---------------

  Last Energy change         ...   -4.9458e-09  Tolerance :   1.0000e-08
  Last MAX-Density change    ...    9.4329e-06  Tolerance :   1.0000e-07
  Last RMS-Density change    ...    1.8739e-07  Tolerance :   5.0000e-09
  Last Orbital Gradient      ...    1.6948e-06  Tolerance :   1.0000e-05
  Last Orbital Rotation      ...    4.7967e-05  Tolerance :   1.0000e-05

             **** THE GBW FILE WAS UPDATED (/scratch/allen/tmpyp4_amber_gaff2/conf1/conf1/Conf172.orca.gbw) ****
             **** DENSITY /scratch/allen/tmpyp4_amber_gaff2/conf1/conf1/Conf172.orca.scfp WAS UPDATED ****
             **** ENERGY FILE WAS UPDATED (/scratch/allen/tmpyp4_amber_gaff2/conf1/conf1/Conf172.orca.en.tmp) ****
             **** THE GBW FILE WAS UPDATED (/scratch/allen/tmpyp4_amber_gaff2/conf1/conf1/Conf172.orca.gbw) ****
             **** DENSITY /scratch/allen/tmpyp4_amber_gaff2/conf1/conf1/Conf172.orca.scfp WAS UPDATED ****
----------------
ORBITAL ENERGIES
----------------

  NO   OCC          E(Eh)            E(eV) 
   0   2.0000     -15.680398      -426.6853 
   1   2.0000     -15.635155      -425.4542 
   2   2.0000     -15.630945      -425.3396 
   3   2.0000     -15.587353      -424.1535 
   4   2.0000     -15.525458      -422.4692 
   5   2.0000     -15.515404      -422.1956 
   6   2.0000     -15.453633      -420.5147 
   7   2.0000     -15.439955      -420.1425 
   8   2.0000     -11.330040      -308.3061 
   9   2.0000     -11.328722      -308.2702 
  10   2.0000     -11.328296      -308.2586 
  11   2.0000     -11.300044      -307.4898 
  12   2.0000     -11.297820      -307.4293 
  13   2.0000     -11.294003      -307.3255 
  14   2.0000     -11.290500      -307.2301 
  15   2.0000     -11.287569      -307.1504 
  16   2.0000     -11.285746      -307.1008 
  17   2.0000     -11.282614      -307.0155 
  18   2.0000     -11.269339      -306.6543 
  19   2.0000     -11.263776      -306.5029 
  20   2.0000     -11.262787      -306.4760 
  21   2.0000     -11.250254      -306.1350 
  22   2.0000     -11.248573      -306.0892 
  23   2.0000     -11.238884      -305.8256 
  24   2.0000     -11.235775      -305.7410 
  25   2.0000     -11.231993      -305.6381 
  26   2.0000     -11.231333      -305.6201 
  27   2.0000     -11.229080      -305.5588 
  28   2.0000     -11.228806      -305.5513 
  29   2.0000     -11.211685      -305.0855 
  30   2.0000     -11.210202      -305.0451 
  31   2.0000     -11.193312      -304.5855 
  32   2.0000     -11.191716      -304.5421 
  33   2.0000     -11.191460      -304.5351 
  34   2.0000     -11.188124      -304.4443 
  35   2.0000     -11.187945      -304.4394 
  36   2.0000     -11.186716      -304.4060 
  37   2.0000     -11.175303      -304.0955 
  38   2.0000     -11.173011      -304.0331 
  39   2.0000     -11.172648      -304.0232 
  40   2.0000     -11.171009      -303.9786 
  41   2.0000     -11.170002      -303.9512 
  42   2.0000     -11.169170      -303.9286 
  43   2.0000     -11.161712      -303.7256 
  44   2.0000     -11.160617      -303.6958 
  45   2.0000     -11.156913      -303.5950 
  46   2.0000     -11.156240      -303.5767 
  47   2.0000     -11.151857      -303.4575 
  48   2.0000     -11.146194      -303.3034 
  49   2.0000     -11.134840      -302.9944 
  50   2.0000     -11.129823      -302.8579 
  51   2.0000     -11.117145      -302.5129 
  52   2.0000      -1.360885       -37.0316 
  53   2.0000      -1.322228       -35.9796 
  54   2.0000      -1.318860       -35.8880 
  55   2.0000      -1.279532       -34.8178 
  56   2.0000      -1.226668       -33.3793 
  57   2.0000      -1.210144       -32.9297 
  58   2.0000      -1.173280       -31.9266 
  59   2.0000      -1.150917       -31.3180 
  60   2.0000      -1.144046       -31.1311 
  61   2.0000      -1.110987       -30.2315 
  62   2.0000      -1.108418       -30.1616 
  63   2.0000      -1.082537       -29.4573 
  64   2.0000      -1.076690       -29.2982 
  65   2.0000      -1.046359       -28.4729 
  66   2.0000      -1.043543       -28.3963 
  67   2.0000      -1.041445       -28.3392 
  68   2.0000      -1.015187       -27.6246 
  69   2.0000      -1.013338       -27.5743 
  70   2.0000      -1.008853       -27.4523 
  71   2.0000      -0.994074       -27.0501 
  72   2.0000      -0.985331       -26.8122 
  73   2.0000      -0.982122       -26.7249 
  74   2.0000      -0.973454       -26.4890 
  75   2.0000      -0.961882       -26.1741 
  76   2.0000      -0.954526       -25.9740 
  77   2.0000      -0.945869       -25.7384 
  78   2.0000      -0.937469       -25.5098 
  79   2.0000      -0.916723       -24.9453 
  80   2.0000      -0.910984       -24.7891 
  81   2.0000      -0.897655       -24.4264 
  82   2.0000      -0.877250       -23.8712 
  83   2.0000      -0.873166       -23.7601 
  84   2.0000      -0.870132       -23.6775 
  85   2.0000      -0.860331       -23.4108 
  86   2.0000      -0.842032       -22.9129 
  87   2.0000      -0.837900       -22.8004 
  88   2.0000      -0.828223       -22.5371 
  89   2.0000      -0.796467       -21.6730 
  90   2.0000      -0.788795       -21.4642 
  91   2.0000      -0.767852       -20.8943 
  92   2.0000      -0.753362       -20.5000 
  93   2.0000      -0.734177       -19.9780 
  94   2.0000      -0.727592       -19.7988 
  95   2.0000      -0.724849       -19.7241 
  96   2.0000      -0.719297       -19.5731 
  97   2.0000      -0.717497       -19.5241 
  98   2.0000      -0.712645       -19.3920 
  99   2.0000      -0.698691       -19.0123 
 100   2.0000      -0.697707       -18.9856 
 101   2.0000      -0.692567       -18.8457 
 102   2.0000      -0.685643       -18.6573 
 103   2.0000      -0.684616       -18.6293 
 104   2.0000      -0.679276       -18.4841 
 105   2.0000      -0.674327       -18.3494 
 106   2.0000      -0.672571       -18.3016 
 107   2.0000      -0.660453       -17.9718 
 108   2.0000      -0.657961       -17.9040 
 109   2.0000      -0.653585       -17.7850 
 110   2.0000      -0.651428       -17.7263 
 111   2.0000      -0.646588       -17.5946 
 112   2.0000      -0.645651       -17.5691 
 113   2.0000      -0.637995       -17.3607 
 114   2.0000      -0.635629       -17.2963 
 115   2.0000      -0.627788       -17.0830 
 116   2.0000      -0.622608       -16.9420 
 117   2.0000      -0.620296       -16.8791 
 118   2.0000      -0.613551       -16.6956 
 119   2.0000      -0.612963       -16.6796 
 120   2.0000      -0.611951       -16.6520 
 121   2.0000      -0.610761       -16.6196 
 122   2.0000      -0.600770       -16.3478 
 123   2.0000      -0.588753       -16.0208 
 124   2.0000      -0.582364       -15.8469 
 125   2.0000      -0.580800       -15.8044 
 126   2.0000      -0.579952       -15.7813 
 127   2.0000      -0.571490       -15.5510 
 128   2.0000      -0.567694       -15.4477 
 129   2.0000      -0.559773       -15.2322 
 130   2.0000      -0.554905       -15.0997 
 131   2.0000      -0.548209       -14.9175 
 132   2.0000      -0.543064       -14.7775 
 133   2.0000      -0.541121       -14.7247 
 134   2.0000      -0.539200       -14.6724 
 135   2.0000      -0.535520       -14.5722 
 136   2.0000      -0.531362       -14.4591 
 137   2.0000      -0.518250       -14.1023 
 138   2.0000      -0.517675       -14.0867 
 139   2.0000      -0.514014       -13.9870 
 140   2.0000      -0.511859       -13.9284 
 141   2.0000      -0.510515       -13.8918 
 142   2.0000      -0.508764       -13.8442 
 143   2.0000      -0.504928       -13.7398 
 144   2.0000      -0.501530       -13.6473 
 145   2.0000      -0.495444       -13.4817 
 146   2.0000      -0.489241       -13.3129 
 147   2.0000      -0.481396       -13.0994 
 148   2.0000      -0.476615       -12.9693 
 149   2.0000      -0.467822       -12.7301 
 150   2.0000      -0.466164       -12.6850 
 151   2.0000      -0.456411       -12.4196 
 152   2.0000      -0.451251       -12.2792 
 153   2.0000      -0.445268       -12.1164 
 154   2.0000      -0.438459       -11.9311 
 155   2.0000      -0.427530       -11.6337 
 156   2.0000      -0.409327       -11.1384 
 157   2.0000      -0.393853       -10.7173 
 158   2.0000      -0.390429       -10.6241 
 159   2.0000      -0.387851       -10.5540 
 160   2.0000      -0.379495       -10.3266 
 161   2.0000      -0.375888       -10.2284 
 162   2.0000      -0.368988       -10.0407 
 163   2.0000      -0.357432        -9.7262 
 164   2.0000      -0.355266        -9.6673 
 165   2.0000      -0.341660        -9.2971 
 166   2.0000      -0.337780        -9.1914 
 167   2.0000      -0.325135        -8.8474 
 168   2.0000      -0.320442        -8.7197 
 169   2.0000      -0.305950        -8.3253 
 170   2.0000      -0.299191        -8.1414 
 171   2.0000      -0.285397        -7.7660 
 172   2.0000      -0.278355        -7.5744 
 173   2.0000      -0.263257        -7.1636 
 174   2.0000      -0.241704        -6.5771 
 175   2.0000      -0.190075        -5.1722 
 176   2.0000      -0.181265        -4.9325 
 177   2.0000      -0.080224        -2.1830 
 178   2.0000      -0.059765        -1.6263 
 179   0.0000       0.028259         0.7690 
 180   0.0000       0.065136         1.7724 
 181   0.0000       0.090175         2.4538 
 182   0.0000       0.105848         2.8803 
 183   0.0000       0.116014         3.1569 
 184   0.0000       0.136358         3.7105 
 185   0.0000       0.139870         3.8061 
 186   0.0000       0.140652         3.8273 
 187   0.0000       0.164268         4.4700 
 188   0.0000       0.164770         4.4836 
 189   0.0000       0.166124         4.5205 
 190   0.0000       0.174247         4.7415 
 191   0.0000       0.180043         4.8992 
 192   0.0000       0.183475         4.9926 
 193   0.0000       0.189664         5.1610 
 194   0.0000       0.204224         5.5572 
 195   0.0000       0.206022         5.6061 
 196   0.0000       0.207590         5.6488 
 197   0.0000       0.209190         5.6923 
 198   0.0000       0.216249         5.8844 
 199   0.0000       0.229331         6.2404 
 200   0.0000       0.233383         6.3507 
 201   0.0000       0.233921         6.3653 
 202   0.0000       0.238567         6.4917 
 203   0.0000       0.240052         6.5322 
 204   0.0000       0.245867         6.6904 
 205   0.0000       0.254636         6.9290 
 206   0.0000       0.256233         6.9724 
 207   0.0000       0.257414         7.0046 
 208   0.0000       0.259290         7.0556 
 209   0.0000       0.260261         7.0821 
 210   0.0000       0.263967         7.1829 
 211   0.0000       0.266578         7.2539 
 212   0.0000       0.268648         7.3103 
 213   0.0000       0.270539         7.3618 
 214   0.0000       0.272728         7.4213 
 215   0.0000       0.276549         7.5253 
 216   0.0000       0.278826         7.5872 
 217   0.0000       0.281378         7.6567 
 218   0.0000       0.285220         7.7612 
 219   0.0000       0.288024         7.8375 
 220   0.0000       0.288938         7.8624 
 221   0.0000       0.292392         7.9564 
 222   0.0000       0.294643         8.0176 
 223   0.0000       0.296020         8.0551 
 224   0.0000       0.297960         8.1079 
 225   0.0000       0.301186         8.1957 
 226   0.0000       0.304473         8.2851 
 227   0.0000       0.308429         8.3928 
 228   0.0000       0.315189         8.5767 
 229   0.0000       0.324533         8.8310 
 230   0.0000       0.328090         8.9278 
 231   0.0000       0.334502         9.1023 
 232   0.0000       0.344077         9.3628 
 233   0.0000       0.356443         9.6993 
 234   0.0000       0.366550         9.9743 
 235   0.0000       0.367138         9.9903 
 236   0.0000       0.375899        10.2287 
 237   0.0000       0.390894        10.6368 
 238   0.0000       0.395956        10.7745 
 239   0.0000       0.400004        10.8847 
 240   0.0000       0.406685        11.0665 
 241   0.0000       0.410916        11.1816 
 242   0.0000       0.412681        11.2296 
 243   0.0000       0.420983        11.4555 
 244   0.0000       0.428408        11.6576 
 245   0.0000       0.435567        11.8524 
 246   0.0000       0.437790        11.9129 
 247   0.0000       0.440831        11.9956 
 248   0.0000       0.441693        12.0191 
 249   0.0000       0.449007        12.2181 
 250   0.0000       0.454641        12.3714 
 251   0.0000       0.463640        12.6163 
 252   0.0000       0.466446        12.6927 
 253   0.0000       0.470085        12.7917 
 254   0.0000       0.471412        12.8278 
 255   0.0000       0.474156        12.9024 
 256   0.0000       0.477306        12.9882 
 257   0.0000       0.480850        13.0846 
 258   0.0000       0.490049        13.3349 
 259   0.0000       0.494517        13.4565 
 260   0.0000       0.504480        13.7276 
 261   0.0000       0.504924        13.7397 
 262   0.0000       0.506080        13.7711 
 263   0.0000       0.511832        13.9276 
 264   0.0000       0.516454        14.0534 
 265   0.0000       0.522251        14.2112 
 266   0.0000       0.525211        14.2917 
 267   0.0000       0.527829        14.3629 
 268   0.0000       0.533907        14.5284 
 269   0.0000       0.536103        14.5881 
 270   0.0000       0.543860        14.7992 
 271   0.0000       0.549230        14.9453 
 272   0.0000       0.557726        15.1765 
 273   0.0000       0.560281        15.2460 
 274   0.0000       0.561226        15.2717 
 275   0.0000       0.566381        15.4120 
 276   0.0000       0.573007        15.5923 
 277   0.0000       0.574102        15.6221 
 278   0.0000       0.579986        15.7822 
 279   0.0000       0.586070        15.9478 
 280   0.0000       0.591382        16.0923 
 281   0.0000       0.593583        16.1522 
 282   0.0000       0.595048        16.1921 
 283   0.0000       0.595616        16.2075 
 284   0.0000       0.598023        16.2730 
 285   0.0000       0.598803        16.2943 
 286   0.0000       0.604032        16.4365 
 287   0.0000       0.610007        16.5991 
 288   0.0000       0.616776        16.7833 
 289   0.0000       0.624910        17.0047 
 290   0.0000       0.626588        17.0503 
 291   0.0000       0.628509        17.1026 
 292   0.0000       0.631632        17.1876 
 293   0.0000       0.635962        17.3054 
 294   0.0000       0.645646        17.5689 
 295   0.0000       0.649056        17.6617 
 296   0.0000       0.653266        17.7763 
 297   0.0000       0.655313        17.8320 
 298   0.0000       0.661217        17.9926 
 299   0.0000       0.664484        18.0815 
 300   0.0000       0.670492        18.2450 
 301   0.0000       0.675314        18.3762 
 302   0.0000       0.676850        18.4180 
 303   0.0000       0.679683        18.4951 
 304   0.0000       0.681140        18.5348 
 305   0.0000       0.685006        18.6399 
 306   0.0000       0.689153        18.7528 
 307   0.0000       0.692848        18.8533 
 308   0.0000       0.695295        18.9199 
 309   0.0000       0.700061        19.0496 
 310   0.0000       0.703013        19.1300 
 311   0.0000       0.704750        19.1772 
 312   0.0000       0.707592        19.2546 
 313   0.0000       0.710460        19.3326 
 314   0.0000       0.710760        19.3408 
 315   0.0000       0.714649        19.4466 
 316   0.0000       0.716723        19.5030 
 317   0.0000       0.719019        19.5655 
 318   0.0000       0.724672        19.7193 
 319   0.0000       0.727115        19.7858 
 320   0.0000       0.728269        19.8172 
 321   0.0000       0.730311        19.8728 
 322   0.0000       0.731261        19.8986 
 323   0.0000       0.734434        19.9850 
 324   0.0000       0.736925        20.0527 
 325   0.0000       0.741840        20.1865 
 326   0.0000       0.745127        20.2759 
 327   0.0000       0.748640        20.3715 
 328   0.0000       0.750348        20.4180 
 329   0.0000       0.753487        20.5034 
 330   0.0000       0.758924        20.6514 
 331   0.0000       0.762972        20.7615 
 332   0.0000       0.766517        20.8580 
 333   0.0000       0.768382        20.9087 
 334   0.0000       0.770729        20.9726 
 335   0.0000       0.776182        21.1210 
 336   0.0000       0.778591        21.1865 
 337   0.0000       0.782607        21.2958 
 338   0.0000       0.786276        21.3956 
 339   0.0000       0.790529        21.5114 
 340   0.0000       0.792696        21.5704 
 341   0.0000       0.797873        21.7112 
 342   0.0000       0.799083        21.7442 
 343   0.0000       0.805358        21.9149 
 344   0.0000       0.806335        21.9415 
 345   0.0000       0.808416        21.9981 
 346   0.0000       0.810306        22.0496 
 347   0.0000       0.811027        22.0692 
 348   0.0000       0.815889        22.2015 
 349   0.0000       0.816546        22.2193 
 350   0.0000       0.818498        22.2725 
 351   0.0000       0.821958        22.3666 
 352   0.0000       0.823745        22.4152 
 353   0.0000       0.828491        22.5444 
 354   0.0000       0.830249        22.5922 
 355   0.0000       0.832389        22.6505 
 356   0.0000       0.836082        22.7510 
 357   0.0000       0.836436        22.7606 
 358   0.0000       0.838444        22.8152 
 359   0.0000       0.841763        22.9055 
 360   0.0000       0.842860        22.9354 
 361   0.0000       0.844018        22.9669 
 362   0.0000       0.846922        23.0459 
 363   0.0000       0.849397        23.1133 
 364   0.0000       0.851865        23.1804 
 365   0.0000       0.856461        23.3055 
 366   0.0000       0.858605        23.3638 
 367   0.0000       0.864359        23.5204 
 368   0.0000       0.864831        23.5333 
 369   0.0000       0.868444        23.6316 
 370   0.0000       0.869439        23.6586 
 371   0.0000       0.872840        23.7512 
 372   0.0000       0.877629        23.8815 
 373   0.0000       0.878402        23.9025 
 374   0.0000       0.879200        23.9242 
 375   0.0000       0.884562        24.0702 
 376   0.0000       0.890359        24.2279 
 377   0.0000       0.890947        24.2439 
 378   0.0000       0.892974        24.2991 
 379   0.0000       0.895257        24.3612 
 380   0.0000       0.896278        24.3890 
 381   0.0000       0.898511        24.4497 
 382   0.0000       0.898907        24.4605 
 383   0.0000       0.901867        24.5410 
 384   0.0000       0.906300        24.6617 
 385   0.0000       0.907040        24.6818 
 386   0.0000       0.909744        24.7554 
 387   0.0000       0.911649        24.8072 
 388   0.0000       0.914660        24.8892 
 389   0.0000       0.917665        24.9709 
 390   0.0000       0.920478        25.0475 
 391   0.0000       0.926765        25.2186 
 392   0.0000       0.927586        25.2409 
 393   0.0000       0.928876        25.2760 
 394   0.0000       0.930293        25.3145 
 395   0.0000       0.934539        25.4301 
 396   0.0000       0.935475        25.4556 
 397   0.0000       0.941265        25.6131 
 398   0.0000       0.942346        25.6425 
 399   0.0000       0.945993        25.7418 
 400   0.0000       0.948923        25.8215 
 401   0.0000       0.952630        25.9224 
 402   0.0000       0.955705        26.0061 
 403   0.0000       0.957823        26.0637 
 404   0.0000       0.960989        26.1498 
 405   0.0000       0.965014        26.2594 
 406   0.0000       0.968955        26.3666 
 407   0.0000       0.979858        26.6633 
 408   0.0000       0.981769        26.7153 
 409   0.0000       0.986152        26.8346 
 410   0.0000       0.988372        26.8950 
 411   0.0000       0.993656        27.0388 
 412   0.0000       0.997846        27.1528 
 413   0.0000       1.004096        27.3228 
 414   0.0000       1.010119        27.4867 
 415   0.0000       1.014770        27.6133 
 416   0.0000       1.015915        27.6445 
 417   0.0000       1.022717        27.8295 
 418   0.0000       1.024331        27.8735 
 419   0.0000       1.030563        28.0431 
 420   0.0000       1.035356        28.1735 
 421   0.0000       1.039279        28.2802 
 422   0.0000       1.050113        28.5750 
 423   0.0000       1.052527        28.6407 
 424   0.0000       1.054099        28.6835 
 425   0.0000       1.072957        29.1966 
 426   0.0000       1.077395        29.3174 
 427   0.0000       1.078602        29.3502 
 428   0.0000       1.082336        29.4519 
 429   0.0000       1.083296        29.4780 
 430   0.0000       1.088553        29.6210 
 431   0.0000       1.094179        29.7741 
 432   0.0000       1.098265        29.8853 
 433   0.0000       1.101908        29.9845 
 434   0.0000       1.107483        30.1361 
 435   0.0000       1.111939        30.2574 
 436   0.0000       1.113079        30.2884 
 437   0.0000       1.116753        30.3884 
 438   0.0000       1.120716        30.4962 
 439   0.0000       1.122955        30.5572 
 440   0.0000       1.125189        30.6179 
 441   0.0000       1.128193        30.6997 
 442   0.0000       1.134082        30.8599 
 443   0.0000       1.136183        30.9171 
 444   0.0000       1.136842        30.9350 
 445   0.0000       1.140092        31.0235 
 446   0.0000       1.147330        31.2204 
 447   0.0000       1.151497        31.3338 
 448   0.0000       1.154231        31.4082 
 449   0.0000       1.154806        31.4239 
 450   0.0000       1.163847        31.6699 
 451   0.0000       1.166292        31.7364 
 452   0.0000       1.166900        31.7530 
 453   0.0000       1.167344        31.7650 
 454   0.0000       1.169525        31.8244 
 455   0.0000       1.175370        31.9834 
 456   0.0000       1.183012        32.1914 
 457   0.0000       1.188254        32.3340 
 458   0.0000       1.193953        32.4891 
 459   0.0000       1.198920        32.6243 
 460   0.0000       1.202131        32.7116 
 461   0.0000       1.204566        32.7779 
 462   0.0000       1.205989        32.8166 
 463   0.0000       1.207535        32.8587 
 464   0.0000       1.211802        32.9748 
 465   0.0000       1.215093        33.0644 
 466   0.0000       1.221557        33.2402 
 467   0.0000       1.227146        33.3923 
 468   0.0000       1.228161        33.4200 
 469   0.0000       1.230710        33.4893 
 470   0.0000       1.236568        33.6487 
 471   0.0000       1.238882        33.7117 
 472   0.0000       1.239770        33.7359 
 473   0.0000       1.241672        33.7876 
 474   0.0000       1.243385        33.8342 
 475   0.0000       1.247317        33.9412 
 476   0.0000       1.251372        34.0516 
 477   0.0000       1.252854        34.0919 
 478   0.0000       1.255559        34.1655 
 479   0.0000       1.259491        34.2725 
 480   0.0000       1.262504        34.3545 
 481   0.0000       1.269832        34.5539 
 482   0.0000       1.271158        34.5900 
 483   0.0000       1.273482        34.6532 
 484   0.0000       1.273898        34.6645 
 485   0.0000       1.281575        34.8734 
 486   0.0000       1.286314        35.0024 
 487   0.0000       1.289486        35.0887 
 488   0.0000       1.291715        35.1494 
 489   0.0000       1.297089        35.2956 
 490   0.0000       1.298400        35.3313 
 491   0.0000       1.302498        35.4428 
 492   0.0000       1.305185        35.5159 
 493   0.0000       1.309495        35.6332 
 494   0.0000       1.313392        35.7392 
 495   0.0000       1.318150        35.8687 
 496   0.0000       1.319769        35.9127 
 497   0.0000       1.324629        36.0450 
 498   0.0000       1.327381        36.1199 
 499   0.0000       1.329988        36.1908 
 500   0.0000       1.334230        36.3062 
 501   0.0000       1.338657        36.4267 
 502   0.0000       1.342660        36.5356 
 503   0.0000       1.347377        36.6640 
 504   0.0000       1.349436        36.7200 
 505   0.0000       1.351724        36.7823 
 506   0.0000       1.352942        36.8154 
 507   0.0000       1.357141        36.9297 
 508   0.0000       1.361130        37.0382 
 509   0.0000       1.363644        37.1066 
[...]
      pz      :     0.022123  p :     0.079789
      px      :     0.043624
      py      :     0.014042
 77 H s       :     0.884393  s :     0.884393
      pz      :     0.047990  p :     0.079304
      px      :     0.015024
      py      :     0.016290
 78 H s       :     0.884762  s :     0.884762
      pz      :     0.025888  p :     0.079271
      px      :     0.020452
      py      :     0.032931
 79 H s       :     0.910709  s :     0.910709
      pz      :     0.021789  p :     0.086303
      px      :     0.021657
      py      :     0.042857
 80 H s       :     0.864279  s :     0.864279
      pz      :     0.039404  p :     0.084858
      px      :     0.030303
      py      :     0.015150
 81 H s       :     0.886859  s :     0.886859
      pz      :     0.037823  p :     0.084125
      px      :     0.016185
      py      :     0.030117
 82 H s       :     0.916190  s :     0.916190
      pz      :     0.021962  p :     0.086719
      px      :     0.031656
      py      :     0.033102
 83 H s       :     0.873582  s :     0.873582
      pz      :     0.039261  p :     0.084088
      px      :     0.015279
      py      :     0.029548
 84 H s       :     0.886813  s :     0.886813
      pz      :     0.035758  p :     0.083422
      px      :     0.031690
      py      :     0.015973
 85 H s       :     0.892931  s :     0.892931
      pz      :     0.022487  p :     0.079779
      px      :     0.014073
      py      :     0.043219
 86 H s       :     0.891091  s :     0.891091
      pz      :     0.024727  p :     0.078819
      px      :     0.032974
      py      :     0.021119
 87 H s       :     0.889896  s :     0.889896
      pz      :     0.048014  p :     0.078736
      px      :     0.015585
      py      :     0.015137
 88 H s       :     0.910513  s :     0.910513
      pz      :     0.021634  p :     0.087031
      px      :     0.042939
      py      :     0.022458
 89 H s       :     0.871029  s :     0.871029
      pz      :     0.037960  p :     0.083852
      px      :     0.030502
      py      :     0.015391


                      *****************************
                      * MAYER POPULATION ANALYSIS *
                      *****************************

  NA   - Mulliken gross atomic population
  ZA   - Total nuclear charge
  QA   - Mulliken gross atomic charge
  VA   - Mayer's total valence
  BVA  - Mayer's bonded valence
  FA   - Mayer's free valence

  ATOM       NA         ZA         QA         VA         BVA        FA
  0 C      5.7810     6.0000     0.2190     3.8469     3.8469    -0.0000
  1 N      7.4570     7.0000    -0.4570     3.3441     3.3441    -0.0000
  2 C      6.0775     6.0000    -0.0775     3.9239     3.9239    -0.0000
  3 N      7.3416     7.0000    -0.3416     3.4562     3.4562    -0.0000
  4 C      6.0789     6.0000    -0.0789     4.1395     4.1395    -0.0000
  5 N      7.5683     7.0000    -0.5683     3.0956     3.0956    -0.0000
  6 C      6.1175     6.0000    -0.1175     3.9386     3.9386    -0.0000
  7 N      7.3411     7.0000    -0.3411     3.4320     3.4320     0.0000
  8 C      5.7781     6.0000     0.2219     3.8515     3.8515     0.0000
  9 N      7.5625     7.0000    -0.5625     3.0770     3.0770    -0.0000
 10 C      5.8805     6.0000     0.1195     3.9092     3.9092    -0.0000
 11 N      7.4382     7.0000    -0.4382     3.3795     3.3795    -0.0000
 12 C      6.0444     6.0000    -0.0444     3.8266     3.8266    -0.0000
 13 N      7.4292     7.0000    -0.4292     3.4292     3.4292     0.0000
 14 C      5.7915     6.0000     0.2085     3.8025     3.8025    -0.0000
 15 N      7.4411     7.0000    -0.4411     3.3716     3.3716     0.0000
 16 C      5.7650     6.0000     0.2350     3.7762     3.7762    -0.0000
 17 C      6.1158     6.0000    -0.1158     3.9332     3.9332    -0.0000
 18 C      6.1582     6.0000    -0.1582     3.7457     3.7457     0.0000
 19 C      5.7967     6.0000     0.2033     3.8730     3.8730     0.0000
 20 C      5.7856     6.0000     0.2144     3.8288     3.8288    -0.0000
 21 C      6.0583     6.0000    -0.0583     3.8316     3.8316    -0.0000
 22 C      6.0894     6.0000    -0.0894     3.9822     3.9822    -0.0000
 23 C      6.0395     6.0000    -0.0395     3.9925     3.9925    -0.0000
 24 C      5.8061     6.0000     0.1939     3.8210     3.8210     0.0000
 25 C      5.8856     6.0000     0.1144     3.8911     3.8911     0.0000
 26 C      6.0925     6.0000    -0.0925     3.9106     3.9106     0.0000
 27 C      5.7841     6.0000     0.2159     3.8610     3.8610     0.0000
 28 C      6.0617     6.0000    -0.0617     3.9887     3.9887     0.0000
 29 C      6.1833     6.0000    -0.1833     3.7474     3.7474     0.0000
 30 C      5.7539     6.0000     0.2461     3.7995     3.7995     0.0000
 31 C      5.7690     6.0000     0.2310     3.8170     3.8170    -0.0000
 32 C      6.0613     6.0000    -0.0613     3.9235     3.9235     0.0000
 33 C      6.0598     6.0000    -0.0598     3.9708     3.9708    -0.0000
 34 C      6.0508     6.0000    -0.0508     3.9834     3.9834    -0.0000
 35 C      5.7715     6.0000     0.2285     3.8161     3.8161     0.0000
 36 C      5.8919     6.0000     0.1081     3.8744     3.8744     0.0000
 37 C      6.0643     6.0000    -0.0643     3.9177     3.9177    -0.0000
 38 C      5.7686     6.0000     0.2314     3.8018     3.8018    -0.0000
 39 C      6.0580     6.0000    -0.0580     3.9829     3.9829    -0.0000
 40 C      6.1812     6.0000    -0.1812     3.7262     3.7262    -0.0000
 41 C      5.7745     6.0000     0.2255     3.8874     3.8874    -0.0000
 42 C      5.8029     6.0000     0.1971     3.8257     3.8257    -0.0000
 43 C      6.0727     6.0000    -0.0727     3.8999     3.8999    -0.0000
 44 C      6.0901     6.0000    -0.0901     3.9857     3.9857    -0.0000
 45 C      6.0617     6.0000    -0.0617     3.9919     3.9919    -0.0000
 46 C      5.7886     6.0000     0.2114     3.8287     3.8287     0.0000
 47 C      5.8845     6.0000     0.1155     3.8932     3.8932     0.0000
 48 C      6.0667     6.0000    -0.0667     3.9093     3.9093     0.0000
 49 C      5.7617     6.0000     0.2383     3.8964     3.8964    -0.0000
 50 C      6.0461     6.0000    -0.0461     3.9903     3.9903     0.0000
 51 C      6.1950     6.0000    -0.1950     3.7377     3.7377    -0.0000
 52 H      0.9650     1.0000     0.0350     0.9857     0.9857     0.0000
 53 H      1.0181     1.0000    -0.0181     0.9993     0.9993    -0.0000
 54 H      0.9555     1.0000     0.0445     1.0091     1.0091     0.0000
 55 H      0.9671     1.0000     0.0329     0.9864     0.9864    -0.0000
 56 H      0.9506     1.0000     0.0494     0.9695     0.9695    -0.0000
 57 H      0.9527     1.0000     0.0473     0.9824     0.9824    -0.0000
 58 H      0.9535     1.0000     0.0465     0.9847     0.9847     0.0000
 59 H      1.0166     1.0000    -0.0166     0.9964     0.9964     0.0000
 60 H      0.9533     1.0000     0.0467     1.0244     1.0244     0.0000
 61 H      0.8289     1.0000     0.1711     1.0422     1.0422    -0.0000
 62 H      0.8243     1.0000     0.1757     1.0437     1.0437     0.0000
 63 H      0.9443     1.0000     0.0557     0.9852     0.9852     0.0000
 64 H      1.0225     1.0000    -0.0225     0.9946     0.9946     0.0000
 65 H      0.9529     1.0000     0.0471     1.0101     1.0101     0.0000
 66 H      0.9441     1.0000     0.0559     0.9855     0.9855    -0.0000
 67 H      0.9371     1.0000     0.0629     0.9719     0.9719     0.0000
 68 H      0.9426     1.0000     0.0574     0.9868     0.9868    -0.0000
 69 H      0.9434     1.0000     0.0566     0.9828     0.9828     0.0000
 70 H      1.0301     1.0000    -0.0301     0.9940     0.9940     0.0000
 71 H      0.9548     1.0000     0.0452     1.0058     1.0058     0.0000
 72 H      0.9283     1.0000     0.0717     0.9835     0.9835     0.0000
 73 H      1.0079     1.0000    -0.0079     1.0010     1.0010     0.0000
 74 H      0.9392     1.0000     0.0608     1.0101     1.0101     0.0000
 75 H      0.9289     1.0000     0.0711     0.9838     0.9838     0.0000
 76 H      0.9247     1.0000     0.0753     0.9721     0.9721    -0.0000
 77 H      0.9318     1.0000     0.0682     0.9855     0.9855    -0.0000
 78 H      0.9325     1.0000     0.0675     0.9854     0.9854     0.0000
 79 H      1.0165     1.0000    -0.0165     0.9975     0.9975    -0.0000
 80 H      0.9384     1.0000     0.0616     1.0072     1.0072    -0.0000
 81 H      0.9458     1.0000     0.0542     0.9856     0.9856    -0.0000
 82 H      1.0252     1.0000    -0.0252     0.9933     0.9933    -0.0000
 83 H      0.9584     1.0000     0.0416     1.0083     1.0083    -0.0000
 84 H      0.9461     1.0000     0.0539     0.9852     0.9852     0.0000
 85 H      0.9393     1.0000     0.0607     0.9716     0.9716     0.0000
 86 H      0.9446     1.0000     0.0554     0.9839     0.9839     0.0000
 87 H      0.9429     1.0000     0.0571     0.9856     0.9856     0.0000
 88 H      1.0144     1.0000    -0.0144     0.9968     0.9968    -0.0000
 89 H      0.9529     1.0000     0.0471     1.0074     1.0074     0.0000

  Mayer bond orders larger than 0.100000
B(  0-C ,  1-N ) :   1.0924 B(  0-C , 17-C ) :   1.7229 B(  0-C , 52-H ) :   0.9608 
B(  1-N ,  8-C ) :   1.0974 B(  1-N , 10-C ) :   0.9773 B(  2-C , 12-C ) :   1.4825 
B(  2-C , 16-C ) :   1.3763 B(  2-C , 53-H ) :   0.9724 B(  3-N , 14-C ) :   1.2225 
B(  3-N , 16-C ) :   1.1804 B(  3-N , 61-H ) :   0.8985 B(  4-C ,  6-C ) :   1.2204 
B(  4-C , 17-C ) :   1.2200 B(  4-C , 18-C ) :   1.4794 B(  5-N , 19-C ) :   1.4590 
B(  5-N , 27-C ) :   1.3698 B(  6-C ,  8-C ) :   1.7211 B(  6-C , 54-H ) :   0.8801 
B(  7-N , 30-C ) :   1.1947 B(  7-N , 38-C ) :   1.1898 B(  7-N , 62-H ) :   0.8966 
B(  8-C , 55-H ) :   0.9620 B(  9-N , 41-C ) :   1.3931 B(  9-N , 49-C ) :   1.4265 
B( 10-C , 56-H ) :   0.9776 B( 10-C , 57-H ) :   0.9830 B( 10-C , 58-H ) :   0.9835 
B( 11-N , 20-C ) :   1.1323 B( 11-N , 24-C ) :   1.1077 B( 11-N , 25-C ) :   0.9597 
B( 12-C , 14-C ) :   1.3612 B( 12-C , 59-H ) :   0.9204 B( 13-N , 31-C ) :   1.1629 
B( 13-N , 35-C ) :   1.1607 B( 13-N , 36-C ) :   0.9410 B( 14-C , 18-C ) :   1.1148 
B( 15-N , 42-C ) :   1.1070 B( 15-N , 46-C ) :   1.1241 B( 15-N , 47-C ) :   0.9615 
B( 16-C , 51-C ) :   1.1663 B( 17-C , 60-H ) :   0.8809 B( 18-C , 19-C ) :   1.1140 
B( 19-C , 21-C ) :   1.2527 B( 20-C , 28-C ) :   1.6275 B( 20-C , 63-H ) :   0.9702 
B( 21-C , 26-C ) :   1.5823 B( 21-C , 64-H ) :   0.9231 B( 22-C , 23-C ) :   1.2907 
B( 22-C , 28-C ) :   1.2647 B( 22-C , 29-C ) :   1.2246 B( 23-C , 24-C ) :   1.6188 
B( 23-C , 65-H ) :   0.9703 B( 24-C , 66-H ) :   0.9695 B( 25-C , 67-H ) :   0.9761 
B( 25-C , 68-H ) :   0.9828 B( 25-C , 69-H ) :   0.9823 B( 26-C , 27-C ) :   1.2612 
B( 26-C , 70-H ) :   0.9665 B( 27-C , 29-C ) :   1.2060 B( 28-C , 71-H ) :   0.9720 
B( 29-C , 30-C ) :   1.2485 B( 30-C , 32-C ) :   1.2771 B( 31-C , 39-C ) :   1.5869 
B( 31-C , 72-H ) :   0.9681 B( 32-C , 37-C ) :   1.5818 B( 32-C , 73-H ) :   0.9786 
B( 33-C , 34-C ) :   1.3082 B( 33-C , 39-C ) :   1.3045 B( 33-C , 40-C ) :   1.1741 
B( 34-C , 35-C ) :   1.5842 B( 34-C , 74-H ) :   0.9696 B( 35-C , 75-H ) :   0.9681 
B( 36-C , 76-H ) :   0.9768 B( 36-C , 77-H ) :   0.9815 B( 36-C , 78-H ) :   0.9823 
B( 37-C , 38-C ) :   1.2831 B( 37-C , 79-H ) :   0.9764 B( 38-C , 40-C ) :   1.2355 
B( 39-C , 80-H ) :   0.9705 B( 40-C , 41-C ) :   1.2508 B( 41-C , 43-C ) :   1.1848 
B( 42-C , 50-C ) :   1.6341 B( 42-C , 81-H ) :   0.9697 B( 43-C , 48-C ) :   1.6680 
B( 43-C , 82-H ) :   0.9720 B( 44-C , 45-C ) :   1.2626 B( 44-C , 50-C ) :   1.2716 
B( 44-C , 51-C ) :   1.2629 B( 45-C , 46-C ) :   1.6354 B( 45-C , 83-H ) :   0.9719 
B( 46-C , 84-H ) :   0.9700 B( 47-C , 85-H ) :   0.9762 B( 47-C , 86-H ) :   0.9829 
B( 47-C , 87-H ) :   0.9825 B( 48-C , 49-C ) :   1.1882 B( 48-C , 88-H ) :   0.9749 
B( 49-C , 51-C ) :   1.2448 B( 50-C , 89-H ) :   0.9708 

-------
TIMINGS
-------

Total SCF time: 0 days 0 hours 28 min 37 sec 

Total time                  ....    1717.971 sec
Sum of individual times     ....    1713.239 sec  ( 99.7%)

Fock matrix formation       ....    1685.612 sec  ( 98.1%)
Diagonalization             ....       8.760 sec  (  0.5%)
Density matrix formation    ....       0.536 sec  (  0.0%)
Population analysis         ....       0.585 sec  (  0.0%)
Initial guess               ....       2.534 sec  (  0.1%)
Orbital Transformation      ....       0.000 sec  (  0.0%)
Orbital Orthonormalization  ....       0.000 sec  (  0.0%)
DIIS solution               ....       3.964 sec  (  0.2%)
SOSCF solution              ....       9.952 sec  (  0.6%)

Maximum memory used throughout the entire SCF-calculation: 302.7 MB


           ************************************************************
           *        Program running with 16 parallel MPI-processes    *
           *              working on a common directory               *
           ************************************************************

------------------------------------------------------------------------------
                                ORCA  MP2 
------------------------------------------------------------------------------

Freezing NCore=104 chemical core electrons

----------
MP2 ENERGY (disk based algorithm)
----------

Dimension of the basis                    ...  918
Memory devoted to MP2                     ... 2000 MB   
Data format for buffers                   ... DOUBLE
Compression type for matrix containers    ... UNCOMPRESSED

-------------------------------
PARTIAL EXCHANGE TRANSFORMATION
-------------------------------

Transformation type                        ... one-operator
Generation of integrals (i,mue|j,nue)      ... ON
Generation of integrals (mue,kappa|nue,tau)... OFF
Generation of integrals (i,mue|a,nue)      ... OFF
Dimension of the basis                     ...  918
Number of internal MOs                     ...  127 (  52- 178)
Pair cutoff                                ... 2.500e-12 Eh
Number of AO pairs in the trafo            ... 421821
Total Number of distinct AO pairs          ... 421821
Memory devoted for trafo                   ... 2000.0 MB 
Max. Number of MO pairs treated together   ...  311      
Number Format for Storage                  ... Double (8 Byte)
Integral package used                      ... LIBINT

Starting integral evaluation:
    ... done with AO integral generation
Closing buffer AOK     (38.23 GB; CompressionRatio= 1.33)
Collecting buffer AOK 
Number of MO pairs included in the trafo   ... 8128
------------------------
SORTING OF (i,mue|j,nue)
------------------------

IBATCH = 1 of  2
IBATCH = 2 of  2
Closing buffer KAO     (51.03 GB; CompressionRatio= 1.00)
Collecting buffer KAO 
N(AO-Batches) Done                         ...  86245112 
N(AO-Batches) Skipped                      ...  82379181 
N(IJ)-pairs Skipped                        ...         0 
TOTAL TIME for half transformation         ...  2796.656 sec
AO-integral generation                     ...   212.270 sec
Half transformation                        ...   423.462 sec
K-integral sorting                         ...  1939.601 sec
Process 10:   Internal MO 132
Process 13:   Internal MO 156

Finished integral transformation - now doing MP2 part

OPERATOR COMBINATION   0   0: ij=( 52..178, 52..178)
Process  7:   Internal MO 108
Process  1:   Internal MO  60
Process  4:   Internal MO  84
Process  0:   Internal MO  54
Process  2:   Internal MO  69
Process  0:   Internal MO  57
Process  1:   Internal MO  63
Process  3:   Internal MO  78
Process  5:   Internal MO  93
Process  1:   Internal MO  66
Process  2:   Internal MO  72
Process 11:   Internal MO 141
Process  8:   Internal MO 117
Process  6:   Internal MO 102
Process 14:   Internal MO 165
Process  3:   Internal MO  81
Process  4:   Internal MO  87
Process  9:   Internal MO 126
Process  2:   Internal MO  75
Process  5:   Internal MO  96
Process  7:   Internal MO 111
Process 12:   Internal MO 150
Process 15:   Internal MO 174
Process  4:   Internal MO  90
Process 10:   Internal MO 135
Process  6:   Internal MO 105
Process  8:   Internal MO 120
Process  5:   Internal MO  99
Process 11:   Internal MO 144
Process 13:   Internal MO 159
Process  9:   Internal MO 129
Process  7:   Internal MO 114
Process 14:   Internal MO 168
Process  8:   Internal MO 123
Process 12:   Internal MO 153
Process 10:   Internal MO 138
Process 11:   Internal MO 147
Process 15:   Internal MO 177
Process 13:   Internal MO 162
Process 14:   Internal MO 171
-----------------------------------------------
 MP2 CORRELATION ENERGY   :     -7.289933306 Eh
-----------------------------------------------


-------
TIMINGS
-------
Total time                : 3045.357 sec
Integral trafo            : 2801.293 sec ( 92.0%)
K(i,j)                    :    7.091 sec (  0.2%)
T(i,j)                    :    0.484 sec (  0.0%)

---------------------------------------
MP2 TOTAL ENERGY:    -2130.782690177 Eh
---------------------------------------

Maximum memory used throughout the entire MP2-calculation: 2275.3 MB

-------------------------   --------------------
FINAL SINGLE POINT ENERGY     -2130.782690177067
-------------------------   --------------------


                            ***************************************
                            *     ORCA property calculations      *
                            ***************************************


  WARNING: The energy has been calculated at the MP2 level but the densities
           used in the property calculations are still SCF densities
           MP2 response densities have not been calculated 
           use %mp2 Density relaxed end
           or  %mp2 Density unrelaxed end

                                    ---------------------
                                    Active property flags
                                    ---------------------
   (+) Dipole Moment


------------------------------------------------------------------------------
                       ORCA ELECTRIC PROPERTIES CALCULATION
------------------------------------------------------------------------------

Dipole Moment Calculation                       ... on
Quadrupole Moment Calculation                   ... off
Polarizability Calculation                      ... off
GBWName                                         ... /scratch/allen/tmpyp4_amber_gaff2/conf1/conf1/Conf172.orca.gbw
Electron density                                ... /scratch/allen/tmpyp4_amber_gaff2/conf1/conf1/Conf172.orca.scfp
The origin for moment calculation is the CENTER OF MASS  = ( 0.003379, -0.001779  0.000832)

-------------
DIPOLE MOMENT
-------------
                                X             Y             Z
Electronic contribution:      2.71923      -4.47688      -0.21192
Nuclear contribution   :      0.05640       0.22297       0.20846
                        -----------------------------------------
Total Dipole Moment    :      2.77563      -4.25390      -0.00345
                        -----------------------------------------
Magnitude (a.u.)       :      5.07935
Magnitude (Debye)      :     12.91069



--------------------
Rotational spectrum 
--------------------
 
Rotational constants in cm-1:     0.001501     0.001480     0.000760 
Rotational constants in MHz :    45.009567    44.354473    22.782753 

 Dipole components along the rotational axes: 
x,y,z [a.u.] :     3.480793    -3.699175    -0.000910 
x,y,z [Debye]:     8.847473    -9.402556    -0.002312 

 

Timings for individual modules:

Sum of individual times         ...     4788.314 sec (=  79.805 min)
GTO integral calculation        ...        3.405 sec (=   0.057 min)   0.1 %
SCF iterations                  ...     1719.186 sec (=  28.653 min)  35.9 %
MP2 module                      ...     3065.723 sec (=  51.095 min)  64.0 %
                             ****ORCA TERMINATED NORMALLY****
TOTAL RUN TIME: 0 days 1 hours 19 minutes 51 seconds 669 msec
# of primitive gaussian functions

