
                                 *****************
                                 * O   R   C   A *
                                 *****************

                                            #,                                       
                                            ###                                      
                                            ####                                     
                                            #####                                    
                                            ######                                   
                                           ########,                                 
                                     ,,################,,,,,                         
                               ,,#################################,,                 
                          ,,##########################################,,             
                       ,#########################################, ''#####,          
                    ,#############################################,,   '####,        
                  ,##################################################,,,,####,       
                ,###########''''           ''''###############################       
              ,#####''   ,,,,##########,,,,          '''####'''          '####       
            ,##' ,,,,###########################,,,                        '##       
           ' ,,###''''                  '''############,,,                           
         ,,##''                                '''############,,,,        ,,,,,,###''
      ,#''                                            '''#######################'''  
     '                                                          ''''####''''         
             ,#######,   #######,   ,#######,      ##                                
            ,#'     '#,  ##    ##  ,#'     '#,    #''#        ######   ,####,        
            ##       ##  ##   ,#'  ##            #'  '#       #        #'  '#        
            ##       ##  #######   ##           ,######,      #####,   #    #        
            '#,     ,#'  ##    ##  '#,     ,#' ,#      #,         ##   #,  ,#        
             '#######'   ##     ##  '#######'  #'      '#     #####' # '####'        



                  #######################################################
                  #                        -***-                        #
                  #          Department of theory and spectroscopy      #
                  #    Directorship and core code : Frank Neese         #
                  #        Max Planck Institute fuer Kohlenforschung    #
                  #                Kaiser Wilhelm Platz 1               #
                  #                 D-45470 Muelheim/Ruhr               #
                  #                      Germany                        #
                  #                                                     #
                  #                  All rights reserved                #
                  #                        -***-                        #
                  #######################################################


                         Program Version 5.0.4 -  RELEASE  -


 With contributions from (in alphabetic order):
   Daniel Aravena         : Magnetic Suceptibility
   Michael Atanasov       : Ab Initio Ligand Field Theory (pilot matlab implementation)
   Alexander A. Auer      : GIAO ZORA, VPT2 properties, NMR spectrum
   Ute Becker             : Parallelization
   Giovanni Bistoni       : ED, misc. LED, open-shell LED, HFLD
   Martin Brehm           : Molecular dynamics
   Dmytro Bykov           : SCF Hessian
   Vijay G. Chilkuri      : MRCI spin determinant printing, contributions to CSF-ICE
   Dipayan Datta          : RHF DLPNO-CCSD density
   Achintya Kumar Dutta   : EOM-CC, STEOM-CC
   Dmitry Ganyushin       : Spin-Orbit,Spin-Spin,Magnetic field MRCI
   Miquel Garcia          : C-PCM and meta-GGA Hessian, CC/C-PCM, Gaussian charge scheme
   Yang Guo               : DLPNO-NEVPT2, F12-NEVPT2, CIM, IAO-localization
   Andreas Hansen         : Spin unrestricted coupled pair/coupled cluster methods
   Benjamin Helmich-Paris : MC-RPA, TRAH-SCF, COSX integrals
   Lee Huntington         : MR-EOM, pCC
   Robert Izsak           : Overlap fitted RIJCOSX, COSX-SCS-MP3, EOM
   Marcus Kettner         : VPT2
   Christian Kollmar      : KDIIS, OOCD, Brueckner-CCSD(T), CCSD density, CASPT2, CASPT2-K
   Simone Kossmann        : Meta GGA functionals, TD-DFT gradient, OOMP2, MP2 Hessian
   Martin Krupicka        : Initial AUTO-CI
   Lucas Lang             : DCDCAS
   Marvin Lechner         : AUTO-CI (C++ implementation), FIC-MRCC
   Dagmar Lenk            : GEPOL surface, SMD
   Dimitrios Liakos       : Extrapolation schemes; Compound Job, initial MDCI parallelization
   Dimitrios Manganas     : Further ROCIS development; embedding schemes
   Dimitrios Pantazis     : SARC Basis sets
   Anastasios Papadopoulos: AUTO-CI, single reference methods and gradients
   Taras Petrenko         : DFT Hessian,TD-DFT gradient, ASA, ECA, R-Raman, ABS, FL, XAS/XES, NRVS
   Peter Pinski           : DLPNO-MP2, DLPNO-MP2 Gradient
   Christoph Reimann      : Effective Core Potentials
   Marius Retegan         : Local ZFS, SOC
   Christoph Riplinger    : Optimizer, TS searches, QM/MM, DLPNO-CCSD(T), (RO)-DLPNO pert. Triples
   Tobias Risthaus        : Range-separated hybrids, TD-DFT gradient, RPA, STAB
   Michael Roemelt        : Original ROCIS implementation
   Masaaki Saitow         : Open-shell DLPNO-CCSD energy and density
   Barbara Sandhoefer     : DKH picture change effects
   Avijit Sen             : IP-ROCIS
   Kantharuban Sivalingam : CASSCF convergence, NEVPT2, FIC-MRCI
   Bernardo de Souza      : ESD, SOC TD-DFT
   Georgi Stoychev        : AutoAux, RI-MP2 NMR, DLPNO-MP2 response
   Willem Van den Heuvel  : Paramagnetic NMR
   Boris Wezisla          : Elementary symmetry handling
   Frank Wennmohs         : Technical directorship


 We gratefully acknowledge several colleagues who have allowed us to
 interface, adapt or use parts of their codes:
   Stefan Grimme, W. Hujo, H. Kruse, P. Pracht,  : VdW corrections, initial TS optimization,
                  C. Bannwarth, S. Ehlert          DFT functionals, gCP, sTDA/sTD-DF
   Ed Valeev, F. Pavosevic, A. Kumar             : LibInt (2-el integral package), F12 methods
   Garnet Chan, S. Sharma, J. Yang, R. Olivares  : DMRG
   Ulf Ekstrom                                   : XCFun DFT Library
   Mihaly Kallay                                 : mrcc  (arbitrary order and MRCC methods)
   Jiri Pittner, Ondrej Demel                    : Mk-CCSD
   Frank Weinhold                                : gennbo (NPA and NBO analysis)
   Christopher J. Cramer and Donald G. Truhlar   : smd solvation model
   Lars Goerigk                                  : TD-DFT with DH, B97 family of functionals
   V. Asgeirsson, H. Jonsson                     : NEB implementation
   FAccTs GmbH                                   : IRC, NEB, NEB-TS, DLPNO-Multilevel, CI-OPT
                                                   MM, QMMM, 2- and 3-layer-ONIOM, Crystal-QMMM,
                                                   LR-CPCM, SF, NACMEs, symmetry and pop. for TD-DFT,
                                                   nearIR, NL-DFT gradient (VV10), updates on ESD,
                                                   ML-optimized integration grids
   S Lehtola, MJT Oliveira, MAL Marques          : LibXC Library
   Liviu Ungur et al                             : ANISO software


 Your calculation uses the libint2 library for the computation of 2-el integrals
 For citations please refer to: http://libint.valeyev.net

 Your ORCA version has been built with support for libXC version: 5.1.0
 For citations please refer to: https://tddft.org/programs/libxc/

 This ORCA versions uses:
   CBLAS   interface :  Fast vector & matrix operations
   LAPACKE interface :  Fast linear algebra routines
   SCALAPACK package :  Parallel linear algebra routines
   Shared memory     :  Shared parallel matrices
   BLAS/LAPACK       :  OpenBLAS 0.3.15  USE64BITINT DYNAMIC_ARCH NO_AFFINITY Sandybridge SINGLE_THREADED
        Core in use  :  Sandybridge
   Copyright (c) 2011-2014, The OpenBLAS Project


================================================================================

----- Orbital basis set information -----
Your calculation utilizes the basis: cc-pVDZ 
       H, B-Ne : Obtained from the ccRepo (grant-hill.group.shef.ac.uk/ccrepo) Feb. 2017
                 T. H. Dunning, Jr., J. Chem. Phys. 90, 1007 (1989)
            He : Obtained from the ccRepo (grant-hill.group.shef.ac.uk/ccrepo) Feb. 2017
                 D. E. Woon, T. H. Dunning, Jr., J. Chem. Phys. 100, 2975 (1994)
  Li-Be, Na-Mg : Obtained from the ccRepo (grant-hill.group.shef.ac.uk/ccrepo) Feb. 2017
                 B. P. Prascher, D. E. Woon, K. A. Peterson, T. H. Dunning, Jr., A. K. Wilson, Theor. Chem. Acc. 128, 69 (2011)
         Al-Ar : Obtained from the ccRepo (grant-hill.group.shef.ac.uk/ccrepo) Feb. 2017
                 D. E. Woon, T. H. Dunning, Jr., J. Chem. Phys. 98, 1358 (1993)
            Ca : Obtained from the Peterson Research Group Website (tyr0.chem.wsu.edu/~kipeters) Feb. 2017
                 J. Koput, K. A. Peterson, J. Phys. Chem. 106, 9595 (2002)
         Sc-Zn : Obtained from the ccRepo (grant-hill.group.shef.ac.uk/ccrepo) Feb. 2017
                 N. B. Balabanov, K. A. Peterson, J. Chem. Phys. 123, 064107 (2005)
                 N. B. Balabanov, K. A. Peterson, J. Chem. Phys. 125, 074110 (2006)
         Ga-Kr : Obtained from the ccRepo (grant-hill.group.shef.ac.uk/ccrepo) Feb. 2017
                 A. K. Wilson, D. E. Woon, K. A. Peterson, T. H. Dunning, Jr., J. Chem. Phys. 110, 7667 (1999)

================================================================================
                                        WARNINGS
                       Please study these warnings very carefully!
================================================================================


WARNING: No MP2 level density has been requested!
         To caclulate MP2 level properties use
         %mp2 Density relaxed end
         or
         %mp2 Density unrelaxed end

WARNING: Post HF methods need fully converged wavefunctions
  ===> : Setting SCFConvForced true
         You can overwrite this default with %scf ConvForced false 


INFO   : the flag for use of the SHARK integral package has been found!

================================================================================
                                       INPUT FILE
================================================================================
NAME = /scratch/allen/tmpyp4_amber_gaff2/2.Mdgx/conf11/conf11/Conf108.orca
|  1> ! PAL2
|  2> ! mp2 cc-pvdz TightSCF  NoKeepInts
|  3> 
|  4> %scf
|  5>   MaxCore 2000
|  6> end
|  7> %mp2
|  8>   MaxCore 2000
|  9> end
| 10> * xyz 0 1
| 11>    C       -4.25600         5.68300        -1.03900
| 12>    C        1.47400         4.04100         0.05700
| 13>    C       -2.80200         4.09300         0.04900
| 14>    C       -2.92600         4.85800         1.21900
| 15>    C       -3.70500         5.99800         1.22300
| 16>    C       -5.21100         7.60300         0.15200
| 17>    C        0.13200         4.30700         0.06100
| 18>    C       -0.56900         3.05600         0.04700
| 19>    C        1.64900         2.61800         0.02300
| 20>    C       -3.49300         4.53200        -1.09100
| 21>    N       -4.35300         6.39800         0.10400
| 22>    N        0.38800         2.06700         0.02500
| 23>    N       -2.01000         0.39500        -0.07500
| 24>    N       -0.38800        -2.07400        -0.02700
| 25>    N        2.01000        -0.40100         0.06500
| 26>    C       -1.96000         2.86100         0.02400
| 27>    C       -2.62300         1.61500        -0.01800
| 28>    C       -5.57300        -4.32900         1.06600
| 29>    C       -4.07300         1.47100         0.05600
| 30>    C       -4.10600        -2.75600        -0.02600
| 31>    C       -4.99500        -2.75700        -1.11100
| 32>    C       -6.13200        -3.54200        -1.07600
| 33>    C       -7.65100        -5.11300         0.04000
| 34>    C       -4.32400         0.14100         0.03700
| 35>    C       -3.02500        -0.52000        -0.04800
| 36>    C       -4.42200        -3.56600         1.07500
| 37>    N       -6.40700        -4.31300         0.00100
| 38>    C       -2.86700        -1.92200        -0.04000
| 39>    C       -1.65000        -2.62400        -0.02700
| 40>    C        3.56800        -6.14200        -1.04000
| 41>    C       -1.47600        -4.04900        -0.03400
| 42>    C        2.80300        -4.09900        -0.00800
| 43>    C        3.65700        -4.38400         1.06900
| 44>    C        4.42700        -5.53000         1.05900
| 45>    C        5.24500        -7.58800         0.01400
| 46>    C       -0.13400        -4.31500        -0.02200
| 47>    C        0.56800        -3.06400        -0.02700
| 48>    C        2.77500        -5.01200        -1.07400
| 49>    N        4.37600        -6.39100         0.01700
| 50>    C        1.95900        -2.86900        -0.00900
| 51>    C        2.62100        -1.62200         0.00900
| 52>    C        5.54300         4.33900        -1.13000
| 53>    C        4.07000        -1.47900        -0.09400
| 54>    C        4.10400         2.75100        -0.02100
| 55>    C        5.02700         2.72900         1.03600
| 56>    C        6.16600         3.50900         0.97800
| 57>    C        7.61900         5.15300        -0.11500
| 58>    C        4.32100        -0.14800        -0.09200
| 59>    C        3.02500         0.51400         0.01500
| 60>    C        4.38700         3.58200        -1.11500
| 61>    C        2.86600         1.91600         0.01300
| 62>    N        6.41300         4.29600        -0.09500
| 63>    H       -4.79500         6.06500        -1.89700
| 64>    H        2.27400         4.76600         0.08100
| 65>    H       -2.42500         4.56600         2.13400
| 66>    H       -3.83700         6.61500         2.10200
| 67>    H       -6.20600         7.31800         0.50100
| 68>    H       -4.76500         8.32400         0.83700
| 69>    H       -5.27300         8.02800        -0.85000
| 70>    H       -0.33200         5.28200         0.06900
| 71>    H       -3.42600         3.99200        -2.02900
| 72>    H        0.18200         1.07200         0.00500
| 73>    H       -0.18300        -1.08000        -0.02100
| 74>    H       -5.86400        -4.96200         1.89500
| 75>    H       -4.79400         2.27200         0.13900
| 76>    H       -4.80000        -2.16000        -1.99400
| 77>    H       -6.84100        -3.58200        -1.89300
| 78>    H       -8.42800        -4.53600         0.54600
| 79>    H       -7.95600        -5.33700        -0.98100
| 80>    H       -7.45600        -6.03700         0.58400
| 81>    H       -5.28700        -0.34400         0.10000
| 82>    H       -3.78000        -3.60100         1.94700
| 83>    H        3.58700        -6.86800        -1.84300
| 84>    H       -2.27600        -4.77400        -0.05000
| 85>    H        3.71400        -3.72400         1.92600
| 86>    H        5.09200        -5.79500         1.87100
| 87>    H        6.20500        -7.32900        -0.43900
| 88>    H        5.39300        -7.91700         1.04200
| 89>    H        4.75900        -8.37300        -0.56400
| 90>    H        0.32900        -5.29000        -0.00800
| 91>    H        2.14600        -4.84200        -1.94000
| 92>    H        5.80800         4.98600        -1.95600
| 93>    H        4.78800        -2.28100        -0.18500
| 94>    H        4.86000         2.11400         1.91200
| 95>    H        6.90100         3.53100         1.77200
| 96>    H        7.38300         6.10900         0.35600
| 97>    H        8.41400         4.65200         0.43500
| 98>    H        7.92100         5.31000        -1.15000
| 99>    H        5.28300         0.33600        -0.17900
|100>    H        3.72000         3.63200        -1.96700
|101> *
|102> 
|103>                          ****END OF INPUT****
================================================================================

                       ****************************
                       * Single Point Calculation *
                       ****************************

---------------------------------
CARTESIAN COORDINATES (ANGSTROEM)
---------------------------------
  C     -4.256000    5.683000   -1.039000
  C      1.474000    4.041000    0.057000
  C     -2.802000    4.093000    0.049000
  C     -2.926000    4.858000    1.219000
  C     -3.705000    5.998000    1.223000
  C     -5.211000    7.603000    0.152000
  C      0.132000    4.307000    0.061000
  C     -0.569000    3.056000    0.047000
  C      1.649000    2.618000    0.023000
  C     -3.493000    4.532000   -1.091000
  N     -4.353000    6.398000    0.104000
  N      0.388000    2.067000    0.025000
  N     -2.010000    0.395000   -0.075000
  N     -0.388000   -2.074000   -0.027000
  N      2.010000   -0.401000    0.065000
  C     -1.960000    2.861000    0.024000
  C     -2.623000    1.615000   -0.018000
  C     -5.573000   -4.329000    1.066000
  C     -4.073000    1.471000    0.056000
  C     -4.106000   -2.756000   -0.026000
  C     -4.995000   -2.757000   -1.111000
  C     -6.132000   -3.542000   -1.076000
  C     -7.651000   -5.113000    0.040000
  C     -4.324000    0.141000    0.037000
  C     -3.025000   -0.520000   -0.048000
  C     -4.422000   -3.566000    1.075000
  N     -6.407000   -4.313000    0.001000
  C     -2.867000   -1.922000   -0.040000
  C     -1.650000   -2.624000   -0.027000
  C      3.568000   -6.142000   -1.040000
  C     -1.476000   -4.049000   -0.034000
  C      2.803000   -4.099000   -0.008000
  C      3.657000   -4.384000    1.069000
  C      4.427000   -5.530000    1.059000
  C      5.245000   -7.588000    0.014000
  C     -0.134000   -4.315000   -0.022000
  C      0.568000   -3.064000   -0.027000
  C      2.775000   -5.012000   -1.074000
  N      4.376000   -6.391000    0.017000
  C      1.959000   -2.869000   -0.009000
  C      2.621000   -1.622000    0.009000
  C      5.543000    4.339000   -1.130000
  C      4.070000   -1.479000   -0.094000
  C      4.104000    2.751000   -0.021000
  C      5.027000    2.729000    1.036000
  C      6.166000    3.509000    0.978000
  C      7.619000    5.153000   -0.115000
  C      4.321000   -0.148000   -0.092000
  C      3.025000    0.514000    0.015000
  C      4.387000    3.582000   -1.115000
  C      2.866000    1.916000    0.013000
  N      6.413000    4.296000   -0.095000
  H     -4.795000    6.065000   -1.897000
  H      2.274000    4.766000    0.081000
  H     -2.425000    4.566000    2.134000
  H     -3.837000    6.615000    2.102000
  H     -6.206000    7.318000    0.501000
  H     -4.765000    8.324000    0.837000
  H     -5.273000    8.028000   -0.850000
  H     -0.332000    5.282000    0.069000
  H     -3.426000    3.992000   -2.029000
  H      0.182000    1.072000    0.005000
  H     -0.183000   -1.080000   -0.021000
  H     -5.864000   -4.962000    1.895000
  H     -4.794000    2.272000    0.139000
  H     -4.800000   -2.160000   -1.994000
  H     -6.841000   -3.582000   -1.893000
  H     -8.428000   -4.536000    0.546000
  H     -7.956000   -5.337000   -0.981000
  H     -7.456000   -6.037000    0.584000
  H     -5.287000   -0.344000    0.100000
  H     -3.780000   -3.601000    1.947000
  H      3.587000   -6.868000   -1.843000
  H     -2.276000   -4.774000   -0.050000
  H      3.714000   -3.724000    1.926000
  H      5.092000   -5.795000    1.871000
  H      6.205000   -7.329000   -0.439000
  H      5.393000   -7.917000    1.042000
  H      4.759000   -8.373000   -0.564000
  H      0.329000   -5.290000   -0.008000
  H      2.146000   -4.842000   -1.940000
  H      5.808000    4.986000   -1.956000
  H      4.788000   -2.281000   -0.185000
  H      4.860000    2.114000    1.912000
  H      6.901000    3.531000    1.772000
  H      7.383000    6.109000    0.356000
  H      8.414000    4.652000    0.435000
  H      7.921000    5.310000   -1.150000
  H      5.283000    0.336000   -0.179000
  H      3.720000    3.632000   -1.967000

----------------------------
CARTESIAN COORDINATES (A.U.)
----------------------------
  NO LB      ZA    FRAG     MASS         X           Y           Z
   0 C     6.0000    0    12.011   -8.042674   10.739314   -1.963425
   1 C     6.0000    0    12.011    2.785456    7.636383    0.107714
   2 C     6.0000    0    12.011   -5.295013    7.734649    0.092597
   3 C     6.0000    0    12.011   -5.529339    9.180290    2.303576
   4 C     6.0000    0    12.011   -7.001435   11.334577    2.311135
   5 C     6.0000    0    12.011   -9.847363   14.367588    0.287238
   6 C     6.0000    0    12.011    0.249444    8.139050    0.115273
   7 C     6.0000    0    12.011   -1.075254    5.775003    0.088817
   8 C     6.0000    0    12.011    3.116158    4.947303    0.043464
   9 C     6.0000    0    12.011   -6.600813    8.564239   -2.061691
  10 N     7.0000    0    14.007   -8.225978   12.090468    0.196532
  11 N     7.0000    0    14.007    0.733214    3.906064    0.047243
  12 N     7.0000    0    14.007   -3.798350    0.746442   -0.141729
  13 N     7.0000    0    14.007   -0.733214   -3.919292   -0.051023
  14 N     7.0000    0    14.007    3.798350   -0.757780    0.122832
  15 C     6.0000    0    12.011   -3.703863    5.406506    0.045353
  16 C     6.0000    0    12.011   -4.956752    3.051908   -0.034015
  17 C     6.0000    0    12.011  -10.531444   -8.180624    2.014448
  18 C     6.0000    0    12.011   -7.696855    2.779787    0.105825
  19 C     6.0000    0    12.011   -7.759216   -5.208085   -0.049133
  20 C     6.0000    0    12.011   -9.439182   -5.209975   -2.099486
  21 C     6.0000    0    12.011  -11.587801   -6.693410   -2.033345
  22 C     6.0000    0    12.011  -14.458295   -9.662170    0.075589
  23 C     6.0000    0    12.011   -8.171176    0.266451    0.069920
  24 C     6.0000    0    12.011   -5.716422   -0.982658   -0.090707
  25 C     6.0000    0    12.011   -8.356369   -6.738763    2.031456
  26 N     7.0000    0    14.007  -12.107475   -8.150389    0.001890
  27 C     6.0000    0    12.011   -5.417845   -3.632054   -0.075589
  28 C     6.0000    0    12.011   -3.118048   -4.958641   -0.051023
  29 C     6.0000    0    12.011    6.742543  -11.606698   -1.965315
  30 C     6.0000    0    12.011   -2.789236   -7.651501   -0.064251
  31 C     6.0000    0    12.011    5.296902   -7.745987   -0.015118
  32 C     6.0000    0    12.011    6.910728   -8.284559    2.020117
  33 C     6.0000    0    12.011    8.365818  -10.450186    2.001220
  34 C     6.0000    0    12.011    9.911614  -14.339242    0.026456
  35 C     6.0000    0    12.011   -0.253223   -8.154168   -0.041574
  36 C     6.0000    0    12.011    1.073364   -5.790121   -0.051023
  37 C     6.0000    0    12.011    5.243990   -9.471307   -2.029566
  38 N     7.0000    0    14.007    8.269442  -12.077240    0.032125
  39 C     6.0000    0    12.011    3.701973   -5.421624   -0.017008
  40 C     6.0000    0    12.011    4.952972   -3.065136    0.017008
  41 C     6.0000    0    12.011   10.474752    8.199522   -2.135391
  42 C     6.0000    0    12.011    7.691185   -2.794905   -0.177634
  43 C     6.0000    0    12.011    7.755436    5.198637   -0.039684
  44 C     6.0000    0    12.011    9.499653    5.157063    1.957756
  45 C     6.0000    0    12.011   11.652051    6.631049    1.848152
  46 C     6.0000    0    12.011   14.397823    9.737759   -0.217319
  47 C     6.0000    0    12.011    8.165507   -0.279679   -0.173855
  48 C     6.0000    0    12.011    5.716422    0.971319    0.028346
  49 C     6.0000    0    12.011    8.290229    6.768999   -2.107045
  50 C     6.0000    0    12.011    5.415955    3.620715    0.024566
  51 N     7.0000    0    14.007   12.118814    8.118263   -0.179524
  52 H     1.0000    0     1.008   -9.061237   11.461189   -3.584810
  53 H     1.0000    0     1.008    4.297237    9.006435    0.153068
  54 H     1.0000    0     1.008   -4.582586    8.628490    4.032676
  55 H     1.0000    0     1.008   -7.250879   12.500538    3.972204
  56 H     1.0000    0     1.008  -11.727640   13.829016    0.946753
  57 H     1.0000    0     1.008   -9.004545   15.730080    1.581701
  58 H     1.0000    0     1.008   -9.964526   15.170721   -1.606267
  59 H     1.0000    0     1.008   -0.627389    9.981533    0.130391
  60 H     1.0000    0     1.008   -6.474202    7.543787   -3.834254
  61 H     1.0000    0     1.008    0.343930    2.025786    0.009449
  62 H     1.0000    0     1.008   -0.345820   -2.040904   -0.039684
  63 H     1.0000    0     1.008  -11.081354   -9.376821    3.581031
  64 H     1.0000    0     1.008   -9.059347    4.293458    0.262672
  65 H     1.0000    0     1.008   -9.070685   -4.081808   -3.768114
  66 H     1.0000    0     1.008  -12.927616   -6.768999   -3.577252
  67 H     1.0000    0     1.008  -15.926612   -8.571798    1.031790
  68 H     1.0000    0     1.008  -15.034661  -10.085468   -1.853821
  69 H     1.0000    0     1.008  -14.089798  -11.408277    1.103600
  70 H     1.0000    0     1.008   -9.990982   -0.650066    0.188973
  71 H     1.0000    0     1.008   -7.143165   -6.804904    3.679297
  72 H     1.0000    0     1.008    6.778448  -12.978639   -3.482765
  73 H     1.0000    0     1.008   -4.301017   -9.021553   -0.094486
  74 H     1.0000    0     1.008    7.018443   -7.037340    3.639613
  75 H     1.0000    0     1.008    9.622485  -10.950963    3.535678
  76 H     1.0000    0     1.008   11.725751  -13.849803   -0.829590
  77 H     1.0000    0     1.008   10.191293  -14.960962    1.969095
  78 H     1.0000    0     1.008    8.993207  -15.822677   -1.065806
  79 H     1.0000    0     1.008    0.621720   -9.996651   -0.015118
  80 H     1.0000    0     1.008    4.055352   -9.150054   -3.666069
  81 H     1.0000    0     1.008   10.975529    9.422175   -3.696304
  82 H     1.0000    0     1.008    9.048009   -4.310465   -0.349599
  83 H     1.0000    0     1.008    9.184069    3.994881    3.613156
  84 H     1.0000    0     1.008   13.041000    6.672623    3.348595
  85 H     1.0000    0     1.008   13.951848   11.544337    0.672743
  86 H     1.0000    0     1.008   15.900156    8.791006    0.822031
  87 H     1.0000    0     1.008   14.968521   10.034446   -2.173185
  88 H     1.0000    0     1.008    9.983423    0.634948   -0.338261
  89 H     1.0000    0     1.008    7.029781    6.863485   -3.717091

--------------------------------
INTERNAL COORDINATES (ANGSTROEM)
--------------------------------
 C      0   0   0     0.000000000000     0.00000000     0.00000000
 C      1   0   0     6.060551130054     0.00000000     0.00000000
 C      1   2   0     2.413702550026    33.94966553     0.00000000
 C      3   1   2     1.403389112114    87.90744020    95.15757727
 C      4   3   1     1.380745088711   120.15426462     0.11436147
 C      5   4   3     2.447672772247   152.53076158     1.67198550
 C      2   1   3     1.368114030335    11.60428472   327.66627940
 C      7   2   3     1.434084376876   108.05010202     0.84668783
 C      2   1   3     1.434123425651   112.32835361    39.02923894
 C      1   2   3     1.381909548415    42.19386215   311.74302623
 N      1   2   3     1.351696341639    93.33885488    86.11250293
 N      9   2   1     1.376127174356   106.58526707   347.66166168
 N     12   9   2     2.925062050624   168.53581413   171.12065651
 N     13  12   9     2.954513327098    91.55032014    11.12112580
 N     14  13  12     2.925371258490    88.43092389   359.84326247
 C      8   7   2     1.404790019896   127.24786865   181.11170171
 C     13  12   9     1.366535034311    81.72106996   188.00453233
 C     14  13  12     5.758810554272    80.56209567   166.76250791
 C     17  13  12     1.459010623676   111.08861209   183.82872609
 C     18  14  13     2.412235892279    27.27532823    36.33507194
 C     20  18  14     1.402692767501    87.95206320   148.94598259
 C     21  20  18     1.382106725257   120.14573887   359.70382047
 C     18  14  13     2.446510985056   144.15733107    82.80075377
 C     19  17  13     1.353610726908   106.29293361   359.75308708
 C     13  12   9     1.366813447402   172.21332906    33.46711076
 C     18  14  13     1.380960173213    15.08449437   309.23336894
 N     22  21  20     1.352773077792   120.73759875     0.27865223
 C     25  13  17     1.410897586645   125.60330303   182.37774668
 C     14  13  12     1.376642291955    80.24689249   177.85461986
 C     14  13  12     5.764089607215   164.51507311   312.20821879
 C     29  14  13     1.435600919476   106.58649366   178.76395472
 C     30  14  13     2.413316804732    27.10625047    82.12560436
 C     32  30  14     1.403734305344    87.90059683   149.76154742
 C     33  32  30     1.380694028378   120.14881443   359.74174632
 C     34  33  32     2.448777858443   152.49203239     2.45173620
 C     31  29  14     1.368160809262   108.16950133     0.70383075
 C     14  13  12     1.376239804685   169.26375223   353.09862627
 C     30  14  13     1.380907310430    14.68948582   353.70041132
 N     34  33  32     1.352658863128   120.85575621     0.19603406
 C     37  14  29     1.404717053360   126.01551127   180.90772073
 C     15  14  13     1.366491126938    81.61824056   183.09049352
 C      2   1   3     4.249062720177   146.70678229   160.31295620
 C     41  15  14     1.459677704153   111.05201287   175.08990246
 C     42   2   1     2.412953791518    41.78584867   208.69849623
 C     44  42   2     1.403446472082    87.95153797   233.97558675
 C     45  44  42     1.381696421071   120.11137308     0.19721020
 C     42   2   1     2.450019795838   135.97209175   119.01334534
 C     43  41  15     1.354461516618   106.26758155     0.30894352
 C     15  14  13     1.367461151185   171.87382904   332.35056460
 C     42   2   1     1.381886391857    32.59078432   257.55377543
 C      9   2   1     1.404988612053   126.98745415   168.66599921
 N     42   2   1     1.352765315936   113.57249190   146.74993453
 H      1   2   3     1.082870721739   135.19152429   220.14447761
 H      2   1   3     1.079907866440   121.50191123   208.25513714
 H      4   3   1     1.083277434455   121.09036867   179.55300640
 H      5   4   3     1.082013863127   122.81915924   179.50423001
 H      6   5   4     1.092268739826   104.45287622   100.05626808
 H      6   5   4     1.089945870216    84.66383031   209.52447083
 H      6   5   4     1.090171087490   133.85168417   322.35563639
 H      7   2  54     1.079807853278   126.66122480     1.30600390
 H     10   1   2     1.084404444845   118.77843028   237.09863194
 H     12   9   2     1.016297692608   125.29023241   180.00180175
 H     14  13  12     1.014936943854    44.97226959   359.42596618
 H     18  14  13     1.082871645210   128.03556573   234.20482432
 H     19  17  13     1.080893611786   126.41830519   178.11313280
 H     21  20  18     1.083569563987   121.05669627   180.67006309
 H     22  21  20     1.082483256222   122.73097286   180.59748951
 H     23  18  14     1.092105306278   103.92715769   234.93429879
 H     23  18  14     1.088871893291   134.19244188    12.25587044
 H     23  18  14     1.089833473518    84.85857450   125.45241208
 H     24  19  17     1.080075460327   127.28078426   178.44613241
 H     26  18  14     1.083408048706   118.76995697   244.94906660
 H     30  14  13     1.082703098730   127.99711412   279.66882698
 H     31  29  14     1.079759695488   125.22293469   180.92530585
 H     33  32  30     1.083188810873   121.01964473   180.74284758
 H     34  33  32     1.082494341787   122.70821597   180.59516895
 H     35  34  33     1.092652735319   105.73575241    97.19771933
 H     35  34  33     1.089462711615    84.05943581   206.43036958
 H     35  34  33     1.089268102902   133.08365142   318.50306270
 H     36  31  29     1.079439669458   126.61599965   178.98859863
 H     38  30  73     1.083742127999   118.77264435   359.90091293
 H     42   2   1     1.082178358682   119.31790784     3.38146498
 H     43  41  15     1.080281907652   126.36969097   182.06329380
 H     45  44  42     1.083277434455   121.10105945   179.58025624
 H     46  45  44     1.082194529648   122.72144639   179.46906377
 H     47  42   2     1.091546151109   106.65128841   315.16475048
 H     47  42   2     1.088818625851   132.46019523    94.52397119
 H     47  42   2     1.089531091801    83.63838232   206.04504406
 H     48  43  41     1.080402239909   127.23657387   181.62955349
 H     50  42   2     1.083186502870   118.77001737    94.71359229

---------------------------
INTERNAL COORDINATES (A.U.)
---------------------------
 C      0   0   0     0.000000000000     0.00000000     0.00000000
 C      1   0   0    11.452781856429     0.00000000     0.00000000
 C      1   2   0     4.561236788296    33.94966553     0.00000000
 C      3   1   2     2.652021081222    87.90744020    95.15757727
 C      4   3   1     2.609230078421   120.15426462     0.11436147
 C      5   4   3     4.625431205003   152.53076158     1.67198550
 C      2   1   3     2.585360837309    11.60428472   327.66627940
 C      7   2   3     2.710026725231   108.05010202     0.84668783
 C      2   1   3     2.710100516721   112.32835361    39.02923894
 C      1   2   3     2.611430588355    42.19386215   311.74302623
 N      1   2   3     2.554335901921    93.33885488    86.11250293
 N      9   2   1     2.600503484979   106.58526707   347.66166168
 N     12   9   2     5.527566200405   168.53581413   171.12065651
 N     13  12   9     5.583221047236    91.55032014    11.12112580
 N     14  13  12     5.528150518591    88.43092389   359.84326247
 C      8   7   2     2.654668413270   127.24786865   181.11170171
 C     13  12   9     2.582376967257    81.72106996   188.00453233
 C     14  13  12    10.882574804710    80.56209567   166.76250791
 C     17  13  12     2.757130505230   111.08861209   183.82872609
 C     18  14  13     4.558465206823    27.27532823    36.33507194
 C     20  18  14     2.650705180609    87.95206320   148.94598259
 C     21  20  18     2.611803198586   120.14573887   359.70382047
 C     18  14  13     4.623235745386   144.15733107    82.80075377
 C     19  17  13     2.557953565794   106.29293361   359.75308708
 C     13  12   9     2.582903091751   172.21332906    33.46711076
 C     18  14  13     2.609636529225    15.08449437   309.23336894
 N     22  21  20     2.556370638369   120.73759875     0.27865223
 C     25  13  17     2.666210041769   125.60330303   182.37774668
 C     14  13  12     2.601476916169    80.24689249   177.85461986
 C     14  13  12    10.892550769017   164.51507311   312.20821879
 C     29  14  13     2.712892575415   106.58649366   178.76395472
 C     30  14  13     4.560507835333    27.10625047    82.12560436
 C     32  30  14     2.652673401891    87.90059683   149.76154742
 C     33  32  30     2.609133588376   120.14881443   359.74174632
 C     34  33  32     4.627519515267   152.49203239     2.45173620
 C     31  29  14     2.585449236669   108.16950133     0.70383075
 C     14  13  12     2.600716325456   169.26375223   353.09862627
 C     30  14  13     2.609536633043    14.68948582   353.70041132
 N     34  33  32     2.556154803934   120.85575621     0.19603406
 C     37  14  29     2.654530526499   126.01551127   180.90772073
 C     15  14  13     2.582293994346    81.61824056   183.09049352
 C      2   1   3     8.029564866989   146.70678229   160.31295620
 C     41  15  14     2.758391104639   111.05201287   175.08990246
 C     42   2   1     4.559821839776    41.78584867   208.69849623
 C     44  42   2     2.652129475853    87.95153797   233.97558675
 C     45  44  42     2.611027836043   120.11137308     0.19721020
 C     42   2   1     4.629866436820   135.97209175   119.01334534
 C     43  41  15     2.559561325344   106.26758155     0.30894352
 C     15  14  13     2.584127074516   171.87382904   332.35056460
 C     42   2   1     2.611386828803    32.59078432   257.55377543
 C      9   2   1     2.655043698059   126.98745415   168.66599921
 N     42   2   1     2.556355970587   113.57249190   146.74993453
 H      1   2   3     2.046329102529   135.19152429   220.14447761
 H      2   1   3     2.040730117440   121.50191123   208.25513714
 H      4   3   1     2.047097678177   121.09036867   179.55300640
 H      5   4   3     2.044709874417   122.81915924   179.50423001
 H      6   5   4     2.064088782913   104.45287622   100.05626808
 H      6   5   4     2.059699195506    84.66383031   209.52447083
 H      6   5   4     2.060124794476   133.85168417   322.35563639
 H      7   2  54     2.040541119952   126.66122480     1.30600390
 H     10   1   2     2.049227419164   118.77843028   237.09863194
 H     12   9   2     1.920524309565   125.29023241   180.00180175
 H     14  13  12     1.917952867083    44.97226959   359.42596618
 H     18  14  13     2.046330847636   128.03556573   234.20482432
 H     19  17  13     2.042592906181   126.41830519   178.11313280
 H     21  20  18     2.047649722989   121.05669627   180.67006309
 H     22  21  20     2.045596898814   122.73097286   180.59748951
 H     23  18  14     2.063779938267   103.92715769   234.93429879
 H     23  18  14     2.057669673245   134.19244188    12.25587044
 H     23  18  14     2.059486796529    84.85857450   125.45241208
 H     24  19  17     2.041046823986   127.28078426   178.44613241
 H     26  18  14     2.047344503340   118.76995697   244.94906660
 H     30  14  13     2.046012340948   127.99711412   279.66882698
 H     31  29  14     2.040450114918   125.22293469   180.92530585
 H     33  32  30     2.046930203877   121.01964473   180.74284758
 H     34  33  32     2.045617847496   122.70821597   180.59516895
 H     35  34  33     2.064814429233   105.73575241    97.19771933
 H     35  34  33     2.058786158072    84.05943581   206.43036958
 H     35  34  33     2.058418400901   133.08365142   318.50306270
 H     36  31  29     2.039845353366   126.61599965   178.98859863
 H     38  30  73     2.047975821711   118.77264435   359.90091293
 H     42   2   1     2.045020725966   119.31790784     3.38146498
 H     43  41  15     2.041436952892   126.36969097   182.06329380
 H     45  44  42     2.047097678177   121.10105945   179.58025624
 H     46  45  44     2.045051284662   122.72144639   179.46906377
 H     47  42   2     2.062723288131   106.65128841   315.16475048
 H     47  42   2     2.057569012371   132.46019523    94.52397119
 H     47  42   2     2.058915377895    83.63838232   206.04504406
 H     48  43  41     2.041664347903   127.23657387   181.62955349
 H     50  42   2     2.046925842384   118.77001737    94.71359229

---------------------
BASIS SET INFORMATION
---------------------
There are 3 groups of distinct atoms

 Group   1 Type C   : 17s4p1d contracted to 3s2p1d pattern {881/31/1}
 Group   2 Type N   : 17s4p1d contracted to 3s2p1d pattern {881/31/1}
 Group   3 Type H   : 4s1p contracted to 2s1p pattern {31/1}

Atom   0C    basis set group =>   1
Atom   1N    basis set group =>   2
Atom   2C    basis set group =>   1
Atom   3N    basis set group =>   2
Atom   4C    basis set group =>   1
Atom   5N    basis set group =>   2
Atom   6C    basis set group =>   1
Atom   7N    basis set group =>   2
Atom   8C    basis set group =>   1
Atom   9N    basis set group =>   2
Atom  10C    basis set group =>   1
Atom  11N    basis set group =>   2
Atom  12C    basis set group =>   1
Atom  13N    basis set group =>   2
Atom  14C    basis set group =>   1
Atom  15N    basis set group =>   2
Atom  16C    basis set group =>   1
Atom  17C    basis set group =>   1
Atom  18C    basis set group =>   1
Atom  19C    basis set group =>   1
Atom  20C    basis set group =>   1
Atom  21C    basis set group =>   1
Atom  22C    basis set group =>   1
Atom  23C    basis set group =>   1
Atom  24C    basis set group =>   1
Atom  25C    basis set group =>   1
Atom  26C    basis set group =>   1
Atom  27C    basis set group =>   1
Atom  28C    basis set group =>   1
Atom  29C    basis set group =>   1
Atom  30C    basis set group =>   1
Atom  31C    basis set group =>   1
Atom  32C    basis set group =>   1
Atom  33C    basis set group =>   1
Atom  34C    basis set group =>   1
Atom  35C    basis set group =>   1
Atom  36C    basis set group =>   1
Atom  37C    basis set group =>   1
Atom  38C    basis set group =>   1
Atom  39C    basis set group =>   1
Atom  40C    basis set group =>   1
Atom  41C    basis set group =>   1
Atom  42C    basis set group =>   1
Atom  43C    basis set group =>   1
Atom  44C    basis set group =>   1
Atom  45C    basis set group =>   1
Atom  46C    basis set group =>   1
Atom  47C    basis set group =>   1
Atom  48C    basis set group =>   1
Atom  49C    basis set group =>   1
Atom  50C    basis set group =>   1
Atom  51C    basis set group =>   1
Atom  52H    basis set group =>   3
Atom  53H    basis set group =>   3
Atom  54H    basis set group =>   3
Atom  55H    basis set group =>   3
Atom  56H    basis set group =>   3
Atom  57H    basis set group =>   3
Atom  58H    basis set group =>   3
Atom  59H    basis set group =>   3
Atom  60H    basis set group =>   3
Atom  61H    basis set group =>   3
Atom  62H    basis set group =>   3
Atom  63H    basis set group =>   3
Atom  64H    basis set group =>   3
Atom  65H    basis set group =>   3
Atom  66H    basis set group =>   3
Atom  67H    basis set group =>   3
Atom  68H    basis set group =>   3
Atom  69H    basis set group =>   3
Atom  70H    basis set group =>   3
Atom  71H    basis set group =>   3
Atom  72H    basis set group =>   3
Atom  73H    basis set group =>   3
Atom  74H    basis set group =>   3
Atom  75H    basis set group =>   3
Atom  76H    basis set group =>   3
Atom  77H    basis set group =>   3
Atom  78H    basis set group =>   3
Atom  79H    basis set group =>   3
Atom  80H    basis set group =>   3
Atom  81H    basis set group =>   3
Atom  82H    basis set group =>   3
Atom  83H    basis set group =>   3
Atom  84H    basis set group =>   3
Atom  85H    basis set group =>   3
Atom  86H    basis set group =>   3
Atom  87H    basis set group =>   3
Atom  88H    basis set group =>   3
Atom  89H    basis set group =>   3


           ************************************************************
           *        Program running with 16 parallel MPI-processes    *
           *              working on a common directory               *
           ************************************************************
------------------------------------------------------------------------------
                           ORCA GTO INTEGRAL CALCULATION
------------------------------------------------------------------------------
------------------------------------------------------------------------------
                   ___                                                        
                  /   \      - P O W E R E D   B Y -                         
                 /     \                                                     
                 |  |  |   _    _      __       _____    __    __             
                 |  |  |  | |  | |    /  \     |  _  \  |  |  /  |          
                  \  \/   | |  | |   /    \    | | | |  |  | /  /          
                 / \  \   | |__| |  /  /\  \   | |_| |  |  |/  /          
                |  |  |   |  __  | /  /__\  \  |    /   |      \           
                |  |  |   | |  | | |   __   |  |    \   |  |\   \          
                \     /   | |  | | |  |  |  |  | |\  \  |  | \   \       
                 \___/    |_|  |_| |__|  |__|  |_| \__\ |__|  \__/        
                                                                              
                      - O R C A' S   B I G   F R I E N D -                    
                                      &                                       
                       - I N T E G R A L  F E E D E R -                       
                                                                              
 v1 FN, 2020, v2 2021                                                         
------------------------------------------------------------------------------


Reading SHARK input file /scratch/allen/tmpyp4_amber_gaff2/conf1/conf1/Conf108.orca.SHARKINP.tmp ... ok
----------------------
SHARK INTEGRAL PACKAGE
----------------------

Number of atoms                             ...     90
Number of basis functions                   ...   1230
Number of shells                            ...    738
Maximum angular momentum                    ...      2
Integral batch strategy                     ... SHARK/LIBINT Hybrid
RI-J (if used) integral strategy            ... SPLIT-RIJ (Revised 2003 algorithm where possible)
Printlevel                                  ...      1
Contraction scheme used                     ... PARTIAL GENERAL contraction
Coulomb Range Separation                    ... NOT USED
Exchange Range Separation                   ... NOT USED
Finite Nucleus Model                        ... NOT USED
Auxiliary Coulomb fitting basis             ... NOT available
Auxiliary J/K fitting basis                 ... NOT available
Auxiliary Correlation fitting basis         ... NOT available
Auxiliary 'external' fitting basis          ... NOT available
Integral threshold                          ...     2.500000e-11
Primitive cut-off                           ...     2.500000e-12
Primitive pair pre-selection threshold      ...     2.500000e-12

Calculating pre-screening integrals         ... done (  0.1 sec) Dimension = 738
Calculating pre-screening integrals (ORCA)  ... done (  0.3 sec) Dimension = 426
Organizing shell pair data                  ... done (  0.5 sec)
Shell pair information
Total number of shell pairs                 ...    272691
Shell pairs after pre-screening             ...     71577
Total number of primitive shell pairs       ...    422091
Primitive shell pairs kept                  ...     92341
          la=0 lb=0:  29407 shell pairs
          la=1 lb=0:  25950 shell pairs
          la=1 lb=1:   4682 shell pairs
          la=2 lb=0:   7881 shell pairs
          la=2 lb=1:   3126 shell pairs
          la=2 lb=2:    531 shell pairs

Calculating one electron integrals          ... done (  0.2 sec)
Calculating Nuclear repulsion               ... done (  0.0 sec) ENN=   6222.658895315070 Eh

SHARK setup successfully completed in   1.7 seconds

Maximum memory used throughout the entire GTOINT-calculation: 99.0 MB


           ************************************************************
           *        Program running with 16 parallel MPI-processes    *
           *              working on a common directory               *
           ************************************************************
-------------------------------------------------------------------------------
                                 ORCA SCF
-------------------------------------------------------------------------------

------------
SCF SETTINGS
------------
Hamiltonian:
 Ab initio Hamiltonian  Method          .... Hartree-Fock(GTOs)


General Settings:
 Integral files         IntName         .... /scratch/allen/tmpyp4_amber_gaff2/conf1/conf1/Conf108.orca
 Hartree-Fock type      HFTyp           .... RHF
 Total Charge           Charge          ....    0
 Multiplicity           Mult            ....    1
 Number of Electrons    NEL             ....  358
 Basis Dimension        Dim             ....  918
 Nuclear Repulsion      ENuc            ....   6222.6588953151 Eh

Convergence Acceleration:
 DIIS                   CNVDIIS         .... on
   Start iteration      DIISMaxIt       ....    12
   Startup error        DIISStart       ....  0.200000
   # of expansion vecs  DIISMaxEq       ....     5
   Bias factor          DIISBfac        ....   1.050
   Max. coefficient     DIISMaxC        ....  10.000
 Trust-Rad. Augm. Hess. CNVTRAH         .... auto
   Auto Start mean grad. ratio tolernc. ....  1.125000
   Auto Start start iteration           ....    20
   Auto Start num. interpolation iter.  ....    10
   Max. Number of Micro iterations      ....    16
   Max. Number of Macro iterations      .... Maxiter - #DIIS iter
   Number of Davidson start vectors     ....     2
   Converg. threshold I  (grad. norm)   ....   1.000e-05
   Converg. threshold II (energy diff.) ....   1.000e-08
   Grad. Scal. Fac. for Micro threshold ....   0.100
   Minimum threshold for Micro iter.    ....   0.010
   NR start threshold (gradient norm)   ....   0.001
   Initial trust radius                 ....   0.400
   Minimum AH scaling param. (alpha)    ....   1.000
   Maximum AH scaling param. (alpha)    .... 1000.000
   Orbital update algorithm             .... Taylor
   White noise on init. David. guess    .... on
   Maximum white noise                  ....   0.010
   Quad. conv. algorithm                .... NR
 SOSCF                  CNVSOSCF        .... on
   Start iteration      SOSCFMaxIt      ....   150
   Startup grad/error   SOSCFStart      ....  0.003300
 Level Shifting         CNVShift        .... on
   Level shift para.    LevelShift      ....    0.2500
   Turn off err/grad.   ShiftErr        ....    0.0010
 Zerner damping         CNVZerner       .... off
 Static damping         CNVDamp         .... on
   Fraction old density DampFac         ....    0.7000
   Max. Damping (<1)    DampMax         ....    0.9800
   Min. Damping (>=0)   DampMin         ....    0.0000
   Turn off err/grad.   DampErr         ....    0.1000
 Fernandez-Rico         CNVRico         .... off

SCF Procedure:
 Maximum # iterations   MaxIter         ....   125
 SCF integral mode      SCFMode         .... Direct
   Integral package                     .... SHARK and LIBINT hybrid scheme
 Reset frequency        DirectResetFreq ....    20
 Integral Threshold     Thresh          ....  2.500e-11 Eh
 Primitive CutOff       TCut            ....  2.500e-12 Eh

Convergence Tolerance:
 Convergence Check Mode ConvCheckMode   .... Total+1el-Energy
 Convergence forced     ConvForced      .... 1
 Energy Change          TolE            ....  1.000e-08 Eh
 1-El. energy change                    ....  1.000e-05 Eh
 Orbital Gradient       TolG            ....  1.000e-05
 Orbital Rotation angle TolX            ....  1.000e-05
 DIIS Error             TolErr          ....  5.000e-07


Diagonalization of the overlap matrix:
Smallest eigenvalue                        ... 2.262e-04
Time for diagonalization                   ...    0.401 sec
Threshold for overlap eigenvalues          ... 1.000e-08
Number of eigenvalues below threshold      ... 0
Time for construction of square roots      ...    0.194 sec
Total time needed                          ...    0.601 sec

Time for model grid setup =    1.018 sec

------------------------------
INITIAL GUESS: MODEL POTENTIAL
------------------------------
Loading Hartree-Fock densities                     ... done
Calculating cut-offs                               ... done
Initializing the effective Hamiltonian             ... done
Setting up the integral package (SHARK)            ... done
Starting the Coulomb interaction                   ... done (   1.1 sec)
Reading the grid                                   ... done
Mapping shells                                     ... done
Starting the XC term evaluation                    ... done (   0.2 sec)
Transforming the Hamiltonian                       ... done (   0.2 sec)
Diagonalizing the Hamiltonian                      ... done (   0.3 sec)
Back transforming the eigenvectors                 ... done (   0.1 sec)
Now organizing SCF variables                       ... done
                      ------------------
                      INITIAL GUESS DONE (   2.9 sec)
                      ------------------
--------------
SCF ITERATIONS
--------------
ITER       Energy         Delta-E        Max-DP      RMS-DP      [F,P]     Damp
               ***  Starting incremental Fock matrix formation  ***
  0  -2121.6534661536   0.000000000000 0.06924706  0.00121109  0.2343150 0.7000
  1  -2122.3219909529  -0.668524799337 0.05260032  0.00098162  0.1448997 0.7000
                               ***Turning on DIIS***
  2  -2122.7375219274  -0.415530974455 0.11677788  0.00222089  0.0804740 0.0000
  3  -2117.6930000577   5.044521869679 0.03330318  0.00068684  0.0444471 0.0000
  4  -2123.4023348868  -5.709334829129 0.00892009  0.00022977  0.0070884 0.0000
  5  -2123.5841574924  -0.181822605537 0.00516261  0.00013709  0.0050161 0.0000
  6  -2123.5659940403   0.018163452036 0.00361456  0.00009115  0.0021270 0.0000
  7  -2123.6716036136  -0.105609573240 0.00313200  0.00007430  0.0016242 0.0000
  8  -2123.6975248768  -0.025921263219 0.00292717  0.00007291  0.0015115 0.0000
  9  -2123.6580150615   0.039509815335 0.00251367  0.00005165  0.0011866 0.0000
 10  -2123.6784913391  -0.020476277656 0.00607351  0.00011261  0.0008940 0.0000
                      *** Initiating the SOSCF procedure ***
                           *** Shutting down DIIS ***
                      *** Re-Reading the Fockian *** 
                      *** Removing any level shift *** 
ITER      Energy       Delta-E        Grad      Rot      Max-DP    RMS-DP
 11  -2123.52826526   0.1502260818  0.000260  0.000260  0.000272  0.000007
               *** Restarting incremental Fock matrix formation ***
 12  -2123.61590006  -0.0876348062  0.000943  0.006553  0.001401  0.000037
 13  -2123.61601959  -0.0001195295  0.001172  0.029718  0.007199  0.000132
 14  -2123.61620931  -0.0001897160  0.000395  0.002814  0.000921  0.000016
 15  -2123.61623438  -0.0000250697  0.000395  0.011664  0.001967  0.000042
 16  -2123.61626425  -0.0000298687  0.000246  0.008152  0.001398  0.000031
 17  -2123.61627996  -0.0000157162  0.000350  0.011342  0.001338  0.000035
 18  -2123.61629514  -0.0000151794  0.000244  0.008502  0.001289  0.000027
 19  -2123.61630398  -0.0000088322  0.000165  0.002828  0.000584  0.000009
 20  -2123.61630627  -0.0000022912  0.000097  0.001626  0.000332  0.000007
 21  -2123.61630771  -0.0000014479  0.000057  0.001343  0.000258  0.000006
 22  -2123.61630868  -0.0000009618  0.000049  0.001750  0.000344  0.000006
 23  -2123.61630929  -0.0000006174  0.000035  0.001065  0.000192  0.000004
 24  -2123.61630954  -0.0000002465  0.000020  0.000660  0.000136  0.000003
 25  -2123.61630968  -0.0000001408  0.000015  0.000444  0.000083  0.000002
 26  -2123.61630975  -0.0000000719  0.000012  0.000507  0.000085  0.000002
 27  -2123.61630980  -0.0000000496  0.000011  0.000415  0.000068  0.000001
 28  -2123.61630983  -0.0000000269  0.000007  0.000250  0.000040  0.000001
 29  -2123.61630985  -0.0000000178  0.000005  0.000086  0.000018  0.000000
                  ***Gradient check signals convergence***
              ***Rediagonalizing the Fockian in SOSCF/NRSCF***

               *****************************************************
               *                     SUCCESS                       *
               *           SCF CONVERGED AFTER  30 CYCLES          *
               *****************************************************


----------------
TOTAL SCF ENERGY
----------------

Total Energy       :        -2123.61630985 Eh          -57786.53760 eV

Components:
Nuclear Repulsion  :         6222.65889532 Eh          169327.15697 eV
Electronic Energy  :        -8346.27520517 Eh         -227113.69457 eV
One Electron Energy:       -15286.72928215 Eh         -415973.05143 eV
Two Electron Energy:         6940.45407698 Eh          188859.35686 eV

Virial components:
Potential Energy   :        -4245.59597342 Eh         -115528.53979 eV
Kinetic Energy     :         2121.97966357 Eh           57742.00219 eV
Virial Ratio       :            2.00077128


---------------
SCF CONVERGENCE
---------------

  Last Energy change         ...   -5.8244e-09  Tolerance :   1.0000e-08
  Last MAX-Density change    ...    8.5156e-06  Tolerance :   1.0000e-07
  Last RMS-Density change    ...    1.9256e-07  Tolerance :   5.0000e-09
  Last Orbital Gradient      ...    2.0843e-06  Tolerance :   1.0000e-05
  Last Orbital Rotation      ...    2.9545e-05  Tolerance :   1.0000e-05

             **** THE GBW FILE WAS UPDATED (/scratch/allen/tmpyp4_amber_gaff2/conf1/conf1/Conf108.orca.gbw) ****
             **** DENSITY /scratch/allen/tmpyp4_amber_gaff2/conf1/conf1/Conf108.orca.scfp WAS UPDATED ****
             **** ENERGY FILE WAS UPDATED (/scratch/allen/tmpyp4_amber_gaff2/conf1/conf1/Conf108.orca.en.tmp) ****
             **** THE GBW FILE WAS UPDATED (/scratch/allen/tmpyp4_amber_gaff2/conf1/conf1/Conf108.orca.gbw) ****
             **** DENSITY /scratch/allen/tmpyp4_amber_gaff2/conf1/conf1/Conf108.orca.scfp WAS UPDATED ****
----------------
ORBITAL ENERGIES
----------------

  NO   OCC          E(Eh)            E(eV) 
   0   2.0000     -15.670444      -426.4145 
   1   2.0000     -15.637746      -425.5247 
   2   2.0000     -15.624635      -425.1679 
   3   2.0000     -15.604796      -424.6281 
   4   2.0000     -15.517227      -422.2452 
   5   2.0000     -15.511256      -422.0827 
   6   2.0000     -15.447594      -420.3504 
   7   2.0000     -15.434425      -419.9921 
   8   2.0000     -11.321390      -308.0707 
   9   2.0000     -11.319674      -308.0240 
  10   2.0000     -11.318373      -307.9886 
  11   2.0000     -11.301742      -307.5360 
  12   2.0000     -11.295694      -307.3715 
  13   2.0000     -11.293272      -307.3056 
  14   2.0000     -11.290599      -307.2328 
  15   2.0000     -11.284205      -307.0588 
  16   2.0000     -11.281083      -306.9739 
  17   2.0000     -11.279266      -306.9244 
  18   2.0000     -11.269883      -306.6691 
  19   2.0000     -11.267085      -306.5930 
  20   2.0000     -11.263657      -306.4997 
  21   2.0000     -11.255330      -306.2731 
  22   2.0000     -11.255111      -306.2671 
  23   2.0000     -11.241086      -305.8855 
  24   2.0000     -11.233145      -305.6694 
  25   2.0000     -11.232338      -305.6474 
  26   2.0000     -11.228794      -305.5510 
  27   2.0000     -11.223111      -305.3964 
  28   2.0000     -11.222965      -305.3924 
  29   2.0000     -11.210803      -305.0615 
  30   2.0000     -11.209033      -305.0133 
  31   2.0000     -11.208223      -304.9913 
  32   2.0000     -11.201352      -304.8043 
  33   2.0000     -11.201258      -304.8017 
  34   2.0000     -11.189806      -304.4901 
  35   2.0000     -11.189676      -304.4866 
  36   2.0000     -11.182480      -304.2908 
  37   2.0000     -11.182307      -304.2860 
  38   2.0000     -11.179838      -304.2189 
  39   2.0000     -11.169181      -303.9289 
  40   2.0000     -11.164396      -303.7987 
  41   2.0000     -11.162801      -303.7553 
  42   2.0000     -11.157889      -303.6216 
  43   2.0000     -11.156502      -303.5839 
  44   2.0000     -11.156018      -303.5707 
  45   2.0000     -11.155603      -303.5594 
  46   2.0000     -11.153159      -303.4929 
  47   2.0000     -11.151974      -303.4606 
  48   2.0000     -11.150300      -303.4151 
  49   2.0000     -11.144381      -303.2540 
  50   2.0000     -11.127708      -302.8003 
  51   2.0000     -11.125083      -302.7289 
  52   2.0000      -1.351505       -36.7763 
  53   2.0000      -1.324459       -36.0404 
  54   2.0000      -1.312825       -35.7238 
  55   2.0000      -1.296162       -35.2704 
  56   2.0000      -1.217758       -33.1369 
  57   2.0000      -1.208296       -32.8794 
  58   2.0000      -1.167750       -31.7761 
  59   2.0000      -1.146610       -31.2009 
  60   2.0000      -1.134393       -30.8684 
  61   2.0000      -1.112281       -30.2667 
  62   2.0000      -1.102129       -29.9905 
  63   2.0000      -1.087264       -29.5860 
  64   2.0000      -1.073089       -29.2002 
  65   2.0000      -1.048304       -28.5258 
  66   2.0000      -1.037436       -28.2301 
  67   2.0000      -1.033439       -28.1213 
  68   2.0000      -1.022015       -27.8104 
  69   2.0000      -1.013614       -27.5818 
  70   2.0000      -1.005782       -27.3687 
  71   2.0000      -0.991065       -26.9682 
  72   2.0000      -0.983085       -26.7511 
  73   2.0000      -0.975280       -26.5387 
  74   2.0000      -0.971146       -26.4262 
  75   2.0000      -0.959799       -26.1175 
  76   2.0000      -0.950251       -25.8576 
  77   2.0000      -0.946619       -25.7588 
  78   2.0000      -0.928852       -25.2754 
  79   2.0000      -0.920219       -25.0404 
  80   2.0000      -0.900471       -24.5031 
  81   2.0000      -0.888559       -24.1789 
  82   2.0000      -0.875370       -23.8200 
  83   2.0000      -0.866329       -23.5740 
  84   2.0000      -0.864279       -23.5182 
  85   2.0000      -0.853755       -23.2319 
  86   2.0000      -0.847859       -23.0714 
  87   2.0000      -0.833642       -22.6845 
  88   2.0000      -0.822378       -22.3780 
  89   2.0000      -0.796570       -21.6758 
  90   2.0000      -0.793910       -21.6034 
  91   2.0000      -0.746168       -20.3043 
  92   2.0000      -0.733536       -19.9605 
  93   2.0000      -0.726767       -19.7763 
  94   2.0000      -0.722503       -19.6603 
  95   2.0000      -0.715953       -19.4821 
  96   2.0000      -0.709858       -19.3162 
  97   2.0000      -0.705109       -19.1870 
  98   2.0000      -0.702075       -19.1044 
  99   2.0000      -0.694000       -18.8847 
 100   2.0000      -0.692753       -18.8508 
 101   2.0000      -0.682231       -18.5645 
 102   2.0000      -0.678915       -18.4742 
 103   2.0000      -0.677077       -18.4242 
 104   2.0000      -0.672649       -18.3037 
 105   2.0000      -0.668490       -18.1906 
 106   2.0000      -0.664879       -18.0923 
 107   2.0000      -0.657586       -17.8938 
 108   2.0000      -0.655638       -17.8408 
 109   2.0000      -0.653562       -17.7843 
 110   2.0000      -0.649473       -17.6731 
 111   2.0000      -0.646611       -17.5952 
 112   2.0000      -0.640966       -17.4416 
 113   2.0000      -0.637877       -17.3575 
 114   2.0000      -0.634728       -17.2718 
 115   2.0000      -0.631687       -17.1891 
 116   2.0000      -0.622481       -16.9386 
 117   2.0000      -0.616195       -16.7675 
 118   2.0000      -0.614414       -16.7191 
 119   2.0000      -0.608908       -16.5692 
 120   2.0000      -0.605215       -16.4687 
 121   2.0000      -0.604088       -16.4381 
 122   2.0000      -0.596575       -16.2336 
 123   2.0000      -0.590912       -16.0795 
 124   2.0000      -0.590277       -16.0623 
 125   2.0000      -0.583813       -15.8864 
 126   2.0000      -0.575601       -15.6629 
 127   2.0000      -0.572454       -15.5773 
 128   2.0000      -0.565170       -15.3791 
 129   2.0000      -0.562161       -15.2972 
 130   2.0000      -0.557758       -15.1774 
 131   2.0000      -0.547874       -14.9084 
 132   2.0000      -0.539586       -14.6829 
 133   2.0000      -0.538362       -14.6496 
 134   2.0000      -0.534067       -14.5327 
 135   2.0000      -0.531494       -14.4627 
 136   2.0000      -0.522648       -14.2220 
 137   2.0000      -0.520290       -14.1578 
 138   2.0000      -0.516415       -14.0524 
 139   2.0000      -0.513168       -13.9640 
 140   2.0000      -0.509731       -13.8705 
 141   2.0000      -0.507460       -13.8087 
 142   2.0000      -0.502063       -13.6618 
 143   2.0000      -0.499496       -13.5920 
 144   2.0000      -0.496896       -13.5212 
 145   2.0000      -0.495818       -13.4919 
 146   2.0000      -0.493308       -13.4236 
 147   2.0000      -0.488283       -13.2869 
 148   2.0000      -0.484203       -13.1758 
 149   2.0000      -0.465088       -12.6557 
 150   2.0000      -0.461815       -12.5666 
 151   2.0000      -0.454633       -12.3712 
 152   2.0000      -0.449052       -12.2193 
 153   2.0000      -0.442183       -12.0324 
 154   2.0000      -0.440181       -11.9779 
 155   2.0000      -0.439005       -11.9459 
 156   2.0000      -0.429309       -11.6821 
 157   2.0000      -0.422144       -11.4871 
 158   2.0000      -0.396754       -10.7962 
 159   2.0000      -0.384882       -10.4732 
 160   2.0000      -0.379816       -10.3353 
 161   2.0000      -0.372853       -10.1458 
 162   2.0000      -0.363612        -9.8944 
 163   2.0000      -0.358868        -9.7653 
 164   2.0000      -0.349549        -9.5117 
 165   2.0000      -0.338842        -9.2204 
 166   2.0000      -0.336458        -9.1555 
 167   2.0000      -0.336130        -9.1466 
 168   2.0000      -0.320196        -8.7130 
 169   2.0000      -0.299614        -8.1529 
 170   2.0000      -0.296246        -8.0613 
 171   2.0000      -0.285931        -7.7806 
 172   2.0000      -0.284266        -7.7353 
 173   2.0000      -0.260207        -7.0806 
 174   2.0000      -0.238779        -6.4975 
 175   2.0000      -0.185576        -5.0498 
 176   2.0000      -0.175282        -4.7697 
 177   2.0000      -0.062573        -1.7027 
 178   2.0000      -0.052143        -1.4189 
 179   0.0000       0.033466         0.9107 
 180   0.0000       0.065049         1.7701 
 181   0.0000       0.091940         2.5018 
 182   0.0000       0.096407         2.6234 
 183   0.0000       0.114058         3.1037 
 184   0.0000       0.135313         3.6821 
 185   0.0000       0.145077         3.9477 
 186   0.0000       0.146965         3.9991 
 187   0.0000       0.158880         4.3233 
 188   0.0000       0.162682         4.4268 
 189   0.0000       0.163097         4.4381 
 190   0.0000       0.170248         4.6327 
 191   0.0000       0.180589         4.9141 
 192   0.0000       0.186192         5.0665 
 193   0.0000       0.190023         5.1708 
 194   0.0000       0.202151         5.5008 
 195   0.0000       0.207184         5.6378 
 196   0.0000       0.210085         5.7167 
 197   0.0000       0.214164         5.8277 
 198   0.0000       0.221091         6.0162 
 199   0.0000       0.222409         6.0521 
 200   0.0000       0.224299         6.1035 
 201   0.0000       0.237493         6.4625 
 202   0.0000       0.239931         6.5289 
 203   0.0000       0.244106         6.6425 
 204   0.0000       0.249659         6.7936 
 205   0.0000       0.253776         6.9056 
 206   0.0000       0.255166         6.9434 
 207   0.0000       0.259230         7.0540 
 208   0.0000       0.261535         7.1167 
 209   0.0000       0.263876         7.1804 
 210   0.0000       0.265932         7.2364 
 211   0.0000       0.269720         7.3395 
 212   0.0000       0.270628         7.3642 
 213   0.0000       0.272852         7.4247 
 214   0.0000       0.275096         7.4857 
 215   0.0000       0.276087         7.5127 
 216   0.0000       0.279854         7.6152 
 217   0.0000       0.284008         7.7283 
 218   0.0000       0.285759         7.7759 
 219   0.0000       0.287936         7.8351 
 220   0.0000       0.291119         7.9217 
 221   0.0000       0.293294         7.9809 
 222   0.0000       0.295087         8.0297 
 223   0.0000       0.296692         8.0734 
 224   0.0000       0.297361         8.0916 
 225   0.0000       0.302692         8.2367 
 226   0.0000       0.303703         8.2642 
 227   0.0000       0.307387         8.3644 
 228   0.0000       0.308188         8.3862 
 229   0.0000       0.313822         8.5395 
 230   0.0000       0.315257         8.5786 
 231   0.0000       0.320375         8.7179 
 232   0.0000       0.324298         8.8246 
 233   0.0000       0.329325         8.9614 
 234   0.0000       0.333895         9.0858 
 235   0.0000       0.345227         9.3941 
 236   0.0000       0.358230         9.7479 
 237   0.0000       0.374511        10.1910 
 238   0.0000       0.396181        10.7806 
 239   0.0000       0.397694        10.8218 
 240   0.0000       0.403326        10.9750 
 241   0.0000       0.411933        11.2093 
 242   0.0000       0.416275        11.3274 
 243   0.0000       0.418235        11.3807 
 244   0.0000       0.422932        11.5086 
 245   0.0000       0.431760        11.7488 
 246   0.0000       0.433929        11.8078 
 247   0.0000       0.438386        11.9291 
 248   0.0000       0.443188        12.0598 
 249   0.0000       0.446956        12.1623 
 250   0.0000       0.448178        12.1955 
 251   0.0000       0.454571        12.3695 
 252   0.0000       0.457446        12.4477 
 253   0.0000       0.460557        12.5324 
 254   0.0000       0.469783        12.7834 
 255   0.0000       0.477259        12.9869 
 256   0.0000       0.483926        13.1683 
 257   0.0000       0.486430        13.2364 
 258   0.0000       0.487265        13.2592 
 259   0.0000       0.493799        13.4369 
 260   0.0000       0.499548        13.5934 
 261   0.0000       0.503493        13.7007 
 262   0.0000       0.506551        13.7839 
 263   0.0000       0.508165        13.8279 
 264   0.0000       0.512576        13.9479 
 265   0.0000       0.516854        14.0643 
 266   0.0000       0.521790        14.1986 
 267   0.0000       0.525456        14.2984 
 268   0.0000       0.533103        14.5065 
 269   0.0000       0.535991        14.5850 
 270   0.0000       0.543372        14.7859 
 271   0.0000       0.544842        14.8259 
 272   0.0000       0.545030        14.8310 
 273   0.0000       0.553632        15.0651 
 274   0.0000       0.563717        15.3395 
 275   0.0000       0.566017        15.4021 
 276   0.0000       0.570546        15.5254 
 277   0.0000       0.573857        15.6154 
 278   0.0000       0.578293        15.7362 
 279   0.0000       0.579374        15.7656 
 280   0.0000       0.587188        15.9782 
 281   0.0000       0.590847        16.0778 
 282   0.0000       0.593105        16.1392 
 283   0.0000       0.597459        16.2577 
 284   0.0000       0.600649        16.3445 
 285   0.0000       0.601579        16.3698 
 286   0.0000       0.607232        16.5236 
 287   0.0000       0.613618        16.6974 
 288   0.0000       0.614166        16.7123 
 289   0.0000       0.616555        16.7773 
 290   0.0000       0.622231        16.9318 
 291   0.0000       0.627681        17.0801 
 292   0.0000       0.629499        17.1296 
 293   0.0000       0.635860        17.3026 
 294   0.0000       0.644923        17.5492 
 295   0.0000       0.649311        17.6686 
 296   0.0000       0.653144        17.7730 
 297   0.0000       0.660005        17.9596 
 298   0.0000       0.664190        18.0735 
 299   0.0000       0.665579        18.1113 
 300   0.0000       0.669989        18.2313 
 301   0.0000       0.674106        18.3434 
 302   0.0000       0.676184        18.3999 
 303   0.0000       0.679466        18.4892 
 304   0.0000       0.683265        18.5926 
 305   0.0000       0.685200        18.6452 
 306   0.0000       0.687112        18.6973 
 307   0.0000       0.688506        18.7352 
 308   0.0000       0.692033        18.8312 
 309   0.0000       0.696496        18.9526 
 310   0.0000       0.700205        19.0536 
 311   0.0000       0.702666        19.1205 
 312   0.0000       0.709613        19.3096 
 313   0.0000       0.710318        19.3287 
 314   0.0000       0.710757        19.3407 
 315   0.0000       0.713998        19.4289 
 316   0.0000       0.717483        19.5237 
 317   0.0000       0.720053        19.5936 
 318   0.0000       0.721810        19.6415 
 319   0.0000       0.722199        19.6520 
 320   0.0000       0.724369        19.7111 
 321   0.0000       0.728802        19.8317 
 322   0.0000       0.731157        19.8958 
 323   0.0000       0.735675        20.0187 
 324   0.0000       0.736430        20.0393 
 325   0.0000       0.738762        20.1027 
 326   0.0000       0.740207        20.1420 
 327   0.0000       0.741841        20.1865 
 328   0.0000       0.748599        20.3704 
 329   0.0000       0.751422        20.4472 
 330   0.0000       0.754548        20.5323 
 331   0.0000       0.756705        20.5910 
 332   0.0000       0.758041        20.6273 
 333   0.0000       0.761402        20.7188 
 334   0.0000       0.765903        20.8413 
 335   0.0000       0.770270        20.9601 
 336   0.0000       0.775500        21.1024 
 337   0.0000       0.776918        21.1410 
 338   0.0000       0.785045        21.3622 
 339   0.0000       0.785707        21.3802 
 340   0.0000       0.788924        21.4677 
 341   0.0000       0.792319        21.5601 
 342   0.0000       0.795685        21.6517 
 343   0.0000       0.797519        21.7016 
 344   0.0000       0.802527        21.8379 
 345   0.0000       0.806672        21.9507 
 346   0.0000       0.809862        22.0375 
 347   0.0000       0.811461        22.0810 
 348   0.0000       0.814909        22.1748 
 349   0.0000       0.815651        22.1950 
 350   0.0000       0.819249        22.2929 
 351   0.0000       0.820035        22.3143 
 352   0.0000       0.823878        22.4189 
 353   0.0000       0.824513        22.4361 
 354   0.0000       0.826407        22.4877 
 355   0.0000       0.828594        22.5472 
 356   0.0000       0.832210        22.6456 
 357   0.0000       0.835042        22.7226 
 358   0.0000       0.836932        22.7741 
 359   0.0000       0.838105        22.8060 
 360   0.0000       0.840664        22.8756 
 361   0.0000       0.842648        22.9296 
 362   0.0000       0.845449        23.0058 
 363   0.0000       0.847602        23.0644 
 364   0.0000       0.850903        23.1543 
 365   0.0000       0.851835        23.1796 
 366   0.0000       0.855059        23.2673 
 367   0.0000       0.857276        23.3277 
 368   0.0000       0.859930        23.3999 
 369   0.0000       0.861564        23.4444 
 370   0.0000       0.864975        23.5372 
 371   0.0000       0.866780        23.5863 
 372   0.0000       0.874108        23.7857 
 373   0.0000       0.875131        23.8135 
 374   0.0000       0.878940        23.9172 
 375   0.0000       0.882252        24.0073 
 376   0.0000       0.885789        24.1036 
 377   0.0000       0.888552        24.1787 
 378   0.0000       0.889973        24.2174 
 379   0.0000       0.891376        24.2556 
 380   0.0000       0.896345        24.3908 
 381   0.0000       0.900100        24.4930 
 382   0.0000       0.901304        24.5257 
 383   0.0000       0.903440        24.5838 
 384   0.0000       0.904844        24.6221 
 385   0.0000       0.907118        24.6839 
 386   0.0000       0.908389        24.7185 
 387   0.0000       0.910837        24.7851 
 388   0.0000       0.914981        24.8979 
 389   0.0000       0.917022        24.9534 
 390   0.0000       0.920374        25.0447 
 391   0.0000       0.920964        25.0607 
 392   0.0000       0.922883        25.1129 
 393   0.0000       0.926270        25.2051 
 394   0.0000       0.927775        25.2461 
 395   0.0000       0.930291        25.3145 
 396   0.0000       0.932289        25.3689 
 397   0.0000       0.934729        25.4353 
 398   0.0000       0.937939        25.5226 
 399   0.0000       0.941738        25.6260 
 400   0.0000       0.944749        25.7079 
 401   0.0000       0.948243        25.8030 
 402   0.0000       0.951505        25.8918 
 403   0.0000       0.955282        25.9945 
 404   0.0000       0.957315        26.0499 
 405   0.0000       0.958065        26.0703 
 406   0.0000       0.959213        26.1015 
 407   0.0000       0.963067        26.2064 
 408   0.0000       0.965783        26.2803 
 409   0.0000       0.967644        26.3309 
 410   0.0000       0.975294        26.5391 
 411   0.0000       0.979863        26.6634 
 412   0.0000       0.984779        26.7972 
 413   0.0000       0.986235        26.8368 
 414   0.0000       0.993648        27.0385 
 415   0.0000       0.993933        27.0463 
 416   0.0000       1.001799        27.2603 
 417   0.0000       1.004618        27.3370 
 418   0.0000       1.008598        27.4453 
 419   0.0000       1.016184        27.6518 
 420   0.0000       1.023567        27.8527 
 421   0.0000       1.028869        27.9969 
 422   0.0000       1.032949        28.1080 
 423   0.0000       1.036870        28.2147 
 424   0.0000       1.042849        28.3774 
 425   0.0000       1.048754        28.5380 
 426   0.0000       1.056614        28.7519 
 427   0.0000       1.058704        28.8088 
 428   0.0000       1.067631        29.0517 
 429   0.0000       1.069934        29.1144 
 430   0.0000       1.079807        29.3830 
 431   0.0000       1.083140        29.4737 
 432   0.0000       1.087932        29.6041 
 433   0.0000       1.090316        29.6690 
 434   0.0000       1.099206        29.9109 
 435   0.0000       1.099565        29.9207 
 436   0.0000       1.104608        30.0579 
 437   0.0000       1.111490        30.2452 
 438   0.0000       1.114790        30.3350 
 439   0.0000       1.117013        30.3955 
 440   0.0000       1.118940        30.4479 
 441   0.0000       1.124484        30.5988 
 442   0.0000       1.126867        30.6636 
 443   0.0000       1.130028        30.7496 
 444   0.0000       1.134828        30.8803 
 445   0.0000       1.135301        30.8931 
 446   0.0000       1.138448        30.9787 
 447   0.0000       1.142227        31.0816 
 448   0.0000       1.143384        31.1131 
 449   0.0000       1.149617        31.2827 
 450   0.0000       1.153516        31.3888 
 451   0.0000       1.155544        31.4440 
 452   0.0000       1.158460        31.5233 
 453   0.0000       1.159244        31.5446 
 454   0.0000       1.160576        31.5809 
 455   0.0000       1.168979        31.8095 
 456   0.0000       1.171792        31.8861 
 457   0.0000       1.176547        32.0155 
 458   0.0000       1.178613        32.0717 
 459   0.0000       1.186575        32.2883 
 460   0.0000       1.187663        32.3180 
 461   0.0000       1.190952        32.4074 
 462   0.0000       1.201134        32.6845 
 463   0.0000       1.207764        32.8649 
 464   0.0000       1.210144        32.9297 
 465   0.0000       1.211425        32.9645 
 466   0.0000       1.212779        33.0014 
 467   0.0000       1.218555        33.1586 
 468   0.0000       1.223603        33.2959 
 469   0.0000       1.227590        33.4044 
 470   0.0000       1.228298        33.4237 
 471   0.0000       1.231044        33.4984 
 472   0.0000       1.238163        33.6921 
 473   0.0000       1.241298        33.7774 
 474   0.0000       1.243924        33.8489 
 475   0.0000       1.249167        33.9916 
 476   0.0000       1.249951        34.0129 
 477   0.0000       1.250362        34.0241 
 478   0.0000       1.255238        34.1568 
 479   0.0000       1.256351        34.1870 
 480   0.0000       1.259695        34.2781 
 481   0.0000       1.262376        34.3510 
 482   0.0000       1.264682        34.4137 
 483   0.0000       1.269036        34.5322 
 484   0.0000       1.270316        34.5671 
 485   0.0000       1.277563        34.7643 
 486   0.0000       1.279615        34.8201 
 487   0.0000       1.283884        34.9363 
 488   0.0000       1.289269        35.0828 
 489   0.0000       1.291546        35.1447 
 490   0.0000       1.294585        35.2274 
 491   0.0000       1.298465        35.3330 
 492   0.0000       1.305702        35.5300 
 493   0.0000       1.306472        35.5509 
 494   0.0000       1.310364        35.6568 
 495   0.0000       1.314646        35.7733 
 496   0.0000       1.317970        35.8638 
 497   0.0000       1.319675        35.9102 
 498   0.0000       1.331397        36.2291 
 499   0.0000       1.332038        36.2466 
 500   0.0000       1.333744        36.2930 
 501   0.0000       1.336101        36.3572 
 502   0.0000       1.340130        36.4668 
 503   0.0000       1.343007        36.5451 
 504   0.0000       1.345035        36.6003 
 505   0.0000       1.350840        36.7582 
[...]
      pz      :     0.021842  p :     0.079384
      px      :     0.043024
      py      :     0.014518
 77 H s       :     0.893125  s :     0.893125
      pz      :     0.047315  p :     0.078545
      px      :     0.015006
      py      :     0.016225
 78 H s       :     0.893551  s :     0.893551
      pz      :     0.025543  p :     0.078463
      px      :     0.020649
      py      :     0.032271
 79 H s       :     0.907737  s :     0.907737
      pz      :     0.022391  p :     0.087055
      px      :     0.021854
      py      :     0.042811
 80 H s       :     0.876396  s :     0.876396
      pz      :     0.038422  p :     0.083533
      px      :     0.029650
      py      :     0.015461
 81 H s       :     0.887867  s :     0.887867
      pz      :     0.037653  p :     0.083528
      px      :     0.016091
      py      :     0.029785
 82 H s       :     0.914690  s :     0.914690
      pz      :     0.022348  p :     0.087023
      px      :     0.031080
      py      :     0.033594
 83 H s       :     0.872204  s :     0.872204
      pz      :     0.039215  p :     0.083807
      px      :     0.015243
      py      :     0.029349
 84 H s       :     0.887903  s :     0.887903
      pz      :     0.035809  p :     0.084111
      px      :     0.031762
      py      :     0.016540
 85 H s       :     0.894887  s :     0.894887
      pz      :     0.022507  p :     0.079659
      px      :     0.014120
      py      :     0.043032
 86 H s       :     0.890626  s :     0.890626
      pz      :     0.024714  p :     0.078888
      px      :     0.033002
      py      :     0.021172
 87 H s       :     0.890669  s :     0.890669
      pz      :     0.047887  p :     0.078649
      px      :     0.015637
      py      :     0.015125
 88 H s       :     0.916870  s :     0.916870
      pz      :     0.022422  p :     0.086893
      px      :     0.042150
      py      :     0.022321
 89 H s       :     0.873630  s :     0.873630
      pz      :     0.037867  p :     0.083997
      px      :     0.030504
      py      :     0.015626


                      *****************************
                      * MAYER POPULATION ANALYSIS *
                      *****************************

  NA   - Mulliken gross atomic population
  ZA   - Total nuclear charge
  QA   - Mulliken gross atomic charge
  VA   - Mayer's total valence
  BVA  - Mayer's bonded valence
  FA   - Mayer's free valence

  ATOM       NA         ZA         QA         VA         BVA        FA
  0 C      5.7800     6.0000     0.2200     3.8157     3.8157    -0.0000
  1 N      7.4277     7.0000    -0.4277     3.4231     3.4231     0.0000
  2 C      6.0674     6.0000    -0.0674     3.9176     3.9176    -0.0000
  3 N      7.3413     7.0000    -0.3413     3.4320     3.4320    -0.0000
  4 C      6.0837     6.0000    -0.0837     3.9759     3.9759     0.0000
  5 N      7.5640     7.0000    -0.5640     3.0757     3.0757     0.0000
  6 C      6.0351     6.0000    -0.0351     3.9763     3.9763     0.0000
  7 N      7.3374     7.0000    -0.3374     3.4436     3.4436     0.0000
  8 C      5.7835     6.0000     0.2165     3.8155     3.8155    -0.0000
  9 N      7.5646     7.0000    -0.5646     3.0890     3.0890     0.0000
 10 C      5.8910     6.0000     0.1090     3.8772     3.8772     0.0000
 11 N      7.4379     7.0000    -0.4379     3.3827     3.3827     0.0000
 12 C      6.0610     6.0000    -0.0610     3.9132     3.9132    -0.0000
 13 N      7.4462     7.0000    -0.4462     3.3449     3.3449     0.0000
 14 C      5.7744     6.0000     0.2256     3.8041     3.8041    -0.0000
 15 N      7.4410     7.0000    -0.4410     3.3686     3.3686    -0.0000
 16 C      5.7527     6.0000     0.2473     3.8000     3.8000     0.0000
 17 C      6.0410     6.0000    -0.0410     3.9790     3.9790     0.0000
 18 C      6.1820     6.0000    -0.1820     3.7086     3.7086     0.0000
 19 C      5.7738     6.0000     0.2262     3.8955     3.8955     0.0000
 20 C      5.8011     6.0000     0.1989     3.8224     3.8224     0.0000
 21 C      6.0675     6.0000    -0.0675     3.8976     3.8976    -0.0000
 22 C      6.0863     6.0000    -0.0863     3.9846     3.9846     0.0000
 23 C      6.0589     6.0000    -0.0589     3.9882     3.9882    -0.0000
 24 C      5.7855     6.0000     0.2145     3.8266     3.8266    -0.0000
 25 C      5.8861     6.0000     0.1139     3.8905     3.8905     0.0000
 26 C      6.0709     6.0000    -0.0709     3.9044     3.9044    -0.0000
 27 C      5.7636     6.0000     0.2364     3.8959     3.8959     0.0000
 28 C      6.0447     6.0000    -0.0447     3.9887     3.9887     0.0000
 29 C      6.1913     6.0000    -0.1913     3.7294     3.7294     0.0000
 30 C      5.7728     6.0000     0.2272     3.7855     3.7855     0.0000
 31 C      5.8019     6.0000     0.1981     3.8314     3.8314    -0.0000
 32 C      6.0652     6.0000    -0.0652     3.9149     3.9149     0.0000
 33 C      6.0937     6.0000    -0.0937     3.9859     3.9859     0.0000
 34 C      6.0498     6.0000    -0.0498     3.9965     3.9965     0.0000
 35 C      5.8110     6.0000     0.1890     3.8281     3.8281    -0.0000
 36 C      5.8820     6.0000     0.1180     3.9024     3.9024    -0.0000
 37 C      6.0686     6.0000    -0.0686     3.9160     3.9160    -0.0000
 38 C      5.7582     6.0000     0.2418     3.7975     3.7975    -0.0000
 39 C      6.0640     6.0000    -0.0640     3.9957     3.9957     0.0000
 40 C      6.1972     6.0000    -0.1972     3.7480     3.7480     0.0000
 41 C      5.7827     6.0000     0.2173     3.8768     3.8768    -0.0000
 42 C      5.7914     6.0000     0.2086     3.8300     3.8300    -0.0000
 43 C      6.0757     6.0000    -0.0757     3.9047     3.9047    -0.0000
 44 C      6.0895     6.0000    -0.0895     3.9848     3.9848     0.0000
 45 C      6.0447     6.0000    -0.0447     3.9940     3.9940     0.0000
 46 C      5.8063     6.0000     0.1937     3.8226     3.8226     0.0000
 47 C      5.8839     6.0000     0.1161     3.8952     3.8952     0.0000
 48 C      6.0798     6.0000    -0.0798     3.8997     3.8997    -0.0000
 49 C      5.7842     6.0000     0.2158     3.8735     3.8735    -0.0000
 50 C      6.0603     6.0000    -0.0603     3.9899     3.9899     0.0000
 51 C      6.1903     6.0000    -0.1903     3.7383     3.7383     0.0000
 52 H      0.9317     1.0000     0.0683     0.9839     0.9839    -0.0000
 53 H      1.0110     1.0000    -0.0110     1.0009     1.0009     0.0000
 54 H      0.9440     1.0000     0.0560     1.0057     1.0057    -0.0000
 55 H      0.9329     1.0000     0.0671     0.9845     0.9845    -0.0000
 56 H      0.9278     1.0000     0.0722     0.9724     0.9724    -0.0000
 57 H      0.9334     1.0000     0.0666     0.9838     0.9838    -0.0000
 58 H      0.9346     1.0000     0.0654     0.9868     0.9868    -0.0000
 59 H      1.0222     1.0000    -0.0222     0.9969     0.9969     0.0000
 60 H      0.9455     1.0000     0.0545     1.0073     1.0073    -0.0000
 61 H      0.8251     1.0000     0.1749     1.0432     1.0432    -0.0000
 62 H      0.8297     1.0000     0.1703     1.0434     1.0434     0.0000
 63 H      0.9442     1.0000     0.0558     0.9858     0.9858     0.0000
 64 H      1.0288     1.0000    -0.0288     0.9939     0.9939    -0.0000
 65 H      0.9556     1.0000     0.0444     1.0085     1.0085    -0.0000
 66 H      0.9426     1.0000     0.0574     0.9847     0.9847    -0.0000
 67 H      0.9385     1.0000     0.0615     0.9718     0.9718     0.0000
 68 H      0.9423     1.0000     0.0577     0.9866     0.9866    -0.0000
 69 H      0.9402     1.0000     0.0598     0.9831     0.9831    -0.0000
 70 H      1.0194     1.0000    -0.0194     0.9961     0.9961    -0.0000
 71 H      0.9514     1.0000     0.0486     1.0072     1.0072     0.0000
 72 H      0.9543     1.0000     0.0457     0.9857     0.9857    -0.0000
 73 H      1.0176     1.0000    -0.0176     0.9972     0.9972    -0.0000
 74 H      0.9631     1.0000     0.0369     1.0096     1.0096    -0.0000
 75 H      0.9555     1.0000     0.0445     0.9863     0.9863    -0.0000
 76 H      0.9470     1.0000     0.0530     0.9709     0.9709    -0.0000
 77 H      0.9487     1.0000     0.0513     0.9846     0.9846    -0.0000
 78 H      0.9496     1.0000     0.0504     0.9840     0.9840     0.0000
 79 H      1.0123     1.0000    -0.0123     1.0009     1.0009    -0.0000
 80 H      0.9632     1.0000     0.0368     1.0066     1.0066    -0.0000
 81 H      0.9478     1.0000     0.0522     0.9853     0.9853    -0.0000
 82 H      1.0235     1.0000    -0.0235     0.9947     0.9947    -0.0000
 83 H      0.9568     1.0000     0.0432     1.0101     1.0101     0.0000
 84 H      0.9487     1.0000     0.0513     0.9860     0.9860    -0.0000
 85 H      0.9433     1.0000     0.0567     0.9714     0.9714     0.0000
 86 H      0.9435     1.0000     0.0565     0.9841     0.9841     0.0000
 87 H      0.9443     1.0000     0.0557     0.9854     0.9854     0.0000
 88 H      1.0274     1.0000    -0.0274     0.9925     0.9925     0.0000
 89 H      0.9577     1.0000     0.0423     1.0063     1.0063    -0.0000

  Mayer bond orders larger than 0.100000
B(  0-C ,  1-N ) :   1.1577 B(  0-C , 17-C ) :   1.5777 B(  0-C , 52-H ) :   0.9682 
B(  1-N ,  8-C ) :   1.1507 B(  1-N , 10-C ) :   0.9448 B(  2-C , 12-C ) :   1.5565 
B(  2-C , 16-C ) :   1.2983 B(  2-C , 53-H ) :   0.9787 B(  3-N , 14-C ) :   1.1866 
B(  3-N , 16-C ) :   1.2004 B(  3-N , 61-H ) :   0.8970 B(  4-C ,  6-C ) :   1.3098 
B(  4-C , 17-C ) :   1.3138 B(  4-C , 18-C ) :   1.1524 B(  5-N , 19-C ) :   1.3892 
B(  5-N , 27-C ) :   1.4294 B(  6-C ,  8-C ) :   1.5826 B(  6-C , 54-H ) :   0.9712 
B(  7-N , 30-C ) :   1.1875 B(  7-N , 38-C ) :   1.2098 B(  7-N , 62-H ) :   0.8998 
B(  8-C , 55-H ) :   0.9693 B(  9-N , 41-C ) :   1.4211 B(  9-N , 49-C ) :   1.4055 
B( 10-C , 56-H ) :   0.9763 B( 10-C , 57-H ) :   0.9817 B( 10-C , 58-H ) :   0.9823 
B( 11-N , 20-C ) :   1.1134 B( 11-N , 24-C ) :   1.1333 B( 11-N , 25-C ) :   0.9586 
B( 12-C , 14-C ) :   1.2992 B( 12-C , 59-H ) :   0.9779 B( 13-N , 31-C ) :   1.1012 
B( 13-N , 35-C ) :   1.0913 B( 13-N , 36-C ) :   0.9721 B( 14-C , 18-C ) :   1.2336 
B( 15-N , 42-C ) :   1.1222 B( 15-N , 46-C ) :   1.1027 B( 15-N , 47-C ) :   0.9639 
B( 16-C , 51-C ) :   1.2236 B( 17-C , 60-H ) :   0.9713 B( 18-C , 19-C ) :   1.2658 
B( 19-C , 21-C ) :   1.1884 B( 20-C , 28-C ) :   1.6224 B( 20-C , 63-H ) :   0.9705 
B( 21-C , 26-C ) :   1.6606 B( 21-C , 64-H ) :   0.9735 B( 22-C , 23-C ) :   1.2714 
B( 22-C , 28-C ) :   1.2808 B( 22-C , 29-C ) :   1.2401 B( 23-C , 24-C ) :   1.6233 
B( 23-C , 65-H ) :   0.9716 B( 24-C , 66-H ) :   0.9689 B( 25-C , 67-H ) :   0.9763 
B( 25-C , 68-H ) :   0.9831 B( 25-C , 69-H ) :   0.9819 B( 26-C , 27-C ) :   1.1909 
B( 26-C , 70-H ) :   0.9744 B( 27-C , 29-C ) :   1.2339 B( 28-C , 71-H ) :   0.9711 
B( 29-C , 30-C ) :   1.1953 B( 30-C , 32-C ) :   1.3307 B( 31-C , 39-C ) :   1.6595 
B( 31-C , 72-H ) :   0.9704 B( 32-C , 37-C ) :   1.5281 B( 32-C , 73-H ) :   0.9773 
B( 33-C , 34-C ) :   1.2526 B( 33-C , 39-C ) :   1.2444 B( 33-C , 40-C ) :   1.3053 
B( 34-C , 35-C ) :   1.6571 B( 34-C , 74-H ) :   0.9707 B( 35-C , 75-H ) :   0.9704 
B( 36-C , 76-H ) :   0.9759 B( 36-C , 77-H ) :   0.9824 B( 36-C , 78-H ) :   0.9835 
B( 37-C , 38-C ) :   1.3285 B( 37-C , 79-H ) :   0.9786 B( 38-C , 40-C ) :   1.1939 
B( 39-C , 80-H ) :   0.9719 B( 40-C , 41-C ) :   1.1908 B( 41-C , 43-C ) :   1.2384 
B( 42-C , 50-C ) :   1.6369 B( 42-C , 81-H ) :   0.9696 B( 43-C , 48-C ) :   1.6126 
B( 43-C , 82-H ) :   0.9747 B( 44-C , 45-C ) :   1.2766 B( 44-C , 50-C ) :   1.2587 
B( 44-C , 51-C ) :   1.2527 B( 45-C , 46-C ) :   1.6319 B( 45-C , 83-H ) :   0.9706 
B( 46-C , 84-H ) :   0.9706 B( 47-C , 85-H ) :   0.9761 B( 47-C , 86-H ) :   0.9827 
B( 47-C , 87-H ) :   0.9828 B( 48-C , 49-C ) :   1.2350 B( 48-C , 88-H ) :   0.9731 
B( 49-C , 51-C ) :   1.2013 B( 50-C , 89-H ) :   0.9718 

-------
TIMINGS
-------

Total SCF time: 0 days 0 hours 24 min 33 sec 

Total time                  ....    1473.400 sec
Sum of individual times     ....    1469.544 sec  ( 99.7%)

Fock matrix formation       ....    1448.046 sec  ( 98.3%)
Diagonalization             ....       6.739 sec  (  0.5%)
Density matrix formation    ....       0.415 sec  (  0.0%)
Population analysis         ....       0.430 sec  (  0.0%)
Initial guess               ....       1.915 sec  (  0.1%)
Orbital Transformation      ....       0.000 sec  (  0.0%)
Orbital Orthonormalization  ....       0.000 sec  (  0.0%)
DIIS solution               ....       2.913 sec  (  0.2%)
SOSCF solution              ....       8.068 sec  (  0.5%)

Maximum memory used throughout the entire SCF-calculation: 302.6 MB


           ************************************************************
           *        Program running with 16 parallel MPI-processes    *
           *              working on a common directory               *
           ************************************************************

------------------------------------------------------------------------------
                                ORCA  MP2 
------------------------------------------------------------------------------

Freezing NCore=104 chemical core electrons

----------
MP2 ENERGY (disk based algorithm)
----------

Dimension of the basis                    ...  918
Memory devoted to MP2                     ... 2000 MB   
Data format for buffers                   ... DOUBLE
Compression type for matrix containers    ... UNCOMPRESSED

-------------------------------
PARTIAL EXCHANGE TRANSFORMATION
-------------------------------

Transformation type                        ... one-operator
Generation of integrals (i,mue|j,nue)      ... ON
Generation of integrals (mue,kappa|nue,tau)... OFF
Generation of integrals (i,mue|a,nue)      ... OFF
Dimension of the basis                     ...  918
Number of internal MOs                     ...  127 (  52- 178)
Pair cutoff                                ... 2.500e-12 Eh
Number of AO pairs in the trafo            ... 421821
Total Number of distinct AO pairs          ... 421821
Memory devoted for trafo                   ... 2000.0 MB 
Max. Number of MO pairs treated together   ...  311      
Number Format for Storage                  ... Double (8 Byte)
Integral package used                      ... LIBINT

Starting integral evaluation:
    ... done with AO integral generation
Closing buffer AOK     (37.95 GB; CompressionRatio= 1.34)
Collecting buffer AOK 
Number of MO pairs included in the trafo   ... 8128
------------------------
SORTING OF (i,mue|j,nue)
------------------------

IBATCH = 1 of  2
IBATCH = 2 of  2
Closing buffer KAO     (51.03 GB; CompressionRatio= 1.00)
Collecting buffer KAO 
N(AO-Batches) Done                         ...  85625623 
N(AO-Batches) Skipped                      ...  82036594 
N(IJ)-pairs Skipped                        ...         0 
TOTAL TIME for half transformation         ...  2841.915 sec
AO-integral generation                     ...   177.241 sec
Half transformation                        ...   317.589 sec
K-integral sorting                         ...  2203.864 sec
Process 10:   Internal MO 132
Process 13:   Internal MO 156

Finished integral transformation - now doing MP2 part

OPERATOR COMBINATION   0   0: ij=( 52..178, 52..178)
Process  4:   Internal MO  84
Process  1:   Internal MO  60
Process  7:   Internal MO 108
Process  0:   Internal MO  54
Process  2:   Internal MO  69
Process  0:   Internal MO  57
Process  1:   Internal MO  63
Process  5:   Internal MO  93
Process  3:   Internal MO  78
Process  2:   Internal MO  72
Process  8:   Internal MO 117
Process  1:   Internal MO  66
Process  6:   Internal MO 102
Process  4:   Internal MO  87
Process 11:   Internal MO 141
Process 14:   Internal MO 165
Process  2:   Internal MO  75
Process  9:   Internal MO 126
Process  3:   Internal MO  81
Process  7:   Internal MO 111
Process 12:   Internal MO 150
Process  5:   Internal MO  96
Process  4:   Internal MO  90
Process  6:   Internal MO 105
Process 10:   Internal MO 135
Process 15:   Internal MO 174
Process  8:   Internal MO 120
Process 13:   Internal MO 159
Process  5:   Internal MO  99
Process  9:   Internal MO 129
Process  7:   Internal MO 114
Process 11:   Internal MO 144
Process 14:   Internal MO 168
Process 10:   Internal MO 138
Process 12:   Internal MO 153
Process  8:   Internal MO 123
Process 15:   Internal MO 177
Process 13:   Internal MO 162
Process 11:   Internal MO 147
Process 14:   Internal MO 171
-----------------------------------------------
 MP2 CORRELATION ENERGY   :     -7.283377867 Eh
-----------------------------------------------


-------
TIMINGS
-------
Total time                : 3328.228 sec
Integral trafo            : 2843.859 sec ( 85.4%)
K(i,j)                    :    5.876 sec (  0.2%)
T(i,j)                    :    0.135 sec (  0.0%)

---------------------------------------
MP2 TOTAL ENERGY:    -2130.899687720 Eh
---------------------------------------

Maximum memory used throughout the entire MP2-calculation: 2275.2 MB

-------------------------   --------------------
FINAL SINGLE POINT ENERGY     -2130.899687720008
-------------------------   --------------------


                            ***************************************
                            *     ORCA property calculations      *
                            ***************************************


  WARNING: The energy has been calculated at the MP2 level but the densities
           used in the property calculations are still SCF densities
           MP2 response densities have not been calculated 
           use %mp2 Density relaxed end
           or  %mp2 Density unrelaxed end

                                    ---------------------
                                    Active property flags
                                    ---------------------
   (+) Dipole Moment


------------------------------------------------------------------------------
                       ORCA ELECTRIC PROPERTIES CALCULATION
------------------------------------------------------------------------------

Dipole Moment Calculation                       ... on
Quadrupole Moment Calculation                   ... off
Polarizability Calculation                      ... off
GBWName                                         ... /scratch/allen/tmpyp4_amber_gaff2/conf1/conf1/Conf108.orca.gbw
Electron density                                ... /scratch/allen/tmpyp4_amber_gaff2/conf1/conf1/Conf108.orca.scfp
The origin for moment calculation is the CENTER OF MASS  = ( 0.002332, -0.002516  0.003622)

-------------
DIPOLE MOMENT
-------------
                                X             Y             Z
Electronic contribution:     -2.54887       2.22690      -0.18115
Nuclear contribution   :     -0.01106       0.17686       0.22062
                        -----------------------------------------
Total Dipole Moment    :     -2.55993       2.40376       0.03947
                        -----------------------------------------
Magnitude (a.u.)       :      3.51182
Magnitude (Debye)      :      8.92634



--------------------
Rotational spectrum 
--------------------
 
Rotational constants in cm-1:     0.001498     0.001473     0.000763 
Rotational constants in MHz :    44.901806    44.159796    22.862219 

 Dipole components along the rotational axes: 
x,y,z [a.u.] :    -3.277648     1.260373     0.037111 
x,y,z [Debye]:    -8.331119     3.203614     0.094328 

 

Timings for individual modules:

Sum of individual times         ...     4824.957 sec (=  80.416 min)
GTO integral calculation        ...        2.653 sec (=   0.044 min)   0.1 %
SCF iterations                  ...     1474.332 sec (=  24.572 min)  30.6 %
MP2 module                      ...     3347.973 sec (=  55.800 min)  69.4 %
                             ****ORCA TERMINATED NORMALLY****
TOTAL RUN TIME: 0 days 1 hours 20 minutes 28 seconds 269 msec
# of primitive gaussian functions

