
                                 *****************
                                 * O   R   C   A *
                                 *****************

                                            #,                                       
                                            ###                                      
                                            ####                                     
                                            #####                                    
                                            ######                                   
                                           ########,                                 
                                     ,,################,,,,,                         
                               ,,#################################,,                 
                          ,,##########################################,,             
                       ,#########################################, ''#####,          
                    ,#############################################,,   '####,        
                  ,##################################################,,,,####,       
                ,###########''''           ''''###############################       
              ,#####''   ,,,,##########,,,,          '''####'''          '####       
            ,##' ,,,,###########################,,,                        '##       
           ' ,,###''''                  '''############,,,                           
         ,,##''                                '''############,,,,        ,,,,,,###''
      ,#''                                            '''#######################'''  
     '                                                          ''''####''''         
             ,#######,   #######,   ,#######,      ##                                
            ,#'     '#,  ##    ##  ,#'     '#,    #''#        ######   ,####,        
            ##       ##  ##   ,#'  ##            #'  '#       #        #'  '#        
            ##       ##  #######   ##           ,######,      #####,   #    #        
            '#,     ,#'  ##    ##  '#,     ,#' ,#      #,         ##   #,  ,#        
             '#######'   ##     ##  '#######'  #'      '#     #####' # '####'        



                  #######################################################
                  #                        -***-                        #
                  #          Department of theory and spectroscopy      #
                  #    Directorship and core code : Frank Neese         #
                  #        Max Planck Institute fuer Kohlenforschung    #
                  #                Kaiser Wilhelm Platz 1               #
                  #                 D-45470 Muelheim/Ruhr               #
                  #                      Germany                        #
                  #                                                     #
                  #                  All rights reserved                #
                  #                        -***-                        #
                  #######################################################


                         Program Version 5.0.4 -  RELEASE  -


 With contributions from (in alphabetic order):
   Daniel Aravena         : Magnetic Suceptibility
   Michael Atanasov       : Ab Initio Ligand Field Theory (pilot matlab implementation)
   Alexander A. Auer      : GIAO ZORA, VPT2 properties, NMR spectrum
   Ute Becker             : Parallelization
   Giovanni Bistoni       : ED, misc. LED, open-shell LED, HFLD
   Martin Brehm           : Molecular dynamics
   Dmytro Bykov           : SCF Hessian
   Vijay G. Chilkuri      : MRCI spin determinant printing, contributions to CSF-ICE
   Dipayan Datta          : RHF DLPNO-CCSD density
   Achintya Kumar Dutta   : EOM-CC, STEOM-CC
   Dmitry Ganyushin       : Spin-Orbit,Spin-Spin,Magnetic field MRCI
   Miquel Garcia          : C-PCM and meta-GGA Hessian, CC/C-PCM, Gaussian charge scheme
   Yang Guo               : DLPNO-NEVPT2, F12-NEVPT2, CIM, IAO-localization
   Andreas Hansen         : Spin unrestricted coupled pair/coupled cluster methods
   Benjamin Helmich-Paris : MC-RPA, TRAH-SCF, COSX integrals
   Lee Huntington         : MR-EOM, pCC
   Robert Izsak           : Overlap fitted RIJCOSX, COSX-SCS-MP3, EOM
   Marcus Kettner         : VPT2
   Christian Kollmar      : KDIIS, OOCD, Brueckner-CCSD(T), CCSD density, CASPT2, CASPT2-K
   Simone Kossmann        : Meta GGA functionals, TD-DFT gradient, OOMP2, MP2 Hessian
   Martin Krupicka        : Initial AUTO-CI
   Lucas Lang             : DCDCAS
   Marvin Lechner         : AUTO-CI (C++ implementation), FIC-MRCC
   Dagmar Lenk            : GEPOL surface, SMD
   Dimitrios Liakos       : Extrapolation schemes; Compound Job, initial MDCI parallelization
   Dimitrios Manganas     : Further ROCIS development; embedding schemes
   Dimitrios Pantazis     : SARC Basis sets
   Anastasios Papadopoulos: AUTO-CI, single reference methods and gradients
   Taras Petrenko         : DFT Hessian,TD-DFT gradient, ASA, ECA, R-Raman, ABS, FL, XAS/XES, NRVS
   Peter Pinski           : DLPNO-MP2, DLPNO-MP2 Gradient
   Christoph Reimann      : Effective Core Potentials
   Marius Retegan         : Local ZFS, SOC
   Christoph Riplinger    : Optimizer, TS searches, QM/MM, DLPNO-CCSD(T), (RO)-DLPNO pert. Triples
   Tobias Risthaus        : Range-separated hybrids, TD-DFT gradient, RPA, STAB
   Michael Roemelt        : Original ROCIS implementation
   Masaaki Saitow         : Open-shell DLPNO-CCSD energy and density
   Barbara Sandhoefer     : DKH picture change effects
   Avijit Sen             : IP-ROCIS
   Kantharuban Sivalingam : CASSCF convergence, NEVPT2, FIC-MRCI
   Bernardo de Souza      : ESD, SOC TD-DFT
   Georgi Stoychev        : AutoAux, RI-MP2 NMR, DLPNO-MP2 response
   Willem Van den Heuvel  : Paramagnetic NMR
   Boris Wezisla          : Elementary symmetry handling
   Frank Wennmohs         : Technical directorship


 We gratefully acknowledge several colleagues who have allowed us to
 interface, adapt or use parts of their codes:
   Stefan Grimme, W. Hujo, H. Kruse, P. Pracht,  : VdW corrections, initial TS optimization,
                  C. Bannwarth, S. Ehlert          DFT functionals, gCP, sTDA/sTD-DF
   Ed Valeev, F. Pavosevic, A. Kumar             : LibInt (2-el integral package), F12 methods
   Garnet Chan, S. Sharma, J. Yang, R. Olivares  : DMRG
   Ulf Ekstrom                                   : XCFun DFT Library
   Mihaly Kallay                                 : mrcc  (arbitrary order and MRCC methods)
   Jiri Pittner, Ondrej Demel                    : Mk-CCSD
   Frank Weinhold                                : gennbo (NPA and NBO analysis)
   Christopher J. Cramer and Donald G. Truhlar   : smd solvation model
   Lars Goerigk                                  : TD-DFT with DH, B97 family of functionals
   V. Asgeirsson, H. Jonsson                     : NEB implementation
   FAccTs GmbH                                   : IRC, NEB, NEB-TS, DLPNO-Multilevel, CI-OPT
                                                   MM, QMMM, 2- and 3-layer-ONIOM, Crystal-QMMM,
                                                   LR-CPCM, SF, NACMEs, symmetry and pop. for TD-DFT,
                                                   nearIR, NL-DFT gradient (VV10), updates on ESD,
                                                   ML-optimized integration grids
   S Lehtola, MJT Oliveira, MAL Marques          : LibXC Library
   Liviu Ungur et al                             : ANISO software


 Your calculation uses the libint2 library for the computation of 2-el integrals
 For citations please refer to: http://libint.valeyev.net

 Your ORCA version has been built with support for libXC version: 5.1.0
 For citations please refer to: https://tddft.org/programs/libxc/

 This ORCA versions uses:
   CBLAS   interface :  Fast vector & matrix operations
   LAPACKE interface :  Fast linear algebra routines
   SCALAPACK package :  Parallel linear algebra routines
   Shared memory     :  Shared parallel matrices
   BLAS/LAPACK       :  OpenBLAS 0.3.15  USE64BITINT DYNAMIC_ARCH NO_AFFINITY Sandybridge SINGLE_THREADED
        Core in use  :  Sandybridge
   Copyright (c) 2011-2014, The OpenBLAS Project


================================================================================

----- Orbital basis set information -----
Your calculation utilizes the basis: cc-pVDZ 
       H, B-Ne : Obtained from the ccRepo (grant-hill.group.shef.ac.uk/ccrepo) Feb. 2017
                 T. H. Dunning, Jr., J. Chem. Phys. 90, 1007 (1989)
            He : Obtained from the ccRepo (grant-hill.group.shef.ac.uk/ccrepo) Feb. 2017
                 D. E. Woon, T. H. Dunning, Jr., J. Chem. Phys. 100, 2975 (1994)
  Li-Be, Na-Mg : Obtained from the ccRepo (grant-hill.group.shef.ac.uk/ccrepo) Feb. 2017
                 B. P. Prascher, D. E. Woon, K. A. Peterson, T. H. Dunning, Jr., A. K. Wilson, Theor. Chem. Acc. 128, 69 (2011)
         Al-Ar : Obtained from the ccRepo (grant-hill.group.shef.ac.uk/ccrepo) Feb. 2017
                 D. E. Woon, T. H. Dunning, Jr., J. Chem. Phys. 98, 1358 (1993)
            Ca : Obtained from the Peterson Research Group Website (tyr0.chem.wsu.edu/~kipeters) Feb. 2017
                 J. Koput, K. A. Peterson, J. Phys. Chem. 106, 9595 (2002)
         Sc-Zn : Obtained from the ccRepo (grant-hill.group.shef.ac.uk/ccrepo) Feb. 2017
                 N. B. Balabanov, K. A. Peterson, J. Chem. Phys. 123, 064107 (2005)
                 N. B. Balabanov, K. A. Peterson, J. Chem. Phys. 125, 074110 (2006)
         Ga-Kr : Obtained from the ccRepo (grant-hill.group.shef.ac.uk/ccrepo) Feb. 2017
                 A. K. Wilson, D. E. Woon, K. A. Peterson, T. H. Dunning, Jr., J. Chem. Phys. 110, 7667 (1999)

================================================================================
                                        WARNINGS
                       Please study these warnings very carefully!
================================================================================


WARNING: No MP2 level density has been requested!
         To caclulate MP2 level properties use
         %mp2 Density relaxed end
         or
         %mp2 Density unrelaxed end

WARNING: Post HF methods need fully converged wavefunctions
  ===> : Setting SCFConvForced true
         You can overwrite this default with %scf ConvForced false 


INFO   : the flag for use of the SHARK integral package has been found!

================================================================================
                                       INPUT FILE
================================================================================
NAME = /scratch/allen/tmpyp4_amber_gaff2/2.Mdgx/conf11/conf11/Conf40.orca
|  1> ! PAL2
|  2> ! mp2 cc-pvdz TightSCF  NoKeepInts
|  3> 
|  4> %scf
|  5>   MaxCore 2000
|  6> end
|  7> %mp2
|  8>   MaxCore 2000
|  9> end
| 10> * xyz 0 1
| 11>    C       -3.23300         6.37300        -0.61500
| 12>    C        1.47400         4.04100         0.05700
| 13>    C       -2.80200         4.09300         0.04900
| 14>    C       -3.98800         4.14100         0.79700
| 15>    C       -4.75300         5.29000         0.81300
| 16>    C       -5.23100         7.59000         0.12400
| 17>    C        0.13200         4.30700         0.06100
| 18>    C       -0.56900         3.05600         0.04700
| 19>    C        1.64900         2.61800         0.02300
| 20>    C       -2.43800         5.24400        -0.66600
| 21>    N       -4.37000         6.38600         0.11700
| 22>    N        0.38800         2.06700         0.02500
| 23>    N       -2.01000         0.39500        -0.07500
| 24>    N       -0.38800        -2.07400        -0.02700
| 25>    N        2.01000        -0.40100         0.06500
| 26>    C       -1.96000         2.86100         0.02400
| 27>    C       -2.62300         1.61500        -0.01800
| 28>    C       -5.57300        -4.32900         1.06600
| 29>    C       -4.07300         1.47100         0.05600
| 30>    C       -4.10600        -2.75600        -0.02600
| 31>    C       -4.99500        -2.75700        -1.11100
| 32>    C       -6.13200        -3.54200        -1.07600
| 33>    C       -7.65100        -5.11300         0.04000
| 34>    C       -4.32400         0.14100         0.03700
| 35>    C       -3.02500        -0.52000        -0.04800
| 36>    C       -4.42200        -3.56600         1.07500
| 37>    N       -6.40700        -4.31300         0.00100
| 38>    C       -2.86700        -1.92200        -0.04000
| 39>    C       -1.65000        -2.62400        -0.02700
| 40>    C        3.56800        -6.14200        -1.04000
| 41>    C       -1.47600        -4.04900        -0.03400
| 42>    C        2.80300        -4.09900        -0.00800
| 43>    C        3.65700        -4.38400         1.06900
| 44>    C        4.42700        -5.53000         1.05900
| 45>    C        5.24500        -7.58800         0.01400
| 46>    C       -0.13400        -4.31500        -0.02200
| 47>    C        0.56800        -3.06400        -0.02700
| 48>    C        2.77500        -5.01200        -1.07400
| 49>    N        4.37600        -6.39100         0.01700
| 50>    C        1.95900        -2.86900        -0.00900
| 51>    C        2.62100        -1.62200         0.00900
| 52>    C        5.54300         4.33900        -1.13000
| 53>    C        4.07000        -1.47900        -0.09400
| 54>    C        4.10400         2.75100        -0.02100
| 55>    C        5.02700         2.72900         1.03600
| 56>    C        6.16600         3.50900         0.97800
| 57>    C        7.61900         5.15300        -0.11500
| 58>    C        4.32100        -0.14800        -0.09200
| 59>    C        3.02500         0.51400         0.01500
| 60>    C        4.38700         3.58200        -1.11500
| 61>    C        2.86600         1.91600         0.01300
| 62>    N        6.41300         4.29600        -0.09500
| 63>    H       -2.98500         7.28700        -1.14000
| 64>    H        2.27400         4.76600         0.08100
| 65>    H       -4.32700         3.28100         1.36300
| 66>    H       -5.67800         5.37100         1.36800
| 67>    H       -5.99000         7.48900        -0.65400
| 68>    H       -5.70500         7.67600         1.10200
| 69>    H       -4.61100         8.46500        -0.06900
| 70>    H       -0.33200         5.28200         0.06900
| 71>    H       -1.52600         5.27500        -1.25200
| 72>    H        0.18200         1.07200         0.00500
| 73>    H       -0.18300        -1.08000        -0.02100
| 74>    H       -5.86400        -4.96200         1.89500
| 75>    H       -4.79400         2.27200         0.13900
| 76>    H       -4.80000        -2.16000        -1.99400
| 77>    H       -6.84100        -3.58200        -1.89300
| 78>    H       -8.42800        -4.53600         0.54600
| 79>    H       -7.95600        -5.33700        -0.98100
| 80>    H       -7.45600        -6.03700         0.58400
| 81>    H       -5.28700        -0.34400         0.10000
| 82>    H       -3.78000        -3.60100         1.94700
| 83>    H        3.58700        -6.86800        -1.84300
| 84>    H       -2.27600        -4.77400        -0.05000
| 85>    H        3.71400        -3.72400         1.92600
| 86>    H        5.09200        -5.79500         1.87100
| 87>    H        6.20500        -7.32900        -0.43900
| 88>    H        5.39300        -7.91700         1.04200
| 89>    H        4.75900        -8.37300        -0.56400
| 90>    H        0.32900        -5.29000        -0.00800
| 91>    H        2.14600        -4.84200        -1.94000
| 92>    H        5.80800         4.98600        -1.95600
| 93>    H        4.78800        -2.28100        -0.18500
| 94>    H        4.86000         2.11400         1.91200
| 95>    H        6.90100         3.53100         1.77200
| 96>    H        7.38300         6.10900         0.35600
| 97>    H        8.41400         4.65200         0.43500
| 98>    H        7.92100         5.31000        -1.15000
| 99>    H        5.28300         0.33600        -0.17900
|100>    H        3.72000         3.63200        -1.96700
|101> *
|102> 
|103>                          ****END OF INPUT****
================================================================================

                       ****************************
                       * Single Point Calculation *
                       ****************************

---------------------------------
CARTESIAN COORDINATES (ANGSTROEM)
---------------------------------
  C     -3.233000    6.373000   -0.615000
  C      1.474000    4.041000    0.057000
  C     -2.802000    4.093000    0.049000
  C     -3.988000    4.141000    0.797000
  C     -4.753000    5.290000    0.813000
  C     -5.231000    7.590000    0.124000
  C      0.132000    4.307000    0.061000
  C     -0.569000    3.056000    0.047000
  C      1.649000    2.618000    0.023000
  C     -2.438000    5.244000   -0.666000
  N     -4.370000    6.386000    0.117000
  N      0.388000    2.067000    0.025000
  N     -2.010000    0.395000   -0.075000
  N     -0.388000   -2.074000   -0.027000
  N      2.010000   -0.401000    0.065000
  C     -1.960000    2.861000    0.024000
  C     -2.623000    1.615000   -0.018000
  C     -5.573000   -4.329000    1.066000
  C     -4.073000    1.471000    0.056000
  C     -4.106000   -2.756000   -0.026000
  C     -4.995000   -2.757000   -1.111000
  C     -6.132000   -3.542000   -1.076000
  C     -7.651000   -5.113000    0.040000
  C     -4.324000    0.141000    0.037000
  C     -3.025000   -0.520000   -0.048000
  C     -4.422000   -3.566000    1.075000
  N     -6.407000   -4.313000    0.001000
  C     -2.867000   -1.922000   -0.040000
  C     -1.650000   -2.624000   -0.027000
  C      3.568000   -6.142000   -1.040000
  C     -1.476000   -4.049000   -0.034000
  C      2.803000   -4.099000   -0.008000
  C      3.657000   -4.384000    1.069000
  C      4.427000   -5.530000    1.059000
  C      5.245000   -7.588000    0.014000
  C     -0.134000   -4.315000   -0.022000
  C      0.568000   -3.064000   -0.027000
  C      2.775000   -5.012000   -1.074000
  N      4.376000   -6.391000    0.017000
  C      1.959000   -2.869000   -0.009000
  C      2.621000   -1.622000    0.009000
  C      5.543000    4.339000   -1.130000
  C      4.070000   -1.479000   -0.094000
  C      4.104000    2.751000   -0.021000
  C      5.027000    2.729000    1.036000
  C      6.166000    3.509000    0.978000
  C      7.619000    5.153000   -0.115000
  C      4.321000   -0.148000   -0.092000
  C      3.025000    0.514000    0.015000
  C      4.387000    3.582000   -1.115000
  C      2.866000    1.916000    0.013000
  N      6.413000    4.296000   -0.095000
  H     -2.985000    7.287000   -1.140000
  H      2.274000    4.766000    0.081000
  H     -4.327000    3.281000    1.363000
  H     -5.678000    5.371000    1.368000
  H     -5.990000    7.489000   -0.654000
  H     -5.705000    7.676000    1.102000
  H     -4.611000    8.465000   -0.069000
  H     -0.332000    5.282000    0.069000
  H     -1.526000    5.275000   -1.252000
  H      0.182000    1.072000    0.005000
  H     -0.183000   -1.080000   -0.021000
  H     -5.864000   -4.962000    1.895000
  H     -4.794000    2.272000    0.139000
  H     -4.800000   -2.160000   -1.994000
  H     -6.841000   -3.582000   -1.893000
  H     -8.428000   -4.536000    0.546000
  H     -7.956000   -5.337000   -0.981000
  H     -7.456000   -6.037000    0.584000
  H     -5.287000   -0.344000    0.100000
  H     -3.780000   -3.601000    1.947000
  H      3.587000   -6.868000   -1.843000
  H     -2.276000   -4.774000   -0.050000
  H      3.714000   -3.724000    1.926000
  H      5.092000   -5.795000    1.871000
  H      6.205000   -7.329000   -0.439000
  H      5.393000   -7.917000    1.042000
  H      4.759000   -8.373000   -0.564000
  H      0.329000   -5.290000   -0.008000
  H      2.146000   -4.842000   -1.940000
  H      5.808000    4.986000   -1.956000
  H      4.788000   -2.281000   -0.185000
  H      4.860000    2.114000    1.912000
  H      6.901000    3.531000    1.772000
  H      7.383000    6.109000    0.356000
  H      8.414000    4.652000    0.435000
  H      7.921000    5.310000   -1.150000
  H      5.283000    0.336000   -0.179000
  H      3.720000    3.632000   -1.967000

----------------------------
CARTESIAN COORDINATES (A.U.)
----------------------------
  NO LB      ZA    FRAG     MASS         X           Y           Z
   0 C     6.0000    0    12.011   -6.109485   12.043225   -1.162182
   1 C     6.0000    0    12.011    2.785456    7.636383    0.107714
   2 C     6.0000    0    12.011   -5.295013    7.734649    0.092597
   3 C     6.0000    0    12.011   -7.536228    7.825356    1.506112
   4 C     6.0000    0    12.011   -8.981868    9.996651    1.536347
   5 C     6.0000    0    12.011   -9.885157   14.343021    0.234326
   6 C     6.0000    0    12.011    0.249444    8.139050    0.115273
   7 C     6.0000    0    12.011   -1.075254    5.775003    0.088817
   8 C     6.0000    0    12.011    3.116158    4.947303    0.043464
   9 C     6.0000    0    12.011   -4.607152    9.909724   -1.258558
  10 N     7.0000    0    14.007   -8.258103   12.067791    0.221098
  11 N     7.0000    0    14.007    0.733214    3.906064    0.047243
  12 N     7.0000    0    14.007   -3.798350    0.746442   -0.141729
  13 N     7.0000    0    14.007   -0.733214   -3.919292   -0.051023
  14 N     7.0000    0    14.007    3.798350   -0.757780    0.122832
  15 C     6.0000    0    12.011   -3.703863    5.406506    0.045353
  16 C     6.0000    0    12.011   -4.956752    3.051908   -0.034015
  17 C     6.0000    0    12.011  -10.531444   -8.180624    2.014448
  18 C     6.0000    0    12.011   -7.696855    2.779787    0.105825
  19 C     6.0000    0    12.011   -7.759216   -5.208085   -0.049133
  20 C     6.0000    0    12.011   -9.439182   -5.209975   -2.099486
  21 C     6.0000    0    12.011  -11.587801   -6.693410   -2.033345
  22 C     6.0000    0    12.011  -14.458295   -9.662170    0.075589
  23 C     6.0000    0    12.011   -8.171176    0.266451    0.069920
  24 C     6.0000    0    12.011   -5.716422   -0.982658   -0.090707
  25 C     6.0000    0    12.011   -8.356369   -6.738763    2.031456
  26 N     7.0000    0    14.007  -12.107475   -8.150389    0.001890
  27 C     6.0000    0    12.011   -5.417845   -3.632054   -0.075589
  28 C     6.0000    0    12.011   -3.118048   -4.958641   -0.051023
  29 C     6.0000    0    12.011    6.742543  -11.606698   -1.965315
  30 C     6.0000    0    12.011   -2.789236   -7.651501   -0.064251
  31 C     6.0000    0    12.011    5.296902   -7.745987   -0.015118
  32 C     6.0000    0    12.011    6.910728   -8.284559    2.020117
  33 C     6.0000    0    12.011    8.365818  -10.450186    2.001220
  34 C     6.0000    0    12.011    9.911614  -14.339242    0.026456
  35 C     6.0000    0    12.011   -0.253223   -8.154168   -0.041574
  36 C     6.0000    0    12.011    1.073364   -5.790121   -0.051023
  37 C     6.0000    0    12.011    5.243990   -9.471307   -2.029566
  38 N     7.0000    0    14.007    8.269442  -12.077240    0.032125
  39 C     6.0000    0    12.011    3.701973   -5.421624   -0.017008
  40 C     6.0000    0    12.011    4.952972   -3.065136    0.017008
  41 C     6.0000    0    12.011   10.474752    8.199522   -2.135391
  42 C     6.0000    0    12.011    7.691185   -2.794905   -0.177634
  43 C     6.0000    0    12.011    7.755436    5.198637   -0.039684
  44 C     6.0000    0    12.011    9.499653    5.157063    1.957756
  45 C     6.0000    0    12.011   11.652051    6.631049    1.848152
  46 C     6.0000    0    12.011   14.397823    9.737759   -0.217319
  47 C     6.0000    0    12.011    8.165507   -0.279679   -0.173855
  48 C     6.0000    0    12.011    5.716422    0.971319    0.028346
  49 C     6.0000    0    12.011    8.290229    6.768999   -2.107045
  50 C     6.0000    0    12.011    5.415955    3.620715    0.024566
  51 N     7.0000    0    14.007   12.118814    8.118263   -0.179524
  52 H     1.0000    0     1.008   -5.640833   13.770434   -2.154288
  53 H     1.0000    0     1.008    4.297237    9.006435    0.153068
  54 H     1.0000    0     1.008   -8.176845    6.200191    2.575697
  55 H     1.0000    0     1.008  -10.729865   10.149719    2.585145
  56 H     1.0000    0     1.008  -11.319460   14.152159   -1.235881
  57 H     1.0000    0     1.008  -10.780888   14.505538    2.082478
  58 H     1.0000    0     1.008   -8.713527   15.996532   -0.130391
  59 H     1.0000    0     1.008   -0.627389    9.981533    0.130391
  60 H     1.0000    0     1.008   -2.883722    9.968305   -2.365937
  61 H     1.0000    0     1.008    0.343930    2.025786    0.009449
  62 H     1.0000    0     1.008   -0.345820   -2.040904   -0.039684
  63 H     1.0000    0     1.008  -11.081354   -9.376821    3.581031
  64 H     1.0000    0     1.008   -9.059347    4.293458    0.262672
  65 H     1.0000    0     1.008   -9.070685   -4.081808   -3.768114
  66 H     1.0000    0     1.008  -12.927616   -6.768999   -3.577252
  67 H     1.0000    0     1.008  -15.926612   -8.571798    1.031790
  68 H     1.0000    0     1.008  -15.034661  -10.085468   -1.853821
  69 H     1.0000    0     1.008  -14.089798  -11.408277    1.103600
  70 H     1.0000    0     1.008   -9.990982   -0.650066    0.188973
  71 H     1.0000    0     1.008   -7.143165   -6.804904    3.679297
  72 H     1.0000    0     1.008    6.778448  -12.978639   -3.482765
  73 H     1.0000    0     1.008   -4.301017   -9.021553   -0.094486
  74 H     1.0000    0     1.008    7.018443   -7.037340    3.639613
  75 H     1.0000    0     1.008    9.622485  -10.950963    3.535678
  76 H     1.0000    0     1.008   11.725751  -13.849803   -0.829590
  77 H     1.0000    0     1.008   10.191293  -14.960962    1.969095
  78 H     1.0000    0     1.008    8.993207  -15.822677   -1.065806
  79 H     1.0000    0     1.008    0.621720   -9.996651   -0.015118
  80 H     1.0000    0     1.008    4.055352   -9.150054   -3.666069
  81 H     1.0000    0     1.008   10.975529    9.422175   -3.696304
  82 H     1.0000    0     1.008    9.048009   -4.310465   -0.349599
  83 H     1.0000    0     1.008    9.184069    3.994881    3.613156
  84 H     1.0000    0     1.008   13.041000    6.672623    3.348595
  85 H     1.0000    0     1.008   13.951848   11.544337    0.672743
  86 H     1.0000    0     1.008   15.900156    8.791006    0.822031
  87 H     1.0000    0     1.008   14.968521   10.034446   -2.173185
  88 H     1.0000    0     1.008    9.983423    0.634948   -0.338261
  89 H     1.0000    0     1.008    7.029781    6.863485   -3.717091

--------------------------------
INTERNAL COORDINATES (ANGSTROEM)
--------------------------------
 C      0   0   0     0.000000000000     0.00000000     0.00000000
 C      1   0   0     5.295815045864     0.00000000     0.00000000
 C      1   2   0     2.413515485759    52.43792494     0.00000000
 C      3   1   2     1.402998218103    87.90249551   148.64092683
 C      4   3   1     1.380464414608   120.20569728     0.15389502
 C      5   4   3     2.448102326293   152.48813536     1.56208978
 C      2   1   3     1.368114030335    16.84450523   348.92807139
 C      7   2   1     1.434084376876   108.05010202   152.76993341
 C      2   1   3     1.434123425651   122.84595537    20.94219233
 C      1   2   3     1.381762280568    29.94623794   328.17955152
 N      1   2   3     1.352317270466   133.06628811    45.49121818
 N      9   2   1     1.376127174356   106.58526707   349.93033565
 N     12   9   2     2.925062050624   168.53581413   171.12065651
 N     13  12   9     2.954513327098    91.55032014    11.12112580
 N     14  13  12     2.925371258490    88.43092389   359.84326247
 C      8   7   2     1.404790019896   127.24786865   181.11170171
 C     13  12   9     1.366535034311    81.72106996   188.00453233
 C     14  13  12     5.758810554272    80.56209567   166.76250791
 C     17  13  12     1.459010623676   111.08861209   183.82872609
 C     18  14  13     2.412235892279    27.27532823    36.33507194
 C     20  18  14     1.402692767501    87.95206320   148.94598259
 C     21  20  18     1.382106725257   120.14573887   359.70382047
 C     18  14  13     2.446510985056   144.15733107    82.80075377
 C     19  17  13     1.353610726908   106.29293361   359.75308708
 C     13  12   9     1.366813447402   172.21332906    33.46711076
 C     18  14  13     1.380960173213    15.08449437   309.23336894
 N     22  21  20     1.352773077792   120.73759875     0.27865223
 C     25  13  17     1.410897586645   125.60330303   182.37774668
 C     14  13  12     1.376642291955    80.24689249   177.85461986
 C     14  13  12     5.764089607215   164.51507311   312.20821879
 C     29  14  13     1.435600919476   106.58649366   178.76395472
 C     30  14  13     2.413316804732    27.10625047    82.12560436
 C     32  30  14     1.403734305344    87.90059683   149.76154742
 C     33  32  30     1.380694028378   120.14881443   359.74174632
 C     34  33  32     2.448777858443   152.49203239     2.45173620
 C     31  29  14     1.368160809262   108.16950133     0.70383075
 C     14  13  12     1.376239804685   169.26375223   353.09862627
 C     30  14  13     1.380907310430    14.68948582   353.70041132
 N     34  33  32     1.352658863128   120.85575621     0.19603406
 C     37  14  29     1.404717053360   126.01551127   180.90772073
 C     15  14  13     1.366491126938    81.61824056   183.09049352
 C      2   1   3     4.249062720177   141.70389766   156.50949948
 C     41  15  14     1.459677704153   111.05201287   175.08990246
 C     42   2   1     2.412953791518    41.78584867   192.44233656
 C     44  42   2     1.403446472082    87.95153797   233.97558675
 C     45  44  42     1.381696421071   120.11137308     0.19721020
 C     42   2   1     2.450019795838   135.97209175   102.75718566
 C     43  41  15     1.354461516618   106.26758155     0.30894352
 C     15  14  13     1.367461151185   171.87382904   332.35056460
 C     42   2   1     1.381886391857    32.59078432   241.29761575
 C      9   2   1     1.404988612053   126.98745415   170.93467318
 N     42   2   1     1.352765315936   113.57249190   130.49377486
 H      1   2   3     1.082831935251   103.27635586   193.59898560
 H      2   1   3     1.079907866440   111.44628200   193.06681184
 H      4   3   1     1.083917432280   121.03982989   179.55047525
 H      5   4   3     1.081762913027   122.82839837   179.48999163
 H      6   5   4     1.091588750400   104.44349690   100.14932034
 H      6   5   4     1.090209154245    84.63665168   209.59891030
 H      6   5   4     1.089621035039   133.88405396   322.40489677
 H      7   2   1     1.079807853278   126.66122480   333.00834719
 H     10   1   2     1.084481903952   118.71368489   304.82339952
 H     12   9   2     1.016297692608   125.29023241   180.00180175
 H     14  13  12     1.014936943854    44.97226959   359.42596618
 H     18  14  13     1.082871645210   128.03556573   234.20482432
 H     19  17  13     1.080893611786   126.41830519   178.11313280
 H     21  20  18     1.083569563987   121.05669627   180.67006309
 H     22  21  20     1.082483256222   122.73097286   180.59748951
 H     23  18  14     1.092105306278   103.92715769   234.93429879
 H     23  18  14     1.088871893291   134.19244188    12.25587044
 H     23  18  14     1.089833473518    84.85857450   125.45241208
 H     24  19  17     1.080075460327   127.28078426   178.44613241
 H     26  18  14     1.083408048706   118.76995697   244.94906660
 H     30  14  13     1.082703098730   127.99711412   279.66882698
 H     31  29  14     1.079759695488   125.22293469   180.92530585
 H     33  32  30     1.083188810873   121.01964473   180.74284758
 H     34  33  32     1.082494341787   122.70821597   180.59516895
 H     35  34  33     1.092652735319   105.73575241    97.19771933
 H     35  34  33     1.089462711615    84.05943581   206.43036958
 H     35  34  33     1.089268102902   133.08365142   318.50306270
 H     36  31  29     1.079439669458   126.61599965   178.98859863
 H     38  30  73     1.083742127999   118.77264435   359.90091293
 H     42   2   1     1.082178358682   119.31790784   347.12530531
 H     43  41  15     1.080281907652   126.36969097   182.06329380
 H     45  44  42     1.083277434455   121.10105945   179.58025624
 H     46  45  44     1.082194529648   122.72144639   179.46906377
 H     47  42   2     1.091546151109   106.65128841   315.16475048
 H     47  42   2     1.088818625851   132.46019523    94.52397119
 H     47  42   2     1.089531091801    83.63838232   206.04504406
 H     48  43  41     1.080402239909   127.23657387   181.62955349
 H     50  42   2     1.083186502870   118.77001737    94.71359229

---------------------------
INTERNAL COORDINATES (A.U.)
---------------------------
 C      0   0   0     0.000000000000     0.00000000     0.00000000
 C      1   0   0    10.007640092583     0.00000000     0.00000000
 C      1   2   0     4.560883288063    52.43792494     0.00000000
 C      3   1   2     2.651282398594    87.90249551   148.64092683
 C      4   3   1     2.608699681234   120.20569728     0.15389502
 C      5   4   3     4.626242944509   152.48813536     1.56208978
 C      2   1   3     2.585360837309    16.84450523   348.92807139
 C      7   2   1     2.710026725231   108.05010202   152.76993341
 C      2   1   3     2.710100516721   122.84595537    20.94219233
 C      1   2   3     2.611152292456    29.94623794   328.17955152
 N      1   2   3     2.555509287352   133.06628811    45.49121818
 N      9   2   1     2.600503484979   106.58526707   349.93033565
 N     12   9   2     5.527566200405   168.53581413   171.12065651
 N     13  12   9     5.583221047236    91.55032014    11.12112580
 N     14  13  12     5.528150518591    88.43092389   359.84326247
 C      8   7   2     2.654668413270   127.24786865   181.11170171
 C     13  12   9     2.582376967257    81.72106996   188.00453233
 C     14  13  12    10.882574804710    80.56209567   166.76250791
 C     17  13  12     2.757130505230   111.08861209   183.82872609
 C     18  14  13     4.558465206823    27.27532823    36.33507194
 C     20  18  14     2.650705180609    87.95206320   148.94598259
 C     21  20  18     2.611803198586   120.14573887   359.70382047
 C     18  14  13     4.623235745386   144.15733107    82.80075377
 C     19  17  13     2.557953565794   106.29293361   359.75308708
 C     13  12   9     2.582903091751   172.21332906    33.46711076
 C     18  14  13     2.609636529225    15.08449437   309.23336894
 N     22  21  20     2.556370638369   120.73759875     0.27865223
 C     25  13  17     2.666210041769   125.60330303   182.37774668
 C     14  13  12     2.601476916169    80.24689249   177.85461986
 C     14  13  12    10.892550769017   164.51507311   312.20821879
 C     29  14  13     2.712892575415   106.58649366   178.76395472
 C     30  14  13     4.560507835333    27.10625047    82.12560436
 C     32  30  14     2.652673401891    87.90059683   149.76154742
 C     33  32  30     2.609133588376   120.14881443   359.74174632
 C     34  33  32     4.627519515267   152.49203239     2.45173620
 C     31  29  14     2.585449236669   108.16950133     0.70383075
 C     14  13  12     2.600716325456   169.26375223   353.09862627
 C     30  14  13     2.609536633043    14.68948582   353.70041132
 N     34  33  32     2.556154803934   120.85575621     0.19603406
 C     37  14  29     2.654530526499   126.01551127   180.90772073
 C     15  14  13     2.582293994346    81.61824056   183.09049352
 C      2   1   3     8.029564866989   141.70389766   156.50949948
 C     41  15  14     2.758391104639   111.05201287   175.08990246
 C     42   2   1     4.559821839776    41.78584867   192.44233656
 C     44  42   2     2.652129475853    87.95153797   233.97558675
 C     45  44  42     2.611027836043   120.11137308     0.19721020
 C     42   2   1     4.629866436820   135.97209175   102.75718566
 C     43  41  15     2.559561325344   106.26758155     0.30894352
 C     15  14  13     2.584127074516   171.87382904   332.35056460
 C     42   2   1     2.611386828803    32.59078432   241.29761575
 C      9   2   1     2.655043698059   126.98745415   170.93467318
 N     42   2   1     2.556355970587   113.57249190   130.49377486
 H      1   2   3     2.046255806689   103.27635586   193.59898560
 H      2   1   3     2.040730117440   111.44628200   193.06681184
 H      4   3   1     2.048307098792   121.03982989   179.55047525
 H      5   4   3     2.044235647453   122.82839837   179.48999163
 H      6   5   4     2.062803789125   104.44349690   100.14932034
 H      6   5   4     2.060196730217    84.63665168   209.59891030
 H      6   5   4     2.059085345984   133.88405396   322.40489677
 H      7   2   1     2.040541119952   126.66122480   333.00834719
 H     10   1   2     2.049373795663   118.71368489   304.82339952
 H     12   9   2     1.920524309565   125.29023241   180.00180175
 H     14  13  12     1.917952867083    44.97226959   359.42596618
 H     18  14  13     2.046330847636   128.03556573   234.20482432
 H     19  17  13     2.042592906181   126.41830519   178.11313280
 H     21  20  18     2.047649722989   121.05669627   180.67006309
 H     22  21  20     2.045596898814   122.73097286   180.59748951
 H     23  18  14     2.063779938267   103.92715769   234.93429879
 H     23  18  14     2.057669673245   134.19244188    12.25587044
 H     23  18  14     2.059486796529    84.85857450   125.45241208
 H     24  19  17     2.041046823986   127.28078426   178.44613241
 H     26  18  14     2.047344503340   118.76995697   244.94906660
 H     30  14  13     2.046012340948   127.99711412   279.66882698
 H     31  29  14     2.040450114918   125.22293469   180.92530585
 H     33  32  30     2.046930203877   121.01964473   180.74284758
 H     34  33  32     2.045617847496   122.70821597   180.59516895
 H     35  34  33     2.064814429233   105.73575241    97.19771933
 H     35  34  33     2.058786158072    84.05943581   206.43036958
 H     35  34  33     2.058418400901   133.08365142   318.50306270
 H     36  31  29     2.039845353366   126.61599965   178.98859863
 H     38  30  73     2.047975821711   118.77264435   359.90091293
 H     42   2   1     2.045020725966   119.31790784   347.12530531
 H     43  41  15     2.041436952892   126.36969097   182.06329380
 H     45  44  42     2.047097678177   121.10105945   179.58025624
 H     46  45  44     2.045051284662   122.72144639   179.46906377
 H     47  42   2     2.062723288131   106.65128841   315.16475048
 H     47  42   2     2.057569012371   132.46019523    94.52397119
 H     47  42   2     2.058915377895    83.63838232   206.04504406
 H     48  43  41     2.041664347903   127.23657387   181.62955349
 H     50  42   2     2.046925842384   118.77001737    94.71359229

---------------------
BASIS SET INFORMATION
---------------------
There are 3 groups of distinct atoms

 Group   1 Type C   : 17s4p1d contracted to 3s2p1d pattern {881/31/1}
 Group   2 Type N   : 17s4p1d contracted to 3s2p1d pattern {881/31/1}
 Group   3 Type H   : 4s1p contracted to 2s1p pattern {31/1}

Atom   0C    basis set group =>   1
Atom   1N    basis set group =>   2
Atom   2C    basis set group =>   1
Atom   3N    basis set group =>   2
Atom   4C    basis set group =>   1
Atom   5N    basis set group =>   2
Atom   6C    basis set group =>   1
Atom   7N    basis set group =>   2
Atom   8C    basis set group =>   1
Atom   9N    basis set group =>   2
Atom  10C    basis set group =>   1
Atom  11N    basis set group =>   2
Atom  12C    basis set group =>   1
Atom  13N    basis set group =>   2
Atom  14C    basis set group =>   1
Atom  15N    basis set group =>   2
Atom  16C    basis set group =>   1
Atom  17C    basis set group =>   1
Atom  18C    basis set group =>   1
Atom  19C    basis set group =>   1
Atom  20C    basis set group =>   1
Atom  21C    basis set group =>   1
Atom  22C    basis set group =>   1
Atom  23C    basis set group =>   1
Atom  24C    basis set group =>   1
Atom  25C    basis set group =>   1
Atom  26C    basis set group =>   1
Atom  27C    basis set group =>   1
Atom  28C    basis set group =>   1
Atom  29C    basis set group =>   1
Atom  30C    basis set group =>   1
Atom  31C    basis set group =>   1
Atom  32C    basis set group =>   1
Atom  33C    basis set group =>   1
Atom  34C    basis set group =>   1
Atom  35C    basis set group =>   1
Atom  36C    basis set group =>   1
Atom  37C    basis set group =>   1
Atom  38C    basis set group =>   1
Atom  39C    basis set group =>   1
Atom  40C    basis set group =>   1
Atom  41C    basis set group =>   1
Atom  42C    basis set group =>   1
Atom  43C    basis set group =>   1
Atom  44C    basis set group =>   1
Atom  45C    basis set group =>   1
Atom  46C    basis set group =>   1
Atom  47C    basis set group =>   1
Atom  48C    basis set group =>   1
Atom  49C    basis set group =>   1
Atom  50C    basis set group =>   1
Atom  51C    basis set group =>   1
Atom  52H    basis set group =>   3
Atom  53H    basis set group =>   3
Atom  54H    basis set group =>   3
Atom  55H    basis set group =>   3
Atom  56H    basis set group =>   3
Atom  57H    basis set group =>   3
Atom  58H    basis set group =>   3
Atom  59H    basis set group =>   3
Atom  60H    basis set group =>   3
Atom  61H    basis set group =>   3
Atom  62H    basis set group =>   3
Atom  63H    basis set group =>   3
Atom  64H    basis set group =>   3
Atom  65H    basis set group =>   3
Atom  66H    basis set group =>   3
Atom  67H    basis set group =>   3
Atom  68H    basis set group =>   3
Atom  69H    basis set group =>   3
Atom  70H    basis set group =>   3
Atom  71H    basis set group =>   3
Atom  72H    basis set group =>   3
Atom  73H    basis set group =>   3
Atom  74H    basis set group =>   3
Atom  75H    basis set group =>   3
Atom  76H    basis set group =>   3
Atom  77H    basis set group =>   3
Atom  78H    basis set group =>   3
Atom  79H    basis set group =>   3
Atom  80H    basis set group =>   3
Atom  81H    basis set group =>   3
Atom  82H    basis set group =>   3
Atom  83H    basis set group =>   3
Atom  84H    basis set group =>   3
Atom  85H    basis set group =>   3
Atom  86H    basis set group =>   3
Atom  87H    basis set group =>   3
Atom  88H    basis set group =>   3
Atom  89H    basis set group =>   3


           ************************************************************
           *        Program running with 16 parallel MPI-processes    *
           *              working on a common directory               *
           ************************************************************
------------------------------------------------------------------------------
                           ORCA GTO INTEGRAL CALCULATION
------------------------------------------------------------------------------
------------------------------------------------------------------------------
                   ___                                                        
                  /   \      - P O W E R E D   B Y -                         
                 /     \                                                     
                 |  |  |   _    _      __       _____    __    __             
                 |  |  |  | |  | |    /  \     |  _  \  |  |  /  |          
                  \  \/   | |  | |   /    \    | | | |  |  | /  /          
                 / \  \   | |__| |  /  /\  \   | |_| |  |  |/  /          
                |  |  |   |  __  | /  /__\  \  |    /   |      \           
                |  |  |   | |  | | |   __   |  |    \   |  |\   \          
                \     /   | |  | | |  |  |  |  | |\  \  |  | \   \       
                 \___/    |_|  |_| |__|  |__|  |_| \__\ |__|  \__/        
                                                                              
                      - O R C A' S   B I G   F R I E N D -                    
                                      &                                       
                       - I N T E G R A L  F E E D E R -                       
                                                                              
 v1 FN, 2020, v2 2021                                                         
------------------------------------------------------------------------------


Reading SHARK input file /scratch/allen/tmpyp4_amber_gaff2/conf1/conf1/Conf40.orca.SHARKINP.tmp ... ok
----------------------
SHARK INTEGRAL PACKAGE
----------------------

Number of atoms                             ...     90
Number of basis functions                   ...   1230
Number of shells                            ...    738
Maximum angular momentum                    ...      2
Integral batch strategy                     ... SHARK/LIBINT Hybrid
RI-J (if used) integral strategy            ... SPLIT-RIJ (Revised 2003 algorithm where possible)
Printlevel                                  ...      1
Contraction scheme used                     ... PARTIAL GENERAL contraction
Coulomb Range Separation                    ... NOT USED
Exchange Range Separation                   ... NOT USED
Finite Nucleus Model                        ... NOT USED
Auxiliary Coulomb fitting basis             ... NOT available
Auxiliary J/K fitting basis                 ... NOT available
Auxiliary Correlation fitting basis         ... NOT available
Auxiliary 'external' fitting basis          ... NOT available
Integral threshold                          ...     2.500000e-11
Primitive cut-off                           ...     2.500000e-12
Primitive pair pre-selection threshold      ...     2.500000e-12

Calculating pre-screening integrals         ... done (  0.1 sec) Dimension = 738
Calculating pre-screening integrals (ORCA)  ... done (  0.3 sec) Dimension = 426
Organizing shell pair data                  ... done (  0.8 sec)
Shell pair information
Total number of shell pairs                 ...    272691
Shell pairs after pre-screening             ...     71644
Total number of primitive shell pairs       ...    422091
Primitive shell pairs kept                  ...     92451
          la=0 lb=0:  29420 shell pairs
          la=1 lb=0:  25989 shell pairs
          la=1 lb=1:   4705 shell pairs
          la=2 lb=0:   7878 shell pairs
          la=2 lb=1:   3122 shell pairs
          la=2 lb=2:    530 shell pairs

Calculating one electron integrals          ... done (  0.3 sec)
Calculating Nuclear repulsion               ... done (  0.0 sec) ENN=   6229.694435446547 Eh

SHARK setup successfully completed in   2.2 seconds

Maximum memory used throughout the entire GTOINT-calculation: 99.0 MB


           ************************************************************
           *        Program running with 16 parallel MPI-processes    *
           *              working on a common directory               *
           ************************************************************
-------------------------------------------------------------------------------
                                 ORCA SCF
-------------------------------------------------------------------------------

------------
SCF SETTINGS
------------
Hamiltonian:
 Ab initio Hamiltonian  Method          .... Hartree-Fock(GTOs)


General Settings:
 Integral files         IntName         .... /scratch/allen/tmpyp4_amber_gaff2/conf1/conf1/Conf40.orca
 Hartree-Fock type      HFTyp           .... RHF
 Total Charge           Charge          ....    0
 Multiplicity           Mult            ....    1
 Number of Electrons    NEL             ....  358
 Basis Dimension        Dim             ....  918
 Nuclear Repulsion      ENuc            ....   6229.6944354465 Eh

Convergence Acceleration:
 DIIS                   CNVDIIS         .... on
   Start iteration      DIISMaxIt       ....    12
   Startup error        DIISStart       ....  0.200000
   # of expansion vecs  DIISMaxEq       ....     5
   Bias factor          DIISBfac        ....   1.050
   Max. coefficient     DIISMaxC        ....  10.000
 Trust-Rad. Augm. Hess. CNVTRAH         .... auto
   Auto Start mean grad. ratio tolernc. ....  1.125000
   Auto Start start iteration           ....    20
   Auto Start num. interpolation iter.  ....    10
   Max. Number of Micro iterations      ....    16
   Max. Number of Macro iterations      .... Maxiter - #DIIS iter
   Number of Davidson start vectors     ....     2
   Converg. threshold I  (grad. norm)   ....   1.000e-05
   Converg. threshold II (energy diff.) ....   1.000e-08
   Grad. Scal. Fac. for Micro threshold ....   0.100
   Minimum threshold for Micro iter.    ....   0.010
   NR start threshold (gradient norm)   ....   0.001
   Initial trust radius                 ....   0.400
   Minimum AH scaling param. (alpha)    ....   1.000
   Maximum AH scaling param. (alpha)    .... 1000.000
   Orbital update algorithm             .... Taylor
   White noise on init. David. guess    .... on
   Maximum white noise                  ....   0.010
   Quad. conv. algorithm                .... NR
 SOSCF                  CNVSOSCF        .... on
   Start iteration      SOSCFMaxIt      ....   150
   Startup grad/error   SOSCFStart      ....  0.003300
 Level Shifting         CNVShift        .... on
   Level shift para.    LevelShift      ....    0.2500
   Turn off err/grad.   ShiftErr        ....    0.0010
 Zerner damping         CNVZerner       .... off
 Static damping         CNVDamp         .... on
   Fraction old density DampFac         ....    0.7000
   Max. Damping (<1)    DampMax         ....    0.9800
   Min. Damping (>=0)   DampMin         ....    0.0000
   Turn off err/grad.   DampErr         ....    0.1000
 Fernandez-Rico         CNVRico         .... off

SCF Procedure:
 Maximum # iterations   MaxIter         ....   125
 SCF integral mode      SCFMode         .... Direct
   Integral package                     .... SHARK and LIBINT hybrid scheme
 Reset frequency        DirectResetFreq ....    20
 Integral Threshold     Thresh          ....  2.500e-11 Eh
 Primitive CutOff       TCut            ....  2.500e-12 Eh

Convergence Tolerance:
 Convergence Check Mode ConvCheckMode   .... Total+1el-Energy
 Convergence forced     ConvForced      .... 1
 Energy Change          TolE            ....  1.000e-08 Eh
 1-El. energy change                    ....  1.000e-05 Eh
 Orbital Gradient       TolG            ....  1.000e-05
 Orbital Rotation angle TolX            ....  1.000e-05
 DIIS Error             TolErr          ....  5.000e-07


Diagonalization of the overlap matrix:
Smallest eigenvalue                        ... 2.214e-04
Time for diagonalization                   ...    0.407 sec
Threshold for overlap eigenvalues          ... 1.000e-08
Number of eigenvalues below threshold      ... 0
Time for construction of square roots      ...    0.254 sec
Total time needed                          ...    0.666 sec

Time for model grid setup =    1.052 sec

------------------------------
INITIAL GUESS: MODEL POTENTIAL
------------------------------
Loading Hartree-Fock densities                     ... done
Calculating cut-offs                               ... done
Initializing the effective Hamiltonian             ... done
Setting up the integral package (SHARK)            ... done
Starting the Coulomb interaction                   ... done (   1.2 sec)
Reading the grid                                   ... done
Mapping shells                                     ... done
Starting the XC term evaluation                    ... done (   0.2 sec)
Transforming the Hamiltonian                       ... done (   0.2 sec)
Diagonalizing the Hamiltonian                      ... done (   0.3 sec)
Back transforming the eigenvectors                 ... done (   0.1 sec)
Now organizing SCF variables                       ... done
                      ------------------
                      INITIAL GUESS DONE (   3.1 sec)
                      ------------------
--------------
SCF ITERATIONS
--------------
ITER       Energy         Delta-E        Max-DP      RMS-DP      [F,P]     Damp
               ***  Starting incremental Fock matrix formation  ***
  0  -2121.6864662788   0.000000000000 0.06859598  0.00121428  0.2323795 0.7000
  1  -2122.3438288729  -0.657362594135 0.05199301  0.00098738  0.1439002 0.7000
                               ***Turning on DIIS***
  2  -2122.7523421467  -0.408513273798 0.11992764  0.00223926  0.0802328 0.0000
  3  -2117.8758164405   4.876525706275 0.03385571  0.00067719  0.0439964 0.0000
  4  -2123.4228911150  -5.547074674489 0.01067829  0.00022667  0.0075155 0.0000
  5  -2123.5870982787  -0.164207163756 0.00530949  0.00013337  0.0049643 0.0000
  6  -2123.5707499332   0.016348345498 0.00358538  0.00008576  0.0019874 0.0000
  7  -2123.6704281715  -0.099678238252 0.00298266  0.00006737  0.0015516 0.0000
  8  -2123.6831872694  -0.012759097903 0.00311521  0.00006330  0.0014461 0.0000
  9  -2123.6514150973   0.031772172077 0.00248855  0.00004377  0.0011532 0.0000
 10  -2123.6618764107  -0.010461313435 0.00501367  0.00008934  0.0008888 0.0000
                      *** Initiating the SOSCF procedure ***
                           *** Shutting down DIIS ***
                      *** Re-Reading the Fockian *** 
                      *** Removing any level shift *** 
ITER      Energy       Delta-E        Grad      Rot      Max-DP    RMS-DP
 11  -2123.55078137   0.1110950433  0.000215  0.000215  0.000245  0.000005
               *** Restarting incremental Fock matrix formation ***
 12  -2123.61688784  -0.0661064770  0.000881  0.005923  0.001252  0.000032
 13  -2123.61697931  -0.0000914627  0.001053  0.028668  0.005938  0.000124
 14  -2123.61713392  -0.0001546121  0.000354  0.001938  0.000568  0.000012
 15  -2123.61714974  -0.0000158231  0.000175  0.003538  0.000948  0.000019
 16  -2123.61716017  -0.0000104234  0.000167  0.003532  0.000554  0.000012
 17  -2123.61716405  -0.0000038860  0.000156  0.002312  0.000370  0.000008
 18  -2123.61716618  -0.0000021328  0.000081  0.001081  0.000322  0.000005
 19  -2123.61716719  -0.0000010091  0.000049  0.000762  0.000173  0.000004
 20  -2123.61716753  -0.0000003315  0.000027  0.000478  0.000105  0.000002
 21  -2123.61716772  -0.0000001943  0.000027  0.000571  0.000118  0.000002
 22  -2123.61716785  -0.0000001327  0.000021  0.000570  0.000110  0.000002
 23  -2123.61716793  -0.0000000771  0.000011  0.000358  0.000066  0.000001
 24  -2123.61716797  -0.0000000386  0.000007  0.000263  0.000046  0.000001
 25  -2123.61716799  -0.0000000247  0.000008  0.000177  0.000030  0.000001
 26  -2123.61716801  -0.0000000133  0.000005  0.000178  0.000029  0.000001
 27  -2123.61716801  -0.0000000077  0.000004  0.000152  0.000025  0.000001
 28  -2123.61716802  -0.0000000025  0.000003  0.000100  0.000015  0.000000
                  ***Gradient check signals convergence***
              ***Rediagonalizing the Fockian in SOSCF/NRSCF***

               *****************************************************
               *                     SUCCESS                       *
               *           SCF CONVERGED AFTER  29 CYCLES          *
               *****************************************************


----------------
TOTAL SCF ENERGY
----------------

Total Energy       :        -2123.61716802 Eh          -57786.56095 eV

Components:
Nuclear Repulsion  :         6229.69443545 Eh          169518.60375 eV
Electronic Energy  :        -8353.31160347 Eh         -227305.16470 eV
One Electron Energy:       -15300.23997534 Eh         -416340.69608 eV
Two Electron Energy:         6946.92837187 Eh          189035.53138 eV

Virial components:
Potential Energy   :        -4245.73252305 Eh         -115532.25550 eV
Kinetic Energy     :         2122.11535503 Eh           57745.69454 eV
Virial Ratio       :            2.00070770


---------------
SCF CONVERGENCE
---------------

  Last Energy change         ...   -5.8171e-09  Tolerance :   1.0000e-08
  Last MAX-Density change    ...    6.9503e-06  Tolerance :   1.0000e-07
  Last RMS-Density change    ...    1.5024e-07  Tolerance :   5.0000e-09
  Last Orbital Gradient      ...    1.5971e-06  Tolerance :   1.0000e-05
  Last Orbital Rotation      ...    3.5108e-05  Tolerance :   1.0000e-05

             **** THE GBW FILE WAS UPDATED (/scratch/allen/tmpyp4_amber_gaff2/conf1/conf1/Conf40.orca.gbw) ****
             **** DENSITY /scratch/allen/tmpyp4_amber_gaff2/conf1/conf1/Conf40.orca.scfp WAS UPDATED ****
             **** ENERGY FILE WAS UPDATED (/scratch/allen/tmpyp4_amber_gaff2/conf1/conf1/Conf40.orca.en.tmp) ****
             **** THE GBW FILE WAS UPDATED (/scratch/allen/tmpyp4_amber_gaff2/conf1/conf1/Conf40.orca.gbw) ****
             **** DENSITY /scratch/allen/tmpyp4_amber_gaff2/conf1/conf1/Conf40.orca.scfp WAS UPDATED ****
----------------
ORBITAL ENERGIES
----------------

  NO   OCC          E(Eh)            E(eV) 
   0   2.0000     -15.666288      -426.3014 
   1   2.0000     -15.635499      -425.4636 
   2   2.0000     -15.630549      -425.3289 
   3   2.0000     -15.597030      -424.4168 
   4   2.0000     -15.523617      -422.4191 
   5   2.0000     -15.516382      -422.2222 
   6   2.0000     -15.450900      -420.4404 
   7   2.0000     -15.442200      -420.2036 
   8   2.0000     -11.319590      -308.0217 
   9   2.0000     -11.318414      -307.9897 
  10   2.0000     -11.316750      -307.9444 
  11   2.0000     -11.300269      -307.4960 
  12   2.0000     -11.297460      -307.4195 
  13   2.0000     -11.293555      -307.3133 
  14   2.0000     -11.289271      -307.1967 
  15   2.0000     -11.288630      -307.1793 
  16   2.0000     -11.286078      -307.1098 
  17   2.0000     -11.277121      -306.8661 
  18   2.0000     -11.269362      -306.6549 
  19   2.0000     -11.261822      -306.4498 
  20   2.0000     -11.259866      -306.3965 
  21   2.0000     -11.253876      -306.2335 
  22   2.0000     -11.252940      -306.2081 
  23   2.0000     -11.239079      -305.8309 
  24   2.0000     -11.235262      -305.7270 
  25   2.0000     -11.232270      -305.6456 
  26   2.0000     -11.231468      -305.6238 
  27   2.0000     -11.228700      -305.5485 
  28   2.0000     -11.228601      -305.5458 
  29   2.0000     -11.207818      -304.9802 
  30   2.0000     -11.206772      -304.9518 
  31   2.0000     -11.206312      -304.9393 
  32   2.0000     -11.201053      -304.7962 
  33   2.0000     -11.199457      -304.7527 
  34   2.0000     -11.191001      -304.5226 
  35   2.0000     -11.190258      -304.5024 
  36   2.0000     -11.185415      -304.3706 
  37   2.0000     -11.183054      -304.3064 
  38   2.0000     -11.182159      -304.2820 
  39   2.0000     -11.172571      -304.0211 
  40   2.0000     -11.169732      -303.9438 
  41   2.0000     -11.169700      -303.9430 
  42   2.0000     -11.165555      -303.8302 
  43   2.0000     -11.163214      -303.7665 
  44   2.0000     -11.161398      -303.7171 
  45   2.0000     -11.160011      -303.6793 
  46   2.0000     -11.155951      -303.5689 
  47   2.0000     -11.151917      -303.4591 
  48   2.0000     -11.149473      -303.3926 
  49   2.0000     -11.143323      -303.2252 
  50   2.0000     -11.134927      -302.9968 
  51   2.0000     -11.127535      -302.7956 
  52   2.0000      -1.348895       -36.7053 
  53   2.0000      -1.322533       -35.9879 
  54   2.0000      -1.318442       -35.8766 
  55   2.0000      -1.290274       -35.1101 
  56   2.0000      -1.223688       -33.2983 
  57   2.0000      -1.211177       -32.9578 
  58   2.0000      -1.169256       -31.8171 
  59   2.0000      -1.153592       -31.3908 
  60   2.0000      -1.133972       -30.8569 
  61   2.0000      -1.111213       -30.2376 
  62   2.0000      -1.107938       -30.1485 
  63   2.0000      -1.085356       -29.5340 
  64   2.0000      -1.071408       -29.1545 
  65   2.0000      -1.046634       -28.4804 
  66   2.0000      -1.043148       -28.3855 
  67   2.0000      -1.034843       -28.1595 
  68   2.0000      -1.018234       -27.7075 
  69   2.0000      -1.013666       -27.5832 
  70   2.0000      -1.009858       -27.4796 
  71   2.0000      -0.992447       -27.0059 
  72   2.0000      -0.987344       -26.8670 
  73   2.0000      -0.977416       -26.5968 
  74   2.0000      -0.972917       -26.4744 
  75   2.0000      -0.960004       -26.1230 
  76   2.0000      -0.951606       -25.8945 
  77   2.0000      -0.947753       -25.7897 
  78   2.0000      -0.935910       -25.4674 
  79   2.0000      -0.920977       -25.0610 
  80   2.0000      -0.901521       -24.5316 
  81   2.0000      -0.891586       -24.2613 
  82   2.0000      -0.874345       -23.7921 
  83   2.0000      -0.871006       -23.7013 
  84   2.0000      -0.866522       -23.5793 
  85   2.0000      -0.855919       -23.2907 
  86   2.0000      -0.843720       -22.9588 
  87   2.0000      -0.837514       -22.7899 
  88   2.0000      -0.823060       -22.3966 
  89   2.0000      -0.798475       -21.7276 
  90   2.0000      -0.794054       -21.6073 
  91   2.0000      -0.746233       -20.3060 
  92   2.0000      -0.738700       -20.1011 
  93   2.0000      -0.731788       -19.9130 
  94   2.0000      -0.722839       -19.6695 
  95   2.0000      -0.721080       -19.6216 
  96   2.0000      -0.714267       -19.4362 
  97   2.0000      -0.707626       -19.2555 
  98   2.0000      -0.703753       -19.1501 
  99   2.0000      -0.695934       -18.9373 
 100   2.0000      -0.694680       -18.9032 
 101   2.0000      -0.682508       -18.5720 
 102   2.0000      -0.678619       -18.4662 
 103   2.0000      -0.676478       -18.4079 
 104   2.0000      -0.675493       -18.3811 
 105   2.0000      -0.672117       -18.2892 
 106   2.0000      -0.666127       -18.1262 
 107   2.0000      -0.662015       -18.0144 
 108   2.0000      -0.655124       -17.8268 
 109   2.0000      -0.654097       -17.7989 
 110   2.0000      -0.650240       -17.6939 
 111   2.0000      -0.645636       -17.5687 
 112   2.0000      -0.641874       -17.4663 
 113   2.0000      -0.638090       -17.3633 
 114   2.0000      -0.636295       -17.3145 
 115   2.0000      -0.628806       -17.1107 
 116   2.0000      -0.626103       -17.0371 
 117   2.0000      -0.616548       -16.7771 
 118   2.0000      -0.613542       -16.6953 
 119   2.0000      -0.611611       -16.6428 
 120   2.0000      -0.610361       -16.6088 
 121   2.0000      -0.603079       -16.4106 
 122   2.0000      -0.600879       -16.3508 
 123   2.0000      -0.588028       -16.0011 
 124   2.0000      -0.584488       -15.9047 
 125   2.0000      -0.581958       -15.8359 
 126   2.0000      -0.579605       -15.7719 
 127   2.0000      -0.577138       -15.7047 
 128   2.0000      -0.564192       -15.3524 
 129   2.0000      -0.558638       -15.2013 
 130   2.0000      -0.553609       -15.0645 
 131   2.0000      -0.548448       -14.9240 
 132   2.0000      -0.541710       -14.7407 
 133   2.0000      -0.538045       -14.6409 
 134   2.0000      -0.536488       -14.5986 
 135   2.0000      -0.535295       -14.5661 
 136   2.0000      -0.526100       -14.3159 
 137   2.0000      -0.524397       -14.2696 
 138   2.0000      -0.516488       -14.0544 
 139   2.0000      -0.515268       -14.0212 
 140   2.0000      -0.511553       -13.9201 
 141   2.0000      -0.510795       -13.8994 
 142   2.0000      -0.508493       -13.8368 
 143   2.0000      -0.502946       -13.6859 
 144   2.0000      -0.501292       -13.6409 
 145   2.0000      -0.497799       -13.5458 
 146   2.0000      -0.494163       -13.4469 
 147   2.0000      -0.485896       -13.2219 
 148   2.0000      -0.482952       -13.1418 
 149   2.0000      -0.468021       -12.7355 
 150   2.0000      -0.464535       -12.6406 
 151   2.0000      -0.456540       -12.4231 
 152   2.0000      -0.449288       -12.2257 
 153   2.0000      -0.446031       -12.1371 
 154   2.0000      -0.443360       -12.0644 
 155   2.0000      -0.440277       -11.9805 
 156   2.0000      -0.431085       -11.7304 
 157   2.0000      -0.424234       -11.5440 
 158   2.0000      -0.401337       -10.9209 
 159   2.0000      -0.387618       -10.5476 
 160   2.0000      -0.379216       -10.3190 
 161   2.0000      -0.377752       -10.2792 
 162   2.0000      -0.370217       -10.0741 
 163   2.0000      -0.357599        -9.7308 
 164   2.0000      -0.354842        -9.6557 
 165   2.0000      -0.338777        -9.2186 
 166   2.0000      -0.337144        -9.1742 
 167   2.0000      -0.330190        -8.9849 
 168   2.0000      -0.327024        -8.8988 
 169   2.0000      -0.302226        -8.2240 
 170   2.0000      -0.299882        -8.1602 
 171   2.0000      -0.286916        -7.8074 
 172   2.0000      -0.284026        -7.7288 
 173   2.0000      -0.261061        -7.1038 
 174   2.0000      -0.244646        -6.6571 
 175   2.0000      -0.189560        -5.1582 
 176   2.0000      -0.179799        -4.8926 
 177   2.0000      -0.072985        -1.9860 
 178   2.0000      -0.057359        -1.5608 
 179   0.0000       0.028983         0.7887 
 180   0.0000       0.067659         1.8411 
 181   0.0000       0.091900         2.5007 
 182   0.0000       0.106260         2.8915 
 183   0.0000       0.115173         3.1340 
 184   0.0000       0.136211         3.7065 
 185   0.0000       0.140091         3.8121 
 186   0.0000       0.147970         4.0265 
 187   0.0000       0.162460         4.4208 
 188   0.0000       0.164279         4.4702 
 189   0.0000       0.164794         4.4843 
 190   0.0000       0.166458         4.5295 
 191   0.0000       0.183405         4.9907 
 192   0.0000       0.187507         5.1023 
 193   0.0000       0.190902         5.1947 
 194   0.0000       0.204135         5.5548 
 195   0.0000       0.206381         5.6159 
 196   0.0000       0.207448         5.6449 
 197   0.0000       0.209412         5.6984 
 198   0.0000       0.223115         6.0713 
 199   0.0000       0.223447         6.0803 
 200   0.0000       0.227556         6.1921 
 201   0.0000       0.238316         6.4849 
 202   0.0000       0.240405         6.5418 
 203   0.0000       0.240940         6.5563 
 204   0.0000       0.250692         6.8217 
 205   0.0000       0.255552         6.9539 
 206   0.0000       0.256443         6.9782 
 207   0.0000       0.258289         7.0284 
 208   0.0000       0.260377         7.0852 
 209   0.0000       0.262463         7.1420 
 210   0.0000       0.264308         7.1922 
 211   0.0000       0.270597         7.3633 
 212   0.0000       0.271211         7.3800 
 213   0.0000       0.272447         7.4137 
 214   0.0000       0.275234         7.4895 
 215   0.0000       0.276731         7.5302 
 216   0.0000       0.278680         7.5833 
 217   0.0000       0.282068         7.6755 
 218   0.0000       0.285009         7.7555 
 219   0.0000       0.288623         7.8538 
 220   0.0000       0.290100         7.8940 
 221   0.0000       0.293078         7.9751 
 222   0.0000       0.294644         8.0177 
 223   0.0000       0.296539         8.0692 
 224   0.0000       0.297140         8.0856 
 225   0.0000       0.298615         8.1257 
 226   0.0000       0.306202         8.3322 
 227   0.0000       0.308448         8.3933 
 228   0.0000       0.309883         8.4323 
 229   0.0000       0.322349         8.7716 
 230   0.0000       0.324430         8.8282 
 231   0.0000       0.327823         8.9205 
 232   0.0000       0.328452         8.9376 
 233   0.0000       0.333240         9.0679 
 234   0.0000       0.347703         9.4615 
 235   0.0000       0.350270         9.5313 
 236   0.0000       0.360326         9.8050 
 237   0.0000       0.380532        10.3548 
 238   0.0000       0.394737        10.7413 
 239   0.0000       0.397520        10.8171 
 240   0.0000       0.401177        10.9166 
 241   0.0000       0.413741        11.2585 
 242   0.0000       0.418656        11.3922 
 243   0.0000       0.420605        11.4453 
 244   0.0000       0.429406        11.6847 
 245   0.0000       0.432972        11.7818 
 246   0.0000       0.434751        11.8302 
 247   0.0000       0.440640        11.9904 
 248   0.0000       0.442105        12.0303 
 249   0.0000       0.446124        12.1396 
 250   0.0000       0.451601        12.2887 
 251   0.0000       0.458906        12.4875 
 252   0.0000       0.463169        12.6035 
 253   0.0000       0.466646        12.6981 
 254   0.0000       0.470954        12.8153 
 255   0.0000       0.473114        12.8741 
 256   0.0000       0.481178        13.0935 
 257   0.0000       0.482506        13.1297 
 258   0.0000       0.487682        13.2705 
 259   0.0000       0.498749        13.5717 
 260   0.0000       0.503075        13.6894 
 261   0.0000       0.505292        13.7497 
 262   0.0000       0.506673        13.7873 
 263   0.0000       0.507208        13.8018 
 264   0.0000       0.514053        13.9881 
 265   0.0000       0.519632        14.1399 
 266   0.0000       0.523436        14.2434 
 267   0.0000       0.524831        14.2814 
 268   0.0000       0.533446        14.5158 
 269   0.0000       0.537136        14.6162 
 270   0.0000       0.540579        14.7099 
 271   0.0000       0.547318        14.8933 
 272   0.0000       0.550995        14.9933 
 273   0.0000       0.557742        15.1769 
 274   0.0000       0.560016        15.2388 
 275   0.0000       0.564647        15.3648 
 276   0.0000       0.570311        15.5190 
 277   0.0000       0.573185        15.5972 
 278   0.0000       0.578740        15.7483 
 279   0.0000       0.585983        15.9454 
 280   0.0000       0.588264        16.0075 
 281   0.0000       0.592220        16.1151 
 282   0.0000       0.593186        16.1414 
 283   0.0000       0.596293        16.2260 
 284   0.0000       0.598496        16.2859 
 285   0.0000       0.600131        16.3304 
 286   0.0000       0.607502        16.5310 
 287   0.0000       0.612880        16.6773 
 288   0.0000       0.614952        16.7337 
 289   0.0000       0.618389        16.8272 
 290   0.0000       0.627184        17.0666 
 291   0.0000       0.631185        17.1754 
 292   0.0000       0.633382        17.2352 
 293   0.0000       0.636097        17.3091 
 294   0.0000       0.645574        17.5669 
 295   0.0000       0.649163        17.6646 
 296   0.0000       0.654137        17.8000 
 297   0.0000       0.656992        17.8777 
 298   0.0000       0.665464        18.1082 
 299   0.0000       0.667373        18.1602 
 300   0.0000       0.670000        18.2316 
 301   0.0000       0.671901        18.2834 
 302   0.0000       0.678622        18.4662 
 303   0.0000       0.680987        18.5306 
 304   0.0000       0.681384        18.5414 
 305   0.0000       0.685854        18.6630 
 306   0.0000       0.690355        18.7855 
 307   0.0000       0.691371        18.8132 
 308   0.0000       0.696653        18.9569 
 309   0.0000       0.698112        18.9966 
 310   0.0000       0.701506        19.0890 
 311   0.0000       0.703634        19.1468 
 312   0.0000       0.705544        19.1988 
 313   0.0000       0.710633        19.3373 
 314   0.0000       0.711320        19.3560 
 315   0.0000       0.714730        19.4488 
 316   0.0000       0.717855        19.5338 
 317   0.0000       0.718275        19.5453 
 318   0.0000       0.719457        19.5774 
 319   0.0000       0.725106        19.7312 
 320   0.0000       0.726204        19.7610 
 321   0.0000       0.729766        19.8579 
 322   0.0000       0.732892        19.9430 
 323   0.0000       0.735814        20.0225 
 324   0.0000       0.737595        20.0710 
 325   0.0000       0.740088        20.1388 
 326   0.0000       0.742554        20.2059 
 327   0.0000       0.743431        20.2298 
 328   0.0000       0.748959        20.3802 
 329   0.0000       0.749734        20.4013 
 330   0.0000       0.754839        20.5402 
 331   0.0000       0.756450        20.5841 
 332   0.0000       0.760299        20.6888 
 333   0.0000       0.761523        20.7221 
 334   0.0000       0.768153        20.9025 
 335   0.0000       0.772535        21.0218 
 336   0.0000       0.775129        21.0923 
 337   0.0000       0.780216        21.2308 
 338   0.0000       0.784042        21.3349 
 339   0.0000       0.789444        21.4819 
 340   0.0000       0.790708        21.5163 
 341   0.0000       0.795262        21.6402 
 342   0.0000       0.797523        21.7017 
 343   0.0000       0.803577        21.8664 
 344   0.0000       0.804726        21.8977 
 345   0.0000       0.806558        21.9476 
 346   0.0000       0.808586        22.0027 
 347   0.0000       0.810671        22.0595 
 348   0.0000       0.814189        22.1552 
 349   0.0000       0.819106        22.2890 
 350   0.0000       0.820189        22.3185 
 351   0.0000       0.824058        22.4238 
 352   0.0000       0.824496        22.4357 
 353   0.0000       0.825704        22.4685 
 354   0.0000       0.828613        22.5477 
 355   0.0000       0.832205        22.6455 
 356   0.0000       0.833547        22.6820 
 357   0.0000       0.836355        22.7584 
 358   0.0000       0.837272        22.7833 
 359   0.0000       0.837974        22.8024 
 360   0.0000       0.839331        22.8394 
 361   0.0000       0.843519        22.9533 
 362   0.0000       0.844776        22.9875 
 363   0.0000       0.845879        23.0175 
 364   0.0000       0.846587        23.0368 
 365   0.0000       0.852875        23.2079 
 366   0.0000       0.855929        23.2910 
 367   0.0000       0.860071        23.4037 
 368   0.0000       0.863130        23.4870 
 369   0.0000       0.864049        23.5120 
 370   0.0000       0.866209        23.5707 
 371   0.0000       0.871848        23.7242 
 372   0.0000       0.874379        23.7931 
 373   0.0000       0.877454        23.8767 
 374   0.0000       0.881555        23.9883 
 375   0.0000       0.883668        24.0458 
 376   0.0000       0.884935        24.0803 
 377   0.0000       0.888348        24.1732 
 378   0.0000       0.889502        24.2046 
 379   0.0000       0.894571        24.3425 
 380   0.0000       0.897703        24.4277 
 381   0.0000       0.898970        24.4622 
 382   0.0000       0.901400        24.5283 
 383   0.0000       0.902147        24.5487 
 384   0.0000       0.903108        24.5748 
 385   0.0000       0.904590        24.6152 
 386   0.0000       0.907239        24.6872 
 387   0.0000       0.909081        24.7374 
 388   0.0000       0.910649        24.7800 
 389   0.0000       0.916570        24.9411 
 390   0.0000       0.919273        25.0147 
 391   0.0000       0.922991        25.1159 
 392   0.0000       0.924606        25.1598 
 393   0.0000       0.925336        25.1797 
 394   0.0000       0.927012        25.2253 
 395   0.0000       0.930851        25.3297 
 396   0.0000       0.933430        25.3999 
 397   0.0000       0.935347        25.4521 
 398   0.0000       0.940483        25.5919 
 399   0.0000       0.941135        25.6096 
 400   0.0000       0.944296        25.6956 
 401   0.0000       0.946745        25.7622 
 402   0.0000       0.952896        25.9296 
 403   0.0000       0.956345        26.0235 
 404   0.0000       0.959363        26.1056 
 405   0.0000       0.960050        26.1243 
 406   0.0000       0.963145        26.2085 
 407   0.0000       0.966335        26.2953 
 408   0.0000       0.968685        26.3593 
 409   0.0000       0.975989        26.5580 
 410   0.0000       0.979567        26.6554 
 411   0.0000       0.985842        26.8261 
 412   0.0000       0.986820        26.8527 
 413   0.0000       0.992300        27.0018 
 414   0.0000       0.994949        27.0739 
 415   0.0000       0.996712        27.1219 
 416   0.0000       1.002793        27.2874 
 417   0.0000       1.010450        27.4957 
 418   0.0000       1.013196        27.5705 
 419   0.0000       1.018816        27.7234 
 420   0.0000       1.026557        27.9340 
 421   0.0000       1.030450        28.0400 
 422   0.0000       1.032167        28.0867 
 423   0.0000       1.042214        28.3601 
 424   0.0000       1.047404        28.5013 
 425   0.0000       1.048147        28.5215 
 426   0.0000       1.059045        28.8181 
 427   0.0000       1.063718        28.9452 
 428   0.0000       1.068164        29.0662 
 429   0.0000       1.077032        29.3075 
 430   0.0000       1.078764        29.3547 
 431   0.0000       1.083437        29.4818 
 432   0.0000       1.086167        29.5561 
 433   0.0000       1.090721        29.6800 
 434   0.0000       1.099314        29.9139 
 435   0.0000       1.101608        29.9763 
 436   0.0000       1.105371        30.0787 
 437   0.0000       1.111896        30.2562 
 438   0.0000       1.113298        30.2944 
 439   0.0000       1.117435        30.4070 
 440   0.0000       1.120044        30.4780 
 441   0.0000       1.122850        30.5543 
 442   0.0000       1.125028        30.6136 
 443   0.0000       1.128489        30.7077 
 444   0.0000       1.133459        30.8430 
 445   0.0000       1.135730        30.9048 
 446   0.0000       1.139709        31.0130 
 447   0.0000       1.141560        31.0634 
 448   0.0000       1.144119        31.1331 
 449   0.0000       1.149529        31.2803 
 450   0.0000       1.151972        31.3468 
 451   0.0000       1.153574        31.3903 
 452   0.0000       1.157998        31.5107 
 453   0.0000       1.161374        31.6026 
 454   0.0000       1.165161        31.7056 
 455   0.0000       1.169920        31.8351 
 456   0.0000       1.173077        31.9211 
 457   0.0000       1.176203        32.0061 
 458   0.0000       1.178473        32.0679 
 459   0.0000       1.185731        32.2654 
 460   0.0000       1.189633        32.3716 
 461   0.0000       1.196673        32.5631 
 462   0.0000       1.201764        32.7017 
 463   0.0000       1.205505        32.8035 
 464   0.0000       1.207429        32.8558 
 465   0.0000       1.210007        32.9260 
 466   0.0000       1.215568        33.0773 
 467   0.0000       1.218152        33.1476 
 468   0.0000       1.221686        33.2438 
 469   0.0000       1.225550        33.3489 
 470   0.0000       1.229476        33.4557 
 471   0.0000       1.231446        33.5094 
 472   0.0000       1.234578        33.5946 
 473   0.0000       1.235659        33.6240 
 474   0.0000       1.242933        33.8219 
 475   0.0000       1.245065        33.8799 
 476   0.0000       1.248892        33.9841 
 477   0.0000       1.250621        34.0311 
 478   0.0000       1.251630        34.0586 
 479   0.0000       1.254182        34.1280 
 480   0.0000       1.259579        34.2749 
 481   0.0000       1.264336        34.4043 
 482   0.0000       1.265111        34.4254 
 483   0.0000       1.268965        34.5303 
 484   0.0000       1.272385        34.6234 
 485   0.0000       1.277423        34.7604 
 486   0.0000       1.280899        34.8550 
 487   0.0000       1.283374        34.9224 
 488   0.0000       1.287086        35.0234 
 489   0.0000       1.290344        35.1120 
 490   0.0000       1.293169        35.1889 
 491   0.0000       1.297727        35.3129 
 492   0.0000       1.299769        35.3685 
 493   0.0000       1.309143        35.6236 
 494   0.0000       1.311271        35.6815 
 495   0.0000       1.314172        35.7604 
 496   0.0000       1.321026        35.9469 
 497   0.0000       1.323558        36.0159 
 498   0.0000       1.326147        36.0863 
 499   0.0000       1.329439        36.1759 
 500   0.0000       1.331861        36.2418 
 501   0.0000       1.336320        36.3631 
 502   0.0000       1.338453        36.4212 
 503   0.0000       1.341751        36.5109 
 504   0.0000       1.346227        36.6327 
 505   0.0000       1.350895        36.7597 
 506   0.0000       1.352666        36.8079 
 507   0.0000       1.357601        36.9422 
[...]
      pz      :     0.022070  p :     0.079710
      px      :     0.043509
      py      :     0.014131
 77 H s       :     0.886036  s :     0.886036
      pz      :     0.047862  p :     0.079157
      px      :     0.015019
      py      :     0.016276
 78 H s       :     0.886401  s :     0.886401
      pz      :     0.025823  p :     0.079116
      px      :     0.020488
      py      :     0.032804
 79 H s       :     0.910156  s :     0.910156
      pz      :     0.021910  p :     0.086448
      px      :     0.021695
      py      :     0.042843
 80 H s       :     0.866519  s :     0.866519
      pz      :     0.039218  p :     0.084587
      px      :     0.030159
      py      :     0.015209
 81 H s       :     0.887041  s :     0.887041
      pz      :     0.037792  p :     0.084052
      px      :     0.016178
      py      :     0.030082
 82 H s       :     0.915678  s :     0.915678
      pz      :     0.021995  p :     0.086769
      px      :     0.031560
      py      :     0.033213
 83 H s       :     0.873157  s :     0.873157
      pz      :     0.039273  p :     0.084057
      px      :     0.015268
      py      :     0.029516
 84 H s       :     0.886802  s :     0.886802
      pz      :     0.035779  p :     0.083531
      px      :     0.031706
      py      :     0.016047
 85 H s       :     0.893100  s :     0.893100
      pz      :     0.022494  p :     0.079775
      px      :     0.014076
      py      :     0.043206
 86 H s       :     0.890920  s :     0.890920
      pz      :     0.024729  p :     0.078839
      px      :     0.032984
      py      :     0.021126
 87 H s       :     0.890010  s :     0.890010
      pz      :     0.047993  p :     0.078725
      px      :     0.015594
      py      :     0.015138
 88 H s       :     0.911517  s :     0.911517
      pz      :     0.021737  p :     0.086990
      px      :     0.042819
      py      :     0.022433
 89 H s       :     0.871860  s :     0.871860
      pz      :     0.037918  p :     0.083829
      px      :     0.030466
      py      :     0.015445


                      *****************************
                      * MAYER POPULATION ANALYSIS *
                      *****************************

  NA   - Mulliken gross atomic population
  ZA   - Total nuclear charge
  QA   - Mulliken gross atomic charge
  VA   - Mayer's total valence
  BVA  - Mayer's bonded valence
  FA   - Mayer's free valence

  ATOM       NA         ZA         QA         VA         BVA        FA
  0 C      5.7920     6.0000     0.2080     3.8385     3.8385     0.0000
  1 N      7.4532     7.0000    -0.4532     3.3354     3.3354     0.0000
  2 C      6.0629     6.0000    -0.0629     3.9203     3.9203     0.0000
  3 N      7.3362     7.0000    -0.3362     3.4558     3.4558    -0.0000
  4 C      6.0486     6.0000    -0.0486     4.0048     4.0048    -0.0000
  5 N      7.5632     7.0000    -0.5632     3.0925     3.0925    -0.0000
  6 C      6.1038     6.0000    -0.1038     4.0022     4.0022    -0.0000
  7 N      7.3396     7.0000    -0.3396     3.4361     3.4361    -0.0000
  8 C      5.7941     6.0000     0.2059     3.8381     3.8381    -0.0000
  9 N      7.5625     7.0000    -0.5625     3.0791     3.0791     0.0000
 10 C      5.8816     6.0000     0.1184     3.9063     3.9063     0.0000
 11 N      7.4381     7.0000    -0.4381     3.3798     3.3798    -0.0000
 12 C      6.0835     6.0000    -0.0835     3.9107     3.9107    -0.0000
 13 N      7.4326     7.0000    -0.4326     3.4135     3.4135    -0.0000
 14 C      5.7606     6.0000     0.2394     3.7809     3.7809    -0.0000
 15 N      7.4410     7.0000    -0.4410     3.3716     3.3716     0.0000
 16 C      5.7720     6.0000     0.2280     3.7825     3.7825    -0.0000
 17 C      6.1134     6.0000    -0.1134     4.0073     4.0073     0.0000
 18 C      6.2045     6.0000    -0.2045     3.7702     3.7702    -0.0000
 19 C      5.7678     6.0000     0.2322     3.8597     3.8597     0.0000
 20 C      5.7880     6.0000     0.2120     3.8282     3.8282     0.0000
 21 C      6.0960     6.0000    -0.0960     3.8968     3.8968     0.0000
 22 C      6.0905     6.0000    -0.0905     3.9828     3.9828    -0.0000
 23 C      6.0419     6.0000    -0.0419     3.9922     3.9922    -0.0000
 24 C      5.8032     6.0000     0.1968     3.8219     3.8219    -0.0000
 25 C      5.8856     6.0000     0.1144     3.8910     3.8910    -0.0000
 26 C      6.0760     6.0000    -0.0760     3.9093     3.9093    -0.0000
 27 C      5.7861     6.0000     0.2139     3.8683     3.8683    -0.0000
 28 C      6.0593     6.0000    -0.0593     3.9885     3.9885     0.0000
 29 C      6.1807     6.0000    -0.1807     3.7430     3.7430    -0.0000
 30 C      5.7569     6.0000     0.2431     3.7985     3.7985    -0.0000
 31 C      5.7754     6.0000     0.2246     3.8205     3.8205    -0.0000
 32 C      6.0628     6.0000    -0.0628     3.9217     3.9217     0.0000
 33 C      6.0667     6.0000    -0.0667     3.9764     3.9764    -0.0000
 34 C      6.0507     6.0000    -0.0507     3.9862     3.9862     0.0000
 35 C      5.7791     6.0000     0.2209     3.8194     3.8194    -0.0000
 36 C      5.8900     6.0000     0.1100     3.8798     3.8798     0.0000
 37 C      6.0651     6.0000    -0.0651     3.9175     3.9175     0.0000
 38 C      5.7670     6.0000     0.2330     3.7999     3.7999    -0.0000
 39 C      6.0588     6.0000    -0.0588     3.9856     3.9856    -0.0000
 40 C      6.1836     6.0000    -0.1836     3.7316     3.7316    -0.0000
 41 C      5.7755     6.0000     0.2245     3.8850     3.8850     0.0000
 42 C      5.8012     6.0000     0.1988     3.8264     3.8264     0.0000
 43 C      6.0726     6.0000    -0.0726     3.9008     3.9008     0.0000
 44 C      6.0897     6.0000    -0.0897     3.9849     3.9849     0.0000
 45 C      6.0589     6.0000    -0.0589     3.9925     3.9925    -0.0000
 46 C      5.7909     6.0000     0.2091     3.8278     3.8278    -0.0000
 47 C      5.8845     6.0000     0.1155     3.8932     3.8932     0.0000
 48 C      6.0690     6.0000    -0.0690     3.9082     3.9082     0.0000
 49 C      5.7647     6.0000     0.2353     3.8910     3.8910    -0.0000
 50 C      6.0483     6.0000    -0.0483     3.9905     3.9905     0.0000
 51 C      6.1906     6.0000    -0.1906     3.7359     3.7359    -0.0000
 52 H      0.9577     1.0000     0.0423     0.9859     0.9859    -0.0000
 53 H      1.0159     1.0000    -0.0159     0.9982     0.9982     0.0000
 54 H      0.9468     1.0000     0.0532     1.0125     1.0125     0.0000
 55 H      0.9585     1.0000     0.0415     0.9868     0.9868    -0.0000
 56 H      0.9489     1.0000     0.0511     0.9699     0.9699     0.0000
 57 H      0.9502     1.0000     0.0498     0.9831     0.9831     0.0000
 58 H      0.9511     1.0000     0.0489     0.9849     0.9849     0.0000
 59 H      1.0001     1.0000    -0.0001     1.0030     1.0030     0.0000
 60 H      0.9517     1.0000     0.0483     1.0115     1.0115     0.0000
 61 H      0.8285     1.0000     0.1715     1.0421     1.0421     0.0000
 62 H      0.8253     1.0000     0.1747     1.0435     1.0435    -0.0000
 63 H      0.9444     1.0000     0.0556     0.9853     0.9853     0.0000
 64 H      1.0084     1.0000    -0.0084     0.9985     0.9985     0.0000
 65 H      0.9526     1.0000     0.0474     1.0093     1.0093    -0.0000
 66 H      0.9436     1.0000     0.0564     0.9854     0.9854    -0.0000
 67 H      0.9375     1.0000     0.0625     0.9720     0.9720     0.0000
 68 H      0.9424     1.0000     0.0576     0.9868     0.9868     0.0000
 69 H      0.9430     1.0000     0.0570     0.9828     0.9828    -0.0000
 70 H      1.0280     1.0000    -0.0280     0.9935     0.9935     0.0000
 71 H      0.9545     1.0000     0.0455     1.0061     1.0061     0.0000
 72 H      0.9330     1.0000     0.0670     0.9840     0.9840    -0.0000
 73 H      1.0096     1.0000    -0.0096     1.0003     1.0003     0.0000
 74 H      0.9437     1.0000     0.0563     1.0100     1.0100    -0.0000
 75 H      0.9338     1.0000     0.0662     0.9844     0.9844    -0.0000
 76 H      0.9289     1.0000     0.0711     0.9720     0.9720     0.0000
 77 H      0.9349     1.0000     0.0651     0.9854     0.9854     0.0000
 78 H      0.9357     1.0000     0.0643     0.9852     0.9852     0.0000
 79 H      1.0157     1.0000    -0.0157     0.9981     0.9981     0.0000
 80 H      0.9429     1.0000     0.0571     1.0072     1.0072     0.0000
 81 H      0.9462     1.0000     0.0538     0.9856     0.9856     0.0000
 82 H      1.0244     1.0000    -0.0244     0.9937     0.9937     0.0000
 83 H      0.9578     1.0000     0.0422     1.0085     1.0085    -0.0000
 84 H      0.9461     1.0000     0.0539     0.9853     0.9853    -0.0000
 85 H      0.9397     1.0000     0.0603     0.9716     0.9716    -0.0000
 86 H      0.9443     1.0000     0.0557     0.9839     0.9839     0.0000
 87 H      0.9431     1.0000     0.0569     0.9856     0.9856    -0.0000
 88 H      1.0164     1.0000    -0.0164     0.9961     0.9961    -0.0000
 89 H      0.9546     1.0000     0.0454     1.0074     1.0074    -0.0000

  Mayer bond orders larger than 0.100000
B(  0-C ,  1-N ) :   1.0963 B(  0-C , 17-C ) :   1.6888 B(  0-C , 52-H ) :   0.9682 
B(  1-N ,  8-C ) :   1.0897 B(  1-N , 10-C ) :   0.9747 B(  2-C , 12-C ) :   1.5156 
B(  2-C , 16-C ) :   1.3486 B(  2-C , 53-H ) :   0.9761 B(  3-N , 14-C ) :   1.2163 
B(  3-N , 16-C ) :   1.1918 B(  3-N , 61-H ) :   0.8990 B(  4-C ,  6-C ) :   1.2198 
B(  4-C , 17-C ) :   1.2213 B(  4-C , 18-C ) :   1.4034 B(  5-N , 19-C ) :   1.4460 
B(  5-N , 27-C ) :   1.3842 B(  6-C ,  8-C ) :   1.6948 B(  6-C , 54-H ) :   0.9621 
B(  7-N , 30-C ) :   1.1954 B(  7-N , 38-C ) :   1.1935 B(  7-N , 62-H ) :   0.8972 
B(  8-C , 55-H ) :   0.9682 B(  9-N , 41-C ) :   1.3976 B(  9-N , 49-C ) :   1.4231 
B( 10-C , 56-H ) :   0.9768 B( 10-C , 57-H ) :   0.9821 B( 10-C , 58-H ) :   0.9842 
B( 11-N , 20-C ) :   1.1294 B( 11-N , 24-C ) :   1.1110 B( 11-N , 25-C ) :   0.9596 
B( 12-C , 14-C ) :   1.3496 B( 12-C , 59-H ) :   0.9743 B( 13-N , 31-C ) :   1.1500 
B( 13-N , 35-C ) :   1.1465 B( 13-N , 36-C ) :   0.9469 B( 14-C , 18-C ) :   1.1436 
B( 15-N , 42-C ) :   1.1095 B( 15-N , 46-C ) :   1.1210 B( 15-N , 47-C ) :   0.9617 
B( 16-C , 51-C ) :   1.1775 B( 17-C , 60-H ) :   0.9644 B( 18-C , 19-C ) :   1.1508 
B( 19-C , 21-C ) :   1.2372 B( 20-C , 28-C ) :   1.6271 B( 20-C , 63-H ) :   0.9703 
B( 21-C , 26-C ) :   1.6185 B( 21-C , 64-H ) :   0.9698 B( 22-C , 23-C ) :   1.2884 
B( 22-C , 28-C ) :   1.2668 B( 22-C , 29-C ) :   1.2238 B( 23-C , 24-C ) :   1.6193 
B( 23-C , 65-H ) :   0.9705 B( 24-C , 66-H ) :   0.9694 B( 25-C , 67-H ) :   0.9760 
B( 25-C , 68-H ) :   0.9828 B( 25-C , 69-H ) :   0.9823 B( 26-C , 27-C ) :   1.2332 
B( 26-C , 70-H ) :   0.9715 B( 27-C , 29-C ) :   1.2187 B( 28-C , 71-H ) :   0.9718 
B( 29-C , 30-C ) :   1.2334 B( 30-C , 32-C ) :   1.2904 B( 31-C , 39-C ) :   1.6009 
B( 31-C , 72-H ) :   0.9686 B( 32-C , 37-C ) :   1.5683 B( 32-C , 73-H ) :   0.9784 
B( 33-C , 34-C ) :   1.2978 B( 33-C , 39-C ) :   1.2929 B( 33-C , 40-C ) :   1.1976 
B( 34-C , 35-C ) :   1.5980 B( 34-C , 74-H ) :   0.9699 B( 35-C , 75-H ) :   0.9686 
B( 36-C , 76-H ) :   0.9766 B( 36-C , 77-H ) :   0.9817 B( 36-C , 78-H ) :   0.9826 
B( 37-C , 38-C ) :   1.2943 B( 37-C , 79-H ) :   0.9769 B( 38-C , 40-C ) :   1.2251 
B( 39-C , 80-H ) :   0.9708 B( 40-C , 41-C ) :   1.2419 B( 41-C , 43-C ) :   1.1927 
B( 42-C , 50-C ) :   1.6335 B( 42-C , 81-H ) :   0.9697 B( 43-C , 48-C ) :   1.6595 
B( 43-C , 82-H ) :   0.9726 B( 44-C , 45-C ) :   1.2653 B( 44-C , 50-C ) :   1.2706 
B( 44-C , 51-C ) :   1.2594 B( 45-C , 46-C ) :   1.6346 B( 45-C , 83-H ) :   0.9716 
B( 46-C , 84-H ) :   0.9701 B( 47-C , 85-H ) :   0.9762 B( 47-C , 86-H ) :   0.9829 
B( 47-C , 87-H ) :   0.9825 B( 48-C , 49-C ) :   1.1955 B( 48-C , 88-H ) :   0.9746 
B( 49-C , 51-C ) :   1.2361 B( 50-C , 89-H ) :   0.9711 

-------
TIMINGS
-------

Total SCF time: 0 days 0 hours 31 min 0 sec 

Total time                  ....    1860.667 sec
Sum of individual times     ....    1856.033 sec  ( 99.8%)

Fock matrix formation       ....    1832.131 sec  ( 98.5%)
Diagonalization             ....       6.909 sec  (  0.4%)
Density matrix formation    ....       0.715 sec  (  0.0%)
Population analysis         ....       0.525 sec  (  0.0%)
Initial guess               ....       2.082 sec  (  0.1%)
Orbital Transformation      ....       0.000 sec  (  0.0%)
Orbital Orthonormalization  ....       0.000 sec  (  0.0%)
DIIS solution               ....       3.525 sec  (  0.2%)
SOSCF solution              ....       9.094 sec  (  0.5%)

Maximum memory used throughout the entire SCF-calculation: 302.6 MB


           ************************************************************
           *        Program running with 16 parallel MPI-processes    *
           *              working on a common directory               *
           ************************************************************

------------------------------------------------------------------------------
                                ORCA  MP2 
------------------------------------------------------------------------------

Freezing NCore=104 chemical core electrons

----------
MP2 ENERGY (disk based algorithm)
----------

Dimension of the basis                    ...  918
Memory devoted to MP2                     ... 2000 MB   
Data format for buffers                   ... DOUBLE
Compression type for matrix containers    ... UNCOMPRESSED

-------------------------------
PARTIAL EXCHANGE TRANSFORMATION
-------------------------------

Transformation type                        ... one-operator
Generation of integrals (i,mue|j,nue)      ... ON
Generation of integrals (mue,kappa|nue,tau)... OFF
Generation of integrals (i,mue|a,nue)      ... OFF
Dimension of the basis                     ...  918
Number of internal MOs                     ...  127 (  52- 178)
Pair cutoff                                ... 2.500e-12 Eh
Number of AO pairs in the trafo            ... 421821
Total Number of distinct AO pairs          ... 421821
Memory devoted for trafo                   ... 2000.0 MB 
Max. Number of MO pairs treated together   ...  311      
Number Format for Storage                  ... Double (8 Byte)
Integral package used                      ... LIBINT

Starting integral evaluation:
    ... done with AO integral generation
Closing buffer AOK     (38.23 GB; CompressionRatio= 1.33)
Collecting buffer AOK 
Number of MO pairs included in the trafo   ... 8128
------------------------
SORTING OF (i,mue|j,nue)
------------------------

IBATCH = 1 of  2
IBATCH = 2 of  2
Closing buffer KAO     (51.03 GB; CompressionRatio= 1.00)
Collecting buffer KAO 
N(AO-Batches) Done                         ...  85809526 
N(AO-Batches) Skipped                      ...  82414931 
N(IJ)-pairs Skipped                        ...         0 
TOTAL TIME for half transformation         ...  3267.525 sec
AO-integral generation                     ...   214.087 sec
Half transformation                        ...   373.779 sec
K-integral sorting                         ...  2499.109 sec
Process 10:   Internal MO 132
Process 13:   Internal MO 156

Finished integral transformation - now doing MP2 part

OPERATOR COMBINATION   0   0: ij=( 52..178, 52..178)
Process  7:   Internal MO 108
Process  4:   Internal MO  84
Process  1:   Internal MO  60
Process  0:   Internal MO  54
Process  0:   Internal MO  57
Process  2:   Internal MO  69
Process  1:   Internal MO  63
Process  5:   Internal MO  93
Process  3:   Internal MO  78
Process  8:   Internal MO 117
Process  2:   Internal MO  72
Process  1:   Internal MO  66
Process  6:   Internal MO 102
Process  4:   Internal MO  87
Process 11:   Internal MO 141
Process 14:   Internal MO 165
Process  2:   Internal MO  75
Process  9:   Internal MO 126
Process  3:   Internal MO  81
Process  7:   Internal MO 111
Process  5:   Internal MO  96
Process  4:   Internal MO  90
Process 15:   Internal MO 174
Process  6:   Internal MO 105
Process 10:   Internal MO 135
Process  8:   Internal MO 120
Process  5:   Internal MO  99
Process 13:   Internal MO 159
Process  7:   Internal MO 114
Process 11:   Internal MO 144
Process  9:   Internal MO 129
Process 14:   Internal MO 168
Process  8:   Internal MO 123
Process 10:   Internal MO 138
Process 12:   Internal MO 150
Process 15:   Internal MO 177
Process 11:   Internal MO 147
Process 13:   Internal MO 162
Process 14:   Internal MO 171
Process 12:   Internal MO 153
-----------------------------------------------
 MP2 CORRELATION ENERGY   :     -7.284453046 Eh
-----------------------------------------------


-------
TIMINGS
-------
Total time                : 3842.714 sec
Integral trafo            : 3269.732 sec ( 85.1%)
K(i,j)                    :    6.176 sec (  0.2%)
T(i,j)                    :    0.538 sec (  0.0%)

---------------------------------------
MP2 TOTAL ENERGY:    -2130.901621067 Eh
---------------------------------------

Maximum memory used throughout the entire MP2-calculation: 2275.3 MB

-------------------------   --------------------
FINAL SINGLE POINT ENERGY     -2130.901621067479
-------------------------   --------------------


                            ***************************************
                            *     ORCA property calculations      *
                            ***************************************


  WARNING: The energy has been calculated at the MP2 level but the densities
           used in the property calculations are still SCF densities
           MP2 response densities have not been calculated 
           use %mp2 Density relaxed end
           or  %mp2 Density unrelaxed end

                                    ---------------------
                                    Active property flags
                                    ---------------------
   (+) Dipole Moment


------------------------------------------------------------------------------
                       ORCA ELECTRIC PROPERTIES CALCULATION
------------------------------------------------------------------------------

Dipole Moment Calculation                       ... on
Quadrupole Moment Calculation                   ... off
Polarizability Calculation                      ... off
GBWName                                         ... /scratch/allen/tmpyp4_amber_gaff2/conf1/conf1/Conf40.orca.gbw
Electron density                                ... /scratch/allen/tmpyp4_amber_gaff2/conf1/conf1/Conf40.orca.scfp
The origin for moment calculation is the CENTER OF MASS  = (-0.000336, -0.004367  0.003537)

-------------
DIPOLE MOMENT
-------------
                                X             Y             Z
Electronic contribution:      1.95066      -3.25964      -0.12192
Nuclear contribution   :     -0.04988       0.15172       0.14725
                        -----------------------------------------
Total Dipole Moment    :      1.90078      -3.10793       0.02532
                        -----------------------------------------
Magnitude (a.u.)       :      3.64319
Magnitude (Debye)      :      9.26024



--------------------
Rotational spectrum 
--------------------
 
Rotational constants in cm-1:     0.001501     0.001476     0.000761 
Rotational constants in MHz :    45.002079    44.249122    22.812737 

 Dipole components along the rotational axes: 
x,y,z [a.u.] :     2.619910     2.531419     0.028047 
x,y,z [Debye]:     6.659283     6.434357     0.071291 

 

Timings for individual modules:

Sum of individual times         ...     5722.434 sec (=  95.374 min)
GTO integral calculation        ...        3.318 sec (=   0.055 min)   0.1 %
SCF iterations                  ...     1861.782 sec (=  31.030 min)  32.5 %
MP2 module                      ...     3857.334 sec (=  64.289 min)  67.4 %
                             ****ORCA TERMINATED NORMALLY****
TOTAL RUN TIME: 0 days 1 hours 35 minutes 25 seconds 719 msec
# of primitive gaussian functions

