
                                 *****************
                                 * O   R   C   A *
                                 *****************

                                            #,                                       
                                            ###                                      
                                            ####                                     
                                            #####                                    
                                            ######                                   
                                           ########,                                 
                                     ,,################,,,,,                         
                               ,,#################################,,                 
                          ,,##########################################,,             
                       ,#########################################, ''#####,          
                    ,#############################################,,   '####,        
                  ,##################################################,,,,####,       
                ,###########''''           ''''###############################       
              ,#####''   ,,,,##########,,,,          '''####'''          '####       
            ,##' ,,,,###########################,,,                        '##       
           ' ,,###''''                  '''############,,,                           
         ,,##''                                '''############,,,,        ,,,,,,###''
      ,#''                                            '''#######################'''  
     '                                                          ''''####''''         
             ,#######,   #######,   ,#######,      ##                                
            ,#'     '#,  ##    ##  ,#'     '#,    #''#        ######   ,####,        
            ##       ##  ##   ,#'  ##            #'  '#       #        #'  '#        
            ##       ##  #######   ##           ,######,      #####,   #    #        
            '#,     ,#'  ##    ##  '#,     ,#' ,#      #,         ##   #,  ,#        
             '#######'   ##     ##  '#######'  #'      '#     #####' # '####'        



                  #######################################################
                  #                        -***-                        #
                  #          Department of theory and spectroscopy      #
                  #    Directorship and core code : Frank Neese         #
                  #        Max Planck Institute fuer Kohlenforschung    #
                  #                Kaiser Wilhelm Platz 1               #
                  #                 D-45470 Muelheim/Ruhr               #
                  #                      Germany                        #
                  #                                                     #
                  #                  All rights reserved                #
                  #                        -***-                        #
                  #######################################################


                         Program Version 5.0.4 -  RELEASE  -


 With contributions from (in alphabetic order):
   Daniel Aravena         : Magnetic Suceptibility
   Michael Atanasov       : Ab Initio Ligand Field Theory (pilot matlab implementation)
   Alexander A. Auer      : GIAO ZORA, VPT2 properties, NMR spectrum
   Ute Becker             : Parallelization
   Giovanni Bistoni       : ED, misc. LED, open-shell LED, HFLD
   Martin Brehm           : Molecular dynamics
   Dmytro Bykov           : SCF Hessian
   Vijay G. Chilkuri      : MRCI spin determinant printing, contributions to CSF-ICE
   Dipayan Datta          : RHF DLPNO-CCSD density
   Achintya Kumar Dutta   : EOM-CC, STEOM-CC
   Dmitry Ganyushin       : Spin-Orbit,Spin-Spin,Magnetic field MRCI
   Miquel Garcia          : C-PCM and meta-GGA Hessian, CC/C-PCM, Gaussian charge scheme
   Yang Guo               : DLPNO-NEVPT2, F12-NEVPT2, CIM, IAO-localization
   Andreas Hansen         : Spin unrestricted coupled pair/coupled cluster methods
   Benjamin Helmich-Paris : MC-RPA, TRAH-SCF, COSX integrals
   Lee Huntington         : MR-EOM, pCC
   Robert Izsak           : Overlap fitted RIJCOSX, COSX-SCS-MP3, EOM
   Marcus Kettner         : VPT2
   Christian Kollmar      : KDIIS, OOCD, Brueckner-CCSD(T), CCSD density, CASPT2, CASPT2-K
   Simone Kossmann        : Meta GGA functionals, TD-DFT gradient, OOMP2, MP2 Hessian
   Martin Krupicka        : Initial AUTO-CI
   Lucas Lang             : DCDCAS
   Marvin Lechner         : AUTO-CI (C++ implementation), FIC-MRCC
   Dagmar Lenk            : GEPOL surface, SMD
   Dimitrios Liakos       : Extrapolation schemes; Compound Job, initial MDCI parallelization
   Dimitrios Manganas     : Further ROCIS development; embedding schemes
   Dimitrios Pantazis     : SARC Basis sets
   Anastasios Papadopoulos: AUTO-CI, single reference methods and gradients
   Taras Petrenko         : DFT Hessian,TD-DFT gradient, ASA, ECA, R-Raman, ABS, FL, XAS/XES, NRVS
   Peter Pinski           : DLPNO-MP2, DLPNO-MP2 Gradient
   Christoph Reimann      : Effective Core Potentials
   Marius Retegan         : Local ZFS, SOC
   Christoph Riplinger    : Optimizer, TS searches, QM/MM, DLPNO-CCSD(T), (RO)-DLPNO pert. Triples
   Tobias Risthaus        : Range-separated hybrids, TD-DFT gradient, RPA, STAB
   Michael Roemelt        : Original ROCIS implementation
   Masaaki Saitow         : Open-shell DLPNO-CCSD energy and density
   Barbara Sandhoefer     : DKH picture change effects
   Avijit Sen             : IP-ROCIS
   Kantharuban Sivalingam : CASSCF convergence, NEVPT2, FIC-MRCI
   Bernardo de Souza      : ESD, SOC TD-DFT
   Georgi Stoychev        : AutoAux, RI-MP2 NMR, DLPNO-MP2 response
   Willem Van den Heuvel  : Paramagnetic NMR
   Boris Wezisla          : Elementary symmetry handling
   Frank Wennmohs         : Technical directorship


 We gratefully acknowledge several colleagues who have allowed us to
 interface, adapt or use parts of their codes:
   Stefan Grimme, W. Hujo, H. Kruse, P. Pracht,  : VdW corrections, initial TS optimization,
                  C. Bannwarth, S. Ehlert          DFT functionals, gCP, sTDA/sTD-DF
   Ed Valeev, F. Pavosevic, A. Kumar             : LibInt (2-el integral package), F12 methods
   Garnet Chan, S. Sharma, J. Yang, R. Olivares  : DMRG
   Ulf Ekstrom                                   : XCFun DFT Library
   Mihaly Kallay                                 : mrcc  (arbitrary order and MRCC methods)
   Jiri Pittner, Ondrej Demel                    : Mk-CCSD
   Frank Weinhold                                : gennbo (NPA and NBO analysis)
   Christopher J. Cramer and Donald G. Truhlar   : smd solvation model
   Lars Goerigk                                  : TD-DFT with DH, B97 family of functionals
   V. Asgeirsson, H. Jonsson                     : NEB implementation
   FAccTs GmbH                                   : IRC, NEB, NEB-TS, DLPNO-Multilevel, CI-OPT
                                                   MM, QMMM, 2- and 3-layer-ONIOM, Crystal-QMMM,
                                                   LR-CPCM, SF, NACMEs, symmetry and pop. for TD-DFT,
                                                   nearIR, NL-DFT gradient (VV10), updates on ESD,
                                                   ML-optimized integration grids
   S Lehtola, MJT Oliveira, MAL Marques          : LibXC Library
   Liviu Ungur et al                             : ANISO software


 Your calculation uses the libint2 library for the computation of 2-el integrals
 For citations please refer to: http://libint.valeyev.net

 Your ORCA version has been built with support for libXC version: 5.1.0
 For citations please refer to: https://tddft.org/programs/libxc/

 This ORCA versions uses:
   CBLAS   interface :  Fast vector & matrix operations
   LAPACKE interface :  Fast linear algebra routines
   SCALAPACK package :  Parallel linear algebra routines
   Shared memory     :  Shared parallel matrices
   BLAS/LAPACK       :  OpenBLAS 0.3.15  USE64BITINT DYNAMIC_ARCH NO_AFFINITY Sandybridge SINGLE_THREADED
        Core in use  :  Sandybridge
   Copyright (c) 2011-2014, The OpenBLAS Project


================================================================================

----- Orbital basis set information -----
Your calculation utilizes the basis: cc-pVDZ 
       H, B-Ne : Obtained from the ccRepo (grant-hill.group.shef.ac.uk/ccrepo) Feb. 2017
                 T. H. Dunning, Jr., J. Chem. Phys. 90, 1007 (1989)
            He : Obtained from the ccRepo (grant-hill.group.shef.ac.uk/ccrepo) Feb. 2017
                 D. E. Woon, T. H. Dunning, Jr., J. Chem. Phys. 100, 2975 (1994)
  Li-Be, Na-Mg : Obtained from the ccRepo (grant-hill.group.shef.ac.uk/ccrepo) Feb. 2017
                 B. P. Prascher, D. E. Woon, K. A. Peterson, T. H. Dunning, Jr., A. K. Wilson, Theor. Chem. Acc. 128, 69 (2011)
         Al-Ar : Obtained from the ccRepo (grant-hill.group.shef.ac.uk/ccrepo) Feb. 2017
                 D. E. Woon, T. H. Dunning, Jr., J. Chem. Phys. 98, 1358 (1993)
            Ca : Obtained from the Peterson Research Group Website (tyr0.chem.wsu.edu/~kipeters) Feb. 2017
                 J. Koput, K. A. Peterson, J. Phys. Chem. 106, 9595 (2002)
         Sc-Zn : Obtained from the ccRepo (grant-hill.group.shef.ac.uk/ccrepo) Feb. 2017
                 N. B. Balabanov, K. A. Peterson, J. Chem. Phys. 123, 064107 (2005)
                 N. B. Balabanov, K. A. Peterson, J. Chem. Phys. 125, 074110 (2006)
         Ga-Kr : Obtained from the ccRepo (grant-hill.group.shef.ac.uk/ccrepo) Feb. 2017
                 A. K. Wilson, D. E. Woon, K. A. Peterson, T. H. Dunning, Jr., J. Chem. Phys. 110, 7667 (1999)

================================================================================
                                        WARNINGS
                       Please study these warnings very carefully!
================================================================================


WARNING: No MP2 level density has been requested!
         To caclulate MP2 level properties use
         %mp2 Density relaxed end
         or
         %mp2 Density unrelaxed end

WARNING: Post HF methods need fully converged wavefunctions
  ===> : Setting SCFConvForced true
         You can overwrite this default with %scf ConvForced false 


INFO   : the flag for use of the SHARK integral package has been found!

================================================================================
                                       INPUT FILE
================================================================================
NAME = /scratch/allen/tmpyp4_amber_gaff2/2.Mdgx/conf11/conf11/Conf154.orca
|  1> ! PAL2
|  2> ! mp2 cc-pvdz TightSCF  NoKeepInts
|  3> 
|  4> %scf
|  5>   MaxCore 2000
|  6> end
|  7> %mp2
|  8>   MaxCore 2000
|  9> end
| 10> * xyz 0 1
| 11>    C       -4.84700         5.26700        -0.46600
| 12>    C        1.47400         4.04100         0.05700
| 13>    C       -2.80200         4.09300         0.04900
| 14>    C       -2.32100         5.28300         0.61600
| 15>    C       -3.11200         6.41500         0.62600
| 16>    C       -5.19000         7.61700         0.14800
| 17>    C        0.13200         4.30700         0.06100
| 18>    C       -0.56900         3.05600         0.04700
| 19>    C        1.64900         2.61800         0.02300
| 20>    C       -4.09600         4.10800        -0.49500
| 21>    N       -4.35300         6.39800         0.08700
| 22>    N        0.38800         2.06700         0.02500
| 23>    N       -2.01000         0.39500        -0.07500
| 24>    N       -0.38800        -2.07400        -0.02700
| 25>    N        2.01000        -0.40100         0.06500
| 26>    C       -1.96000         2.86100         0.02400
| 27>    C       -2.62300         1.61500        -0.01800
| 28>    C       -5.57300        -4.32900         1.06600
| 29>    C       -4.07300         1.47100         0.05600
| 30>    C       -4.10600        -2.75600        -0.02600
| 31>    C       -4.99500        -2.75700        -1.11100
| 32>    C       -6.13200        -3.54200        -1.07600
| 33>    C       -7.65100        -5.11300         0.04000
| 34>    C       -4.32400         0.14100         0.03700
| 35>    C       -3.02500        -0.52000        -0.04800
| 36>    C       -4.42200        -3.56600         1.07500
| 37>    N       -6.40700        -4.31300         0.00100
| 38>    C       -2.86700        -1.92200        -0.04000
| 39>    C       -1.65000        -2.62400        -0.02700
| 40>    C        3.56800        -6.14200        -1.04000
| 41>    C       -1.47600        -4.04900        -0.03400
| 42>    C        2.80300        -4.09900        -0.00800
| 43>    C        3.65700        -4.38400         1.06900
| 44>    C        4.42700        -5.53000         1.05900
| 45>    C        5.24500        -7.58800         0.01400
| 46>    C       -0.13400        -4.31500        -0.02200
| 47>    C        0.56800        -3.06400        -0.02700
| 48>    C        2.77500        -5.01200        -1.07400
| 49>    N        4.37600        -6.39100         0.01700
| 50>    C        1.95900        -2.86900        -0.00900
| 51>    C        2.62100        -1.62200         0.00900
| 52>    C        5.54300         4.33900        -1.13000
| 53>    C        4.07000        -1.47900        -0.09400
| 54>    C        4.10400         2.75100        -0.02100
| 55>    C        5.02700         2.72900         1.03600
| 56>    C        6.16600         3.50900         0.97800
| 57>    C        7.61900         5.15300        -0.11500
| 58>    C        4.32100        -0.14800        -0.09200
| 59>    C        3.02500         0.51400         0.01500
| 60>    C        4.38700         3.58200        -1.11500
| 61>    C        2.86600         1.91600         0.01300
| 62>    N        6.41300         4.29600        -0.09500
| 63>    H       -5.84400         5.32800        -0.88500
| 64>    H        2.27400         4.76600         0.08100
| 65>    H       -1.33500         5.33200         1.06000
| 66>    H       -2.78800         7.35300         1.05900
| 67>    H       -5.71800         7.63900         1.10400
| 68>    H       -4.54400         8.49100         0.05600
| 69>    H       -5.90400         7.59300        -0.67500
| 70>    H       -0.33200         5.28200         0.06900
| 71>    H       -4.51800         3.22400        -0.96000
| 72>    H        0.18200         1.07200         0.00500
| 73>    H       -0.18300        -1.08000        -0.02100
| 74>    H       -5.86400        -4.96200         1.89500
| 75>    H       -4.79400         2.27200         0.13900
| 76>    H       -4.80000        -2.16000        -1.99400
| 77>    H       -6.84100        -3.58200        -1.89300
| 78>    H       -8.42800        -4.53600         0.54600
| 79>    H       -7.95600        -5.33700        -0.98100
| 80>    H       -7.45600        -6.03700         0.58400
| 81>    H       -5.28700        -0.34400         0.10000
| 82>    H       -3.78000        -3.60100         1.94700
| 83>    H        3.58700        -6.86800        -1.84300
| 84>    H       -2.27600        -4.77400        -0.05000
| 85>    H        3.71400        -3.72400         1.92600
| 86>    H        5.09200        -5.79500         1.87100
| 87>    H        6.20500        -7.32900        -0.43900
| 88>    H        5.39300        -7.91700         1.04200
| 89>    H        4.75900        -8.37300        -0.56400
| 90>    H        0.32900        -5.29000        -0.00800
| 91>    H        2.14600        -4.84200        -1.94000
| 92>    H        5.80800         4.98600        -1.95600
| 93>    H        4.78800        -2.28100        -0.18500
| 94>    H        4.86000         2.11400         1.91200
| 95>    H        6.90100         3.53100         1.77200
| 96>    H        7.38300         6.10900         0.35600
| 97>    H        8.41400         4.65200         0.43500
| 98>    H        7.92100         5.31000        -1.15000
| 99>    H        5.28300         0.33600        -0.17900
|100>    H        3.72000         3.63200        -1.96700
|101> *
|102> 
|103>                          ****END OF INPUT****
================================================================================

                       ****************************
                       * Single Point Calculation *
                       ****************************

---------------------------------
CARTESIAN COORDINATES (ANGSTROEM)
---------------------------------
  C     -4.847000    5.267000   -0.466000
  C      1.474000    4.041000    0.057000
  C     -2.802000    4.093000    0.049000
  C     -2.321000    5.283000    0.616000
  C     -3.112000    6.415000    0.626000
  C     -5.190000    7.617000    0.148000
  C      0.132000    4.307000    0.061000
  C     -0.569000    3.056000    0.047000
  C      1.649000    2.618000    0.023000
  C     -4.096000    4.108000   -0.495000
  N     -4.353000    6.398000    0.087000
  N      0.388000    2.067000    0.025000
  N     -2.010000    0.395000   -0.075000
  N     -0.388000   -2.074000   -0.027000
  N      2.010000   -0.401000    0.065000
  C     -1.960000    2.861000    0.024000
  C     -2.623000    1.615000   -0.018000
  C     -5.573000   -4.329000    1.066000
  C     -4.073000    1.471000    0.056000
  C     -4.106000   -2.756000   -0.026000
  C     -4.995000   -2.757000   -1.111000
  C     -6.132000   -3.542000   -1.076000
  C     -7.651000   -5.113000    0.040000
  C     -4.324000    0.141000    0.037000
  C     -3.025000   -0.520000   -0.048000
  C     -4.422000   -3.566000    1.075000
  N     -6.407000   -4.313000    0.001000
  C     -2.867000   -1.922000   -0.040000
  C     -1.650000   -2.624000   -0.027000
  C      3.568000   -6.142000   -1.040000
  C     -1.476000   -4.049000   -0.034000
  C      2.803000   -4.099000   -0.008000
  C      3.657000   -4.384000    1.069000
  C      4.427000   -5.530000    1.059000
  C      5.245000   -7.588000    0.014000
  C     -0.134000   -4.315000   -0.022000
  C      0.568000   -3.064000   -0.027000
  C      2.775000   -5.012000   -1.074000
  N      4.376000   -6.391000    0.017000
  C      1.959000   -2.869000   -0.009000
  C      2.621000   -1.622000    0.009000
  C      5.543000    4.339000   -1.130000
  C      4.070000   -1.479000   -0.094000
  C      4.104000    2.751000   -0.021000
  C      5.027000    2.729000    1.036000
  C      6.166000    3.509000    0.978000
  C      7.619000    5.153000   -0.115000
  C      4.321000   -0.148000   -0.092000
  C      3.025000    0.514000    0.015000
  C      4.387000    3.582000   -1.115000
  C      2.866000    1.916000    0.013000
  N      6.413000    4.296000   -0.095000
  H     -5.844000    5.328000   -0.885000
  H      2.274000    4.766000    0.081000
  H     -1.335000    5.332000    1.060000
  H     -2.788000    7.353000    1.059000
  H     -5.718000    7.639000    1.104000
  H     -4.544000    8.491000    0.056000
  H     -5.904000    7.593000   -0.675000
  H     -0.332000    5.282000    0.069000
  H     -4.518000    3.224000   -0.960000
  H      0.182000    1.072000    0.005000
  H     -0.183000   -1.080000   -0.021000
  H     -5.864000   -4.962000    1.895000
  H     -4.794000    2.272000    0.139000
  H     -4.800000   -2.160000   -1.994000
  H     -6.841000   -3.582000   -1.893000
  H     -8.428000   -4.536000    0.546000
  H     -7.956000   -5.337000   -0.981000
  H     -7.456000   -6.037000    0.584000
  H     -5.287000   -0.344000    0.100000
  H     -3.780000   -3.601000    1.947000
  H      3.587000   -6.868000   -1.843000
  H     -2.276000   -4.774000   -0.050000
  H      3.714000   -3.724000    1.926000
  H      5.092000   -5.795000    1.871000
  H      6.205000   -7.329000   -0.439000
  H      5.393000   -7.917000    1.042000
  H      4.759000   -8.373000   -0.564000
  H      0.329000   -5.290000   -0.008000
  H      2.146000   -4.842000   -1.940000
  H      5.808000    4.986000   -1.956000
  H      4.788000   -2.281000   -0.185000
  H      4.860000    2.114000    1.912000
  H      6.901000    3.531000    1.772000
  H      7.383000    6.109000    0.356000
  H      8.414000    4.652000    0.435000
  H      7.921000    5.310000   -1.150000
  H      5.283000    0.336000   -0.179000
  H      3.720000    3.632000   -1.967000

----------------------------
CARTESIAN COORDINATES (A.U.)
----------------------------
  NO LB      ZA    FRAG     MASS         X           Y           Z
   0 C     6.0000    0    12.011   -9.159503    9.953188   -0.880612
   1 C     6.0000    0    12.011    2.785456    7.636383    0.107714
   2 C     6.0000    0    12.011   -5.295013    7.734649    0.092597
   3 C     6.0000    0    12.011   -4.386054    9.983423    1.164071
   4 C     6.0000    0    12.011   -5.880828   12.122593    1.182969
   5 C     6.0000    0    12.011   -9.807679   14.394044    0.279679
   6 C     6.0000    0    12.011    0.249444    8.139050    0.115273
   7 C     6.0000    0    12.011   -1.075254    5.775003    0.088817
   8 C     6.0000    0    12.011    3.116158    4.947303    0.043464
   9 C     6.0000    0    12.011   -7.740318    7.762995   -0.935414
  10 N     7.0000    0    14.007   -8.225978   12.090468    0.164406
  11 N     7.0000    0    14.007    0.733214    3.906064    0.047243
  12 N     7.0000    0    14.007   -3.798350    0.746442   -0.141729
  13 N     7.0000    0    14.007   -0.733214   -3.919292   -0.051023
  14 N     7.0000    0    14.007    3.798350   -0.757780    0.122832
  15 C     6.0000    0    12.011   -3.703863    5.406506    0.045353
  16 C     6.0000    0    12.011   -4.956752    3.051908   -0.034015
  17 C     6.0000    0    12.011  -10.531444   -8.180624    2.014448
  18 C     6.0000    0    12.011   -7.696855    2.779787    0.105825
  19 C     6.0000    0    12.011   -7.759216   -5.208085   -0.049133
  20 C     6.0000    0    12.011   -9.439182   -5.209975   -2.099486
  21 C     6.0000    0    12.011  -11.587801   -6.693410   -2.033345
  22 C     6.0000    0    12.011  -14.458295   -9.662170    0.075589
  23 C     6.0000    0    12.011   -8.171176    0.266451    0.069920
  24 C     6.0000    0    12.011   -5.716422   -0.982658   -0.090707
  25 C     6.0000    0    12.011   -8.356369   -6.738763    2.031456
  26 N     7.0000    0    14.007  -12.107475   -8.150389    0.001890
  27 C     6.0000    0    12.011   -5.417845   -3.632054   -0.075589
  28 C     6.0000    0    12.011   -3.118048   -4.958641   -0.051023
  29 C     6.0000    0    12.011    6.742543  -11.606698   -1.965315
  30 C     6.0000    0    12.011   -2.789236   -7.651501   -0.064251
  31 C     6.0000    0    12.011    5.296902   -7.745987   -0.015118
  32 C     6.0000    0    12.011    6.910728   -8.284559    2.020117
  33 C     6.0000    0    12.011    8.365818  -10.450186    2.001220
  34 C     6.0000    0    12.011    9.911614  -14.339242    0.026456
  35 C     6.0000    0    12.011   -0.253223   -8.154168   -0.041574
  36 C     6.0000    0    12.011    1.073364   -5.790121   -0.051023
  37 C     6.0000    0    12.011    5.243990   -9.471307   -2.029566
  38 N     7.0000    0    14.007    8.269442  -12.077240    0.032125
  39 C     6.0000    0    12.011    3.701973   -5.421624   -0.017008
  40 C     6.0000    0    12.011    4.952972   -3.065136    0.017008
  41 C     6.0000    0    12.011   10.474752    8.199522   -2.135391
  42 C     6.0000    0    12.011    7.691185   -2.794905   -0.177634
  43 C     6.0000    0    12.011    7.755436    5.198637   -0.039684
  44 C     6.0000    0    12.011    9.499653    5.157063    1.957756
  45 C     6.0000    0    12.011   11.652051    6.631049    1.848152
  46 C     6.0000    0    12.011   14.397823    9.737759   -0.217319
  47 C     6.0000    0    12.011    8.165507   -0.279679   -0.173855
  48 C     6.0000    0    12.011    5.716422    0.971319    0.028346
  49 C     6.0000    0    12.011    8.290229    6.768999   -2.107045
  50 C     6.0000    0    12.011    5.415955    3.620715    0.024566
  51 N     7.0000    0    14.007   12.118814    8.118263   -0.179524
  52 H     1.0000    0     1.008  -11.043560   10.068461   -1.672408
  53 H     1.0000    0     1.008    4.297237    9.006435    0.153068
  54 H     1.0000    0     1.008   -2.522784   10.076020    2.003110
  55 H     1.0000    0     1.008   -5.268556   13.895156    2.001220
  56 H     1.0000    0     1.008  -10.805454   14.435618    2.086258
  57 H     1.0000    0     1.008   -8.586916   16.045665    0.105825
  58 H     1.0000    0     1.008  -11.156943   14.348691   -1.275565
  59 H     1.0000    0     1.008   -0.627389    9.981533    0.130391
  60 H     1.0000    0     1.008   -8.537783    6.092477   -1.814137
  61 H     1.0000    0     1.008    0.343930    2.025786    0.009449
  62 H     1.0000    0     1.008   -0.345820   -2.040904   -0.039684
  63 H     1.0000    0     1.008  -11.081354   -9.376821    3.581031
  64 H     1.0000    0     1.008   -9.059347    4.293458    0.262672
  65 H     1.0000    0     1.008   -9.070685   -4.081808   -3.768114
  66 H     1.0000    0     1.008  -12.927616   -6.768999   -3.577252
  67 H     1.0000    0     1.008  -15.926612   -8.571798    1.031790
  68 H     1.0000    0     1.008  -15.034661  -10.085468   -1.853821
  69 H     1.0000    0     1.008  -14.089798  -11.408277    1.103600
  70 H     1.0000    0     1.008   -9.990982   -0.650066    0.188973
  71 H     1.0000    0     1.008   -7.143165   -6.804904    3.679297
  72 H     1.0000    0     1.008    6.778448  -12.978639   -3.482765
  73 H     1.0000    0     1.008   -4.301017   -9.021553   -0.094486
  74 H     1.0000    0     1.008    7.018443   -7.037340    3.639613
  75 H     1.0000    0     1.008    9.622485  -10.950963    3.535678
  76 H     1.0000    0     1.008   11.725751  -13.849803   -0.829590
  77 H     1.0000    0     1.008   10.191293  -14.960962    1.969095
  78 H     1.0000    0     1.008    8.993207  -15.822677   -1.065806
  79 H     1.0000    0     1.008    0.621720   -9.996651   -0.015118
  80 H     1.0000    0     1.008    4.055352   -9.150054   -3.666069
  81 H     1.0000    0     1.008   10.975529    9.422175   -3.696304
  82 H     1.0000    0     1.008    9.048009   -4.310465   -0.349599
  83 H     1.0000    0     1.008    9.184069    3.994881    3.613156
  84 H     1.0000    0     1.008   13.041000    6.672623    3.348595
  85 H     1.0000    0     1.008   13.951848   11.544337    0.672743
  86 H     1.0000    0     1.008   15.900156    8.791006    0.822031
  87 H     1.0000    0     1.008   14.968521   10.034446   -2.173185
  88 H     1.0000    0     1.008    9.983423    0.634948   -0.338261
  89 H     1.0000    0     1.008    7.029781    6.863485   -3.717091

--------------------------------
INTERNAL COORDINATES (ANGSTROEM)
--------------------------------
 C      0   0   0     0.000000000000     0.00000000     0.00000000
 C      1   0   0     6.460003560371     0.00000000     0.00000000
 C      1   2   0     2.413612644978    20.17677457     0.00000000
 C      3   1   2     1.403192787895    87.94559890    45.67988636
 C      4   3   1     1.381015930393   120.11488963     0.12930313
 C      5   4   3     2.447727926057   152.54311896     1.63398563
 C      2   1   3     1.368114030335     4.81696186   290.75725870
 C      7   2   4     1.434084376876   108.05010202   228.08484031
 C      2   1   3     1.434123425651   107.80580989    26.48148359
 C      1   2   7     1.381348254424    46.40879563   261.09485481
 N      1   2   7     1.352407482972    76.59657387    63.47623823
 N      9   2   1     1.376127174356   106.58526707   354.19098177
 N     12   9   2     2.925062050624   168.53581413   171.12065651
 N     13  12   9     2.954513327098    91.55032014    11.12112580
 N     14  13  12     2.925371258490    88.43092389   359.84326247
 C      8   7   2     1.404790019896   127.24786865   181.11170171
 C     13  12   9     1.366535034311    81.72106996   188.00453233
 C     14  13  12     5.758810554272    80.56209567   166.76250791
 C     17  13  12     1.459010623676   111.08861209   183.82872609
 C     18  14  13     2.412235892279    27.27532823    36.33507194
 C     20  18  14     1.402692767501    87.95206320   148.94598259
 C     21  20  18     1.382106725257   120.14573887   359.70382047
 C     18  14  13     2.446510985056   144.15733107    82.80075377
 C     19  17  13     1.353610726908   106.29293361   359.75308708
 C     13  12   9     1.366813447402   172.21332906    33.46711076
 C     18  14  13     1.380960173213    15.08449437   309.23336894
 N     22  21  20     1.352773077792   120.73759875     0.27865223
 C     25  13  17     1.410897586645   125.60330303   182.37774668
 C     14  13  12     1.376642291955    80.24689249   177.85461986
 C     14  13  12     5.764089607215   164.51507311   312.20821879
 C     29  14  13     1.435600919476   106.58649366   178.76395472
 C     30  14  13     2.413316804732    27.10625047    82.12560436
 C     32  30  14     1.403734305344    87.90059683   149.76154742
 C     33  32  30     1.380694028378   120.14881443   359.74174632
 C     34  33  32     2.448777858443   152.49203239     2.45173620
 C     31  29  14     1.368160809262   108.16950133     0.70383075
 C     14  13  12     1.376239804685   169.26375223   353.09862627
 C     30  14  13     1.380907310430    14.68948582   353.70041132
 N     34  33  32     1.352658863128   120.85575621     0.19603406
 C     37  14  29     1.404717053360   126.01551127   180.90772073
 C     15  14  13     1.366491126938    81.61824056   183.09049352
 C      2   1   3     4.249062720177   154.30179358   148.95328308
 C     41  15  14     1.459677704153   111.05201287   175.08990246
 C     42   2   1     2.412953791518    41.78584867   209.90923607
 C     44  42   2     1.403446472082    87.95153797   233.97558675
 C     45  44  42     1.381696421071   120.11137308     0.19721020
 C     42   2   1     2.450019795838   135.97209175   120.22408517
 C     43  41  15     1.354461516618   106.26758155     0.30894352
 C     15  14  13     1.367461151185   171.87382904   332.35056460
 C     42   2   1     1.381886391857    32.59078432   258.76451526
 C      9   2   1     1.404988612053   126.98745415   175.19531930
 N     42   2   1     1.352765315936   113.57249190   147.96067436
 H      1   2   7     1.083185579668   160.49844823   198.26535841
 H      2   1   3     1.079907866440   126.81629363   201.66589664
 H      4   3   1     1.082466165753   121.08929664   179.52640588
 H      5   4   3     1.082732192188   122.79369772   179.47274281
 H      6   5   4     1.092338775289   104.43818679   100.11928471
 H      6   5   4     1.090713527926    84.67293346   209.55312427
 H      6   5   4     1.089816957108   133.85638637   322.30399423
 H      7   2  54     1.079807853278   126.66122480     1.30600390
 H     10   1   2     1.084326980205   118.77958870   200.97153249
 H     12   9   2     1.016297692608   125.29023241   180.00180175
 H     14  13  12     1.014936943854    44.97226959   359.42596618
 H     18  14  13     1.082871645210   128.03556573   234.20482432
 H     19  17  13     1.080893611786   126.41830519   178.11313280
 H     21  20  18     1.083569563987   121.05669627   180.67006309
 H     22  21  20     1.082483256222   122.73097286   180.59748951
 H     23  18  14     1.092105306278   103.92715769   234.93429879
 H     23  18  14     1.088871893291   134.19244188    12.25587044
 H     23  18  14     1.089833473518    84.85857450   125.45241208
 H     24  19  17     1.080075460327   127.28078426   178.44613241
 H     26  18  14     1.083408048706   118.76995697   244.94906660
 H     30  14  13     1.082703098730   127.99711412   279.66882698
 H     31  29  14     1.079759695488   125.22293469   180.92530585
 H     33  32  30     1.083188810873   121.01964473   180.74284758
 H     34  33  32     1.082494341787   122.70821597   180.59516895
 H     35  34  33     1.092652735319   105.73575241    97.19771933
 H     35  34  33     1.089462711615    84.05943581   206.43036958
 H     35  34  33     1.089268102902   133.08365142   318.50306270
 H     36  31  29     1.079439669458   126.61599965   178.98859863
 H     38  30  73     1.083742127999   118.77264435   359.90091293
 H     42   2   1     1.082178358682   119.31790784     4.59220482
 H     43  41  15     1.080281907652   126.36969097   182.06329380
 H     45  44  42     1.083277434455   121.10105945   179.58025624
 H     46  45  44     1.082194529648   122.72144639   179.46906377
 H     47  42   2     1.091546151109   106.65128841   315.16475048
 H     47  42   2     1.088818625851   132.46019523    94.52397119
 H     47  42   2     1.089531091801    83.63838232   206.04504406
 H     48  43  41     1.080402239909   127.23657387   181.62955349
 H     50  42   2     1.083186502870   118.77001737    94.71359229

---------------------------
INTERNAL COORDINATES (A.U.)
---------------------------
 C      0   0   0     0.000000000000     0.00000000     0.00000000
 C      1   0   0    12.207637553257     0.00000000     0.00000000
 C      1   2   0     4.561066892379    20.17677457     0.00000000
 C      3   1   2     2.651650082215    87.94559890    45.67988636
 C      4   3   1     2.609741895026   120.11488963     0.12930313
 C      5   4   3     4.625535430599   152.54311896     1.63398563
 C      2   1   3     2.585360837309     4.81696186   290.75725870
 C      7   2   4     2.710026725231   108.05010202   228.08484031
 C      2   1   3     2.710100516721   107.80580989    26.48148359
 C      1   2   7     2.610369896431    46.40879563   261.09485481
 N      1   2   7     2.555679764284    76.59657387    63.47623823
 N      9   2   1     2.600503484979   106.58526707   354.19098177
 N     12   9   2     5.527566200405   168.53581413   171.12065651
 N     13  12   9     5.583221047236    91.55032014    11.12112580
 N     14  13  12     5.528150518591    88.43092389   359.84326247
 C      8   7   2     2.654668413270   127.24786865   181.11170171
 C     13  12   9     2.582376967257    81.72106996   188.00453233
 C     14  13  12    10.882574804710    80.56209567   166.76250791
 C     17  13  12     2.757130505230   111.08861209   183.82872609
 C     18  14  13     4.558465206823    27.27532823    36.33507194
 C     20  18  14     2.650705180609    87.95206320   148.94598259
 C     21  20  18     2.611803198586   120.14573887   359.70382047
 C     18  14  13     4.623235745386   144.15733107    82.80075377
 C     19  17  13     2.557953565794   106.29293361   359.75308708
 C     13  12   9     2.582903091751   172.21332906    33.46711076
 C     18  14  13     2.609636529225    15.08449437   309.23336894
 N     22  21  20     2.556370638369   120.73759875     0.27865223
 C     25  13  17     2.666210041769   125.60330303   182.37774668
 C     14  13  12     2.601476916169    80.24689249   177.85461986
 C     14  13  12    10.892550769017   164.51507311   312.20821879
 C     29  14  13     2.712892575415   106.58649366   178.76395472
 C     30  14  13     4.560507835333    27.10625047    82.12560436
 C     32  30  14     2.652673401891    87.90059683   149.76154742
 C     33  32  30     2.609133588376   120.14881443   359.74174632
 C     34  33  32     4.627519515267   152.49203239     2.45173620
 C     31  29  14     2.585449236669   108.16950133     0.70383075
 C     14  13  12     2.600716325456   169.26375223   353.09862627
 C     30  14  13     2.609536633043    14.68948582   353.70041132
 N     34  33  32     2.556154803934   120.85575621     0.19603406
 C     37  14  29     2.654530526499   126.01551127   180.90772073
 C     15  14  13     2.582293994346    81.61824056   183.09049352
 C      2   1   3     8.029564866989   154.30179358   148.95328308
 C     41  15  14     2.758391104639   111.05201287   175.08990246
 C     42   2   1     4.559821839776    41.78584867   209.90923607
 C     44  42   2     2.652129475853    87.95153797   233.97558675
 C     45  44  42     2.611027836043   120.11137308     0.19721020
 C     42   2   1     4.629866436820   135.97209175   120.22408517
 C     43  41  15     2.559561325344   106.26758155     0.30894352
 C     15  14  13     2.584127074516   171.87382904   332.35056460
 C     42   2   1     2.611386828803    32.59078432   258.76451526
 C      9   2   1     2.655043698059   126.98745415   175.19531930
 N     42   2   1     2.556355970587   113.57249190   147.96067436
 H      1   2   7     2.046924097785   160.49844823   198.26535841
 H      2   1   3     2.040730117440   126.81629363   201.66589664
 H      4   3   1     2.045564602509   121.08929664   179.52640588
 H      5   4   3     2.046067319615   122.79369772   179.47274281
 H      6   5   4     2.064221130759   104.43818679   100.11928471
 H      6   5   4     2.061149858343    84.67293346   209.55312427
 H      6   5   4     2.059455585037   133.85638637   322.30399423
 H      7   2  54     2.040541119952   126.66122480     1.30600390
 H     10   1   2     2.049081032209   118.77958870   200.97153249
 H     12   9   2     1.920524309565   125.29023241   180.00180175
 H     14  13  12     1.917952867083    44.97226959   359.42596618
 H     18  14  13     2.046330847636   128.03556573   234.20482432
 H     19  17  13     2.042592906181   126.41830519   178.11313280
 H     21  20  18     2.047649722989   121.05669627   180.67006309
 H     22  21  20     2.045596898814   122.73097286   180.59748951
 H     23  18  14     2.063779938267   103.92715769   234.93429879
 H     23  18  14     2.057669673245   134.19244188    12.25587044
 H     23  18  14     2.059486796529    84.85857450   125.45241208
 H     24  19  17     2.041046823986   127.28078426   178.44613241
 H     26  18  14     2.047344503340   118.76995697   244.94906660
 H     30  14  13     2.046012340948   127.99711412   279.66882698
 H     31  29  14     2.040450114918   125.22293469   180.92530585
 H     33  32  30     2.046930203877   121.01964473   180.74284758
 H     34  33  32     2.045617847496   122.70821597   180.59516895
 H     35  34  33     2.064814429233   105.73575241    97.19771933
 H     35  34  33     2.058786158072    84.05943581   206.43036958
 H     35  34  33     2.058418400901   133.08365142   318.50306270
 H     36  31  29     2.039845353366   126.61599965   178.98859863
 H     38  30  73     2.047975821711   118.77264435   359.90091293
 H     42   2   1     2.045020725966   119.31790784     4.59220482
 H     43  41  15     2.041436952892   126.36969097   182.06329380
 H     45  44  42     2.047097678177   121.10105945   179.58025624
 H     46  45  44     2.045051284662   122.72144639   179.46906377
 H     47  42   2     2.062723288131   106.65128841   315.16475048
 H     47  42   2     2.057569012371   132.46019523    94.52397119
 H     47  42   2     2.058915377895    83.63838232   206.04504406
 H     48  43  41     2.041664347903   127.23657387   181.62955349
 H     50  42   2     2.046925842384   118.77001737    94.71359229

---------------------
BASIS SET INFORMATION
---------------------
There are 3 groups of distinct atoms

 Group   1 Type C   : 17s4p1d contracted to 3s2p1d pattern {881/31/1}
 Group   2 Type N   : 17s4p1d contracted to 3s2p1d pattern {881/31/1}
 Group   3 Type H   : 4s1p contracted to 2s1p pattern {31/1}

Atom   0C    basis set group =>   1
Atom   1N    basis set group =>   2
Atom   2C    basis set group =>   1
Atom   3N    basis set group =>   2
Atom   4C    basis set group =>   1
Atom   5N    basis set group =>   2
Atom   6C    basis set group =>   1
Atom   7N    basis set group =>   2
Atom   8C    basis set group =>   1
Atom   9N    basis set group =>   2
Atom  10C    basis set group =>   1
Atom  11N    basis set group =>   2
Atom  12C    basis set group =>   1
Atom  13N    basis set group =>   2
Atom  14C    basis set group =>   1
Atom  15N    basis set group =>   2
Atom  16C    basis set group =>   1
Atom  17C    basis set group =>   1
Atom  18C    basis set group =>   1
Atom  19C    basis set group =>   1
Atom  20C    basis set group =>   1
Atom  21C    basis set group =>   1
Atom  22C    basis set group =>   1
Atom  23C    basis set group =>   1
Atom  24C    basis set group =>   1
Atom  25C    basis set group =>   1
Atom  26C    basis set group =>   1
Atom  27C    basis set group =>   1
Atom  28C    basis set group =>   1
Atom  29C    basis set group =>   1
Atom  30C    basis set group =>   1
Atom  31C    basis set group =>   1
Atom  32C    basis set group =>   1
Atom  33C    basis set group =>   1
Atom  34C    basis set group =>   1
Atom  35C    basis set group =>   1
Atom  36C    basis set group =>   1
Atom  37C    basis set group =>   1
Atom  38C    basis set group =>   1
Atom  39C    basis set group =>   1
Atom  40C    basis set group =>   1
Atom  41C    basis set group =>   1
Atom  42C    basis set group =>   1
Atom  43C    basis set group =>   1
Atom  44C    basis set group =>   1
Atom  45C    basis set group =>   1
Atom  46C    basis set group =>   1
Atom  47C    basis set group =>   1
Atom  48C    basis set group =>   1
Atom  49C    basis set group =>   1
Atom  50C    basis set group =>   1
Atom  51C    basis set group =>   1
Atom  52H    basis set group =>   3
Atom  53H    basis set group =>   3
Atom  54H    basis set group =>   3
Atom  55H    basis set group =>   3
Atom  56H    basis set group =>   3
Atom  57H    basis set group =>   3
Atom  58H    basis set group =>   3
Atom  59H    basis set group =>   3
Atom  60H    basis set group =>   3
Atom  61H    basis set group =>   3
Atom  62H    basis set group =>   3
Atom  63H    basis set group =>   3
Atom  64H    basis set group =>   3
Atom  65H    basis set group =>   3
Atom  66H    basis set group =>   3
Atom  67H    basis set group =>   3
Atom  68H    basis set group =>   3
Atom  69H    basis set group =>   3
Atom  70H    basis set group =>   3
Atom  71H    basis set group =>   3
Atom  72H    basis set group =>   3
Atom  73H    basis set group =>   3
Atom  74H    basis set group =>   3
Atom  75H    basis set group =>   3
Atom  76H    basis set group =>   3
Atom  77H    basis set group =>   3
Atom  78H    basis set group =>   3
Atom  79H    basis set group =>   3
Atom  80H    basis set group =>   3
Atom  81H    basis set group =>   3
Atom  82H    basis set group =>   3
Atom  83H    basis set group =>   3
Atom  84H    basis set group =>   3
Atom  85H    basis set group =>   3
Atom  86H    basis set group =>   3
Atom  87H    basis set group =>   3
Atom  88H    basis set group =>   3
Atom  89H    basis set group =>   3


           ************************************************************
           *        Program running with 16 parallel MPI-processes    *
           *              working on a common directory               *
           ************************************************************
------------------------------------------------------------------------------
                           ORCA GTO INTEGRAL CALCULATION
------------------------------------------------------------------------------
------------------------------------------------------------------------------
                   ___                                                        
                  /   \      - P O W E R E D   B Y -                         
                 /     \                                                     
                 |  |  |   _    _      __       _____    __    __             
                 |  |  |  | |  | |    /  \     |  _  \  |  |  /  |          
                  \  \/   | |  | |   /    \    | | | |  |  | /  /          
                 / \  \   | |__| |  /  /\  \   | |_| |  |  |/  /          
                |  |  |   |  __  | /  /__\  \  |    /   |      \           
                |  |  |   | |  | | |   __   |  |    \   |  |\   \          
                \     /   | |  | | |  |  |  |  | |\  \  |  | \   \       
                 \___/    |_|  |_| |__|  |__|  |_| \__\ |__|  \__/        
                                                                              
                      - O R C A' S   B I G   F R I E N D -                    
                                      &                                       
                       - I N T E G R A L  F E E D E R -                       
                                                                              
 v1 FN, 2020, v2 2021                                                         
------------------------------------------------------------------------------


Reading SHARK input file /scratch/allen/tmpyp4_amber_gaff2/conf1/conf1/Conf154.orca.SHARKINP.tmp ... ok
----------------------
SHARK INTEGRAL PACKAGE
----------------------

Number of atoms                             ...     90
Number of basis functions                   ...   1230
Number of shells                            ...    738
Maximum angular momentum                    ...      2
Integral batch strategy                     ... SHARK/LIBINT Hybrid
RI-J (if used) integral strategy            ... SPLIT-RIJ (Revised 2003 algorithm where possible)
Printlevel                                  ...      1
Contraction scheme used                     ... PARTIAL GENERAL contraction
Coulomb Range Separation                    ... NOT USED
Exchange Range Separation                   ... NOT USED
Finite Nucleus Model                        ... NOT USED
Auxiliary Coulomb fitting basis             ... NOT available
Auxiliary J/K fitting basis                 ... NOT available
Auxiliary Correlation fitting basis         ... NOT available
Auxiliary 'external' fitting basis          ... NOT available
Integral threshold                          ...     2.500000e-11
Primitive cut-off                           ...     2.500000e-12
Primitive pair pre-selection threshold      ...     2.500000e-12

Calculating pre-screening integrals         ... done (  0.1 sec) Dimension = 738
Calculating pre-screening integrals (ORCA)  ... done (  0.3 sec) Dimension = 426
Organizing shell pair data                  ... done (  0.7 sec)
Shell pair information
Total number of shell pairs                 ...    272691
Shell pairs after pre-screening             ...     71683
Total number of primitive shell pairs       ...    422091
Primitive shell pairs kept                  ...     92549
          la=0 lb=0:  29414 shell pairs
          la=1 lb=0:  26019 shell pairs
          la=1 lb=1:   4707 shell pairs
          la=2 lb=0:   7890 shell pairs
          la=2 lb=1:   3124 shell pairs
          la=2 lb=2:    529 shell pairs

Calculating one electron integrals          ... done (  0.2 sec)
Calculating Nuclear repulsion               ... done (  0.0 sec) ENN=   6232.017554605686 Eh

SHARK setup successfully completed in   2.4 seconds

Maximum memory used throughout the entire GTOINT-calculation: 99.1 MB


           ************************************************************
           *        Program running with 16 parallel MPI-processes    *
           *              working on a common directory               *
           ************************************************************
-------------------------------------------------------------------------------
                                 ORCA SCF
-------------------------------------------------------------------------------

------------
SCF SETTINGS
------------
Hamiltonian:
 Ab initio Hamiltonian  Method          .... Hartree-Fock(GTOs)


General Settings:
 Integral files         IntName         .... /scratch/allen/tmpyp4_amber_gaff2/conf1/conf1/Conf154.orca
 Hartree-Fock type      HFTyp           .... RHF
 Total Charge           Charge          ....    0
 Multiplicity           Mult            ....    1
 Number of Electrons    NEL             ....  358
 Basis Dimension        Dim             ....  918
 Nuclear Repulsion      ENuc            ....   6232.0175546057 Eh

Convergence Acceleration:
 DIIS                   CNVDIIS         .... on
   Start iteration      DIISMaxIt       ....    12
   Startup error        DIISStart       ....  0.200000
   # of expansion vecs  DIISMaxEq       ....     5
   Bias factor          DIISBfac        ....   1.050
   Max. coefficient     DIISMaxC        ....  10.000
 Trust-Rad. Augm. Hess. CNVTRAH         .... auto
   Auto Start mean grad. ratio tolernc. ....  1.125000
   Auto Start start iteration           ....    20
   Auto Start num. interpolation iter.  ....    10
   Max. Number of Micro iterations      ....    16
   Max. Number of Macro iterations      .... Maxiter - #DIIS iter
   Number of Davidson start vectors     ....     2
   Converg. threshold I  (grad. norm)   ....   1.000e-05
   Converg. threshold II (energy diff.) ....   1.000e-08
   Grad. Scal. Fac. for Micro threshold ....   0.100
   Minimum threshold for Micro iter.    ....   0.010
   NR start threshold (gradient norm)   ....   0.001
   Initial trust radius                 ....   0.400
   Minimum AH scaling param. (alpha)    ....   1.000
   Maximum AH scaling param. (alpha)    .... 1000.000
   Orbital update algorithm             .... Taylor
   White noise on init. David. guess    .... on
   Maximum white noise                  ....   0.010
   Quad. conv. algorithm                .... NR
 SOSCF                  CNVSOSCF        .... on
   Start iteration      SOSCFMaxIt      ....   150
   Startup grad/error   SOSCFStart      ....  0.003300
 Level Shifting         CNVShift        .... on
   Level shift para.    LevelShift      ....    0.2500
   Turn off err/grad.   ShiftErr        ....    0.0010
 Zerner damping         CNVZerner       .... off
 Static damping         CNVDamp         .... on
   Fraction old density DampFac         ....    0.7000
   Max. Damping (<1)    DampMax         ....    0.9800
   Min. Damping (>=0)   DampMin         ....    0.0000
   Turn off err/grad.   DampErr         ....    0.1000
 Fernandez-Rico         CNVRico         .... off

SCF Procedure:
 Maximum # iterations   MaxIter         ....   125
 SCF integral mode      SCFMode         .... Direct
   Integral package                     .... SHARK and LIBINT hybrid scheme
 Reset frequency        DirectResetFreq ....    20
 Integral Threshold     Thresh          ....  2.500e-11 Eh
 Primitive CutOff       TCut            ....  2.500e-12 Eh

Convergence Tolerance:
 Convergence Check Mode ConvCheckMode   .... Total+1el-Energy
 Convergence forced     ConvForced      .... 1
 Energy Change          TolE            ....  1.000e-08 Eh
 1-El. energy change                    ....  1.000e-05 Eh
 Orbital Gradient       TolG            ....  1.000e-05
 Orbital Rotation angle TolX            ....  1.000e-05
 DIIS Error             TolErr          ....  5.000e-07


Diagonalization of the overlap matrix:
Smallest eigenvalue                        ... 2.147e-04
Time for diagonalization                   ...    0.427 sec
Threshold for overlap eigenvalues          ... 1.000e-08
Number of eigenvalues below threshold      ... 0
Time for construction of square roots      ...    0.270 sec
Total time needed                          ...    0.704 sec

Time for model grid setup =    1.290 sec

------------------------------
INITIAL GUESS: MODEL POTENTIAL
------------------------------
Loading Hartree-Fock densities                     ... done
Calculating cut-offs                               ... done
Initializing the effective Hamiltonian             ... done
Setting up the integral package (SHARK)            ... done
Starting the Coulomb interaction                   ... done (   1.4 sec)
Reading the grid                                   ... done
Mapping shells                                     ... done
Starting the XC term evaluation                    ... done (   0.2 sec)
Transforming the Hamiltonian                       ... done (   0.3 sec)
Diagonalizing the Hamiltonian                      ... done (   0.4 sec)
Back transforming the eigenvectors                 ... done (   0.1 sec)
Now organizing SCF variables                       ... done
                      ------------------
                      INITIAL GUESS DONE (   3.8 sec)
                      ------------------
--------------
SCF ITERATIONS
--------------
ITER       Energy         Delta-E        Max-DP      RMS-DP      [F,P]     Damp
               ***  Starting incremental Fock matrix formation  ***
  0  -2121.6847664451   0.000000000000 0.08197834  0.00122317  0.2318003 0.7000
  1  -2122.3358804053  -0.651113960146 0.06164351  0.00099470  0.1436896 0.7000
                               ***Turning on DIIS***
  2  -2122.7411248246  -0.405244419379 0.14326495  0.00226069  0.0802657 0.0000
  3  -2117.9863669893   4.754757835331 0.03478627  0.00066954  0.0437295 0.0000
  4  -2123.4233041964  -5.436937207136 0.01113880  0.00022496  0.0084913 0.0000
  5  -2123.5733830276  -0.150078831159 0.00548849  0.00013196  0.0049507 0.0000
  6  -2123.5573160568   0.016066970833 0.00364914  0.00008479  0.0020597 0.0000
  7  -2123.6531698537  -0.095853796904 0.00312432  0.00006688  0.0015967 0.0000
  8  -2123.6627450565  -0.009575202852 0.00330048  0.00006345  0.0014873 0.0000
  9  -2123.6333948342   0.029350222292 0.00263581  0.00004469  0.0011919 0.0000
 10  -2123.6423208638  -0.008926029543 0.00531192  0.00009366  0.0009247 0.0000
                      *** Initiating the SOSCF procedure ***
                           *** Shutting down DIIS ***
                      *** Re-Reading the Fockian *** 
                      *** Removing any level shift *** 
ITER      Energy       Delta-E        Grad      Rot      Max-DP    RMS-DP
 11  -2123.53435833   0.1079625372  0.000178  0.000178  0.000240  0.000005
               *** Restarting incremental Fock matrix formation ***
 12  -2123.60032797  -0.0659696434  0.000855  0.006349  0.001428  0.000035
 13  -2123.60043504  -0.0001070699  0.001070  0.031934  0.006664  0.000137
 14  -2123.60061908  -0.0001840368  0.000352  0.001591  0.000624  0.000012
 15  -2123.60063440  -0.0000153194  0.000153  0.001909  0.000649  0.000015
 16  -2123.60064258  -0.0000081833  0.000154  0.002589  0.000460  0.000009
 17  -2123.60064518  -0.0000026020  0.000116  0.001799  0.000293  0.000006
 18  -2123.60064647  -0.0000012856  0.000063  0.000581  0.000257  0.000003
 19  -2123.60064705  -0.0000005799  0.000041  0.000590  0.000155  0.000003
 20  -2123.60064726  -0.0000002175  0.000020  0.000330  0.000090  0.000002
 21  -2123.60064736  -0.0000000936  0.000019  0.000394  0.000100  0.000002
 22  -2123.60064743  -0.0000000704  0.000015  0.000389  0.000082  0.000001
 23  -2123.60064747  -0.0000000458  0.000008  0.000270  0.000055  0.000001
 24  -2123.60064750  -0.0000000267  0.000005  0.000229  0.000040  0.000001
 25  -2123.60064752  -0.0000000188  0.000005  0.000151  0.000024  0.000001
 26  -2123.60064753  -0.0000000120  0.000004  0.000154  0.000024  0.000001
 27  -2123.60064754  -0.0000000098  0.000003  0.000133  0.000021  0.000000
                  ***Gradient check signals convergence***
              ***Rediagonalizing the Fockian in SOSCF/NRSCF***

               *****************************************************
               *                     SUCCESS                       *
               *           SCF CONVERGED AFTER  28 CYCLES          *
               *****************************************************


----------------
TOTAL SCF ENERGY
----------------

Total Energy       :        -2123.60064754 Eh          -57786.11141 eV

Components:
Nuclear Repulsion  :         6232.01755461 Eh          169581.81903 eV
Electronic Energy  :        -8355.61820215 Eh         -227367.93044 eV
One Electron Energy:       -15304.77789364 Eh         -416464.17912 eV
Two Electron Energy:         6949.15969149 Eh          189096.24867 eV

Virial components:
Potential Energy   :        -4245.82117437 Eh         -115534.66782 eV
Kinetic Energy     :         2122.22052682 Eh           57748.55641 eV
Virial Ratio       :            2.00065032


---------------
SCF CONVERGENCE
---------------

  Last Energy change         ...   -3.4161e-09  Tolerance :   1.0000e-08
  Last MAX-Density change    ...    1.2551e-05  Tolerance :   1.0000e-07
  Last RMS-Density change    ...    2.8082e-07  Tolerance :   5.0000e-09
  Last Orbital Gradient      ...    1.9454e-06  Tolerance :   1.0000e-05
  Last Orbital Rotation      ...    8.5672e-05  Tolerance :   1.0000e-05

             **** THE GBW FILE WAS UPDATED (/scratch/allen/tmpyp4_amber_gaff2/conf1/conf1/Conf154.orca.gbw) ****
             **** DENSITY /scratch/allen/tmpyp4_amber_gaff2/conf1/conf1/Conf154.orca.scfp WAS UPDATED ****
             **** ENERGY FILE WAS UPDATED (/scratch/allen/tmpyp4_amber_gaff2/conf1/conf1/Conf154.orca.en.tmp) ****
             **** THE GBW FILE WAS UPDATED (/scratch/allen/tmpyp4_amber_gaff2/conf1/conf1/Conf154.orca.gbw) ****
             **** DENSITY /scratch/allen/tmpyp4_amber_gaff2/conf1/conf1/Conf154.orca.scfp WAS UPDATED ****
----------------
ORBITAL ENERGIES
----------------

  NO   OCC          E(Eh)            E(eV) 
   0   2.0000     -15.675289      -426.5463 
   1   2.0000     -15.636928      -425.5024 
   2   2.0000     -15.629041      -425.2878 
   3   2.0000     -15.588903      -424.1956 
   4   2.0000     -15.525473      -422.4696 
   5   2.0000     -15.515753      -422.2051 
   6   2.0000     -15.452355      -420.4800 
   7   2.0000     -15.442219      -420.2041 
   8   2.0000     -11.326088      -308.1985 
   9   2.0000     -11.325152      -308.1731 
  10   2.0000     -11.324142      -308.1456 
  11   2.0000     -11.301169      -307.5204 
  12   2.0000     -11.296591      -307.3959 
  13   2.0000     -11.295230      -307.3588 
  14   2.0000     -11.289489      -307.2026 
  15   2.0000     -11.288570      -307.1776 
  16   2.0000     -11.284382      -307.0637 
  17   2.0000     -11.277852      -306.8860 
  18   2.0000     -11.271865      -306.7230 
  19   2.0000     -11.260254      -306.4071 
  20   2.0000     -11.259300      -306.3811 
  21   2.0000     -11.254181      -306.2418 
  22   2.0000     -11.252797      -306.2042 
  23   2.0000     -11.240609      -305.8725 
  24   2.0000     -11.233885      -305.6896 
  25   2.0000     -11.233431      -305.6772 
  26   2.0000     -11.232836      -305.6610 
  27   2.0000     -11.227667      -305.5204 
  28   2.0000     -11.227347      -305.5116 
  29   2.0000     -11.211244      -305.0735 
  30   2.0000     -11.209745      -305.0327 
  31   2.0000     -11.197843      -304.7088 
  32   2.0000     -11.189665      -304.4863 
  33   2.0000     -11.189523      -304.4824 
  34   2.0000     -11.188974      -304.4675 
  35   2.0000     -11.188714      -304.4604 
  36   2.0000     -11.188518      -304.4551 
  37   2.0000     -11.185581      -304.3751 
  38   2.0000     -11.184437      -304.3440 
  39   2.0000     -11.174397      -304.0708 
  40   2.0000     -11.174021      -304.0606 
  41   2.0000     -11.169040      -303.9250 
  42   2.0000     -11.168810      -303.9188 
  43   2.0000     -11.161156      -303.7105 
  44   2.0000     -11.159382      -303.6622 
  45   2.0000     -11.159026      -303.6525 
  46   2.0000     -11.157155      -303.6016 
  47   2.0000     -11.153792      -303.5101 
  48   2.0000     -11.146749      -303.3185 
  49   2.0000     -11.138165      -303.0849 
  50   2.0000     -11.132761      -302.9378 
  51   2.0000     -11.123235      -302.6786 
  52   2.0000      -1.356552       -36.9137 
  53   2.0000      -1.323786       -36.0220 
  54   2.0000      -1.317203       -35.8429 
  55   2.0000      -1.283022       -34.9128 
  56   2.0000      -1.226346       -33.3706 
  57   2.0000      -1.210042       -32.9269 
  58   2.0000      -1.171346       -31.8739 
  59   2.0000      -1.152555       -31.3626 
  60   2.0000      -1.140431       -31.0327 
  61   2.0000      -1.112352       -30.2686 
  62   2.0000      -1.106988       -30.1227 
  63   2.0000      -1.079320       -29.3698 
  64   2.0000      -1.078533       -29.3484 
  65   2.0000      -1.047880       -28.5143 
  66   2.0000      -1.041975       -28.3536 
  67   2.0000      -1.039082       -28.2749 
  68   2.0000      -1.015212       -27.6253 
  69   2.0000      -1.012365       -27.5478 
  70   2.0000      -1.009119       -27.4595 
  71   2.0000      -0.993663       -27.0390 
  72   2.0000      -0.986321       -26.8392 
  73   2.0000      -0.980646       -26.6847 
  74   2.0000      -0.971890       -26.4465 
  75   2.0000      -0.960484       -26.1361 
  76   2.0000      -0.953110       -25.9355 
  77   2.0000      -0.946012       -25.7423 
  78   2.0000      -0.935019       -25.4432 
  79   2.0000      -0.918653       -24.9978 
  80   2.0000      -0.907346       -24.6901 
  81   2.0000      -0.894314       -24.3355 
  82   2.0000      -0.875552       -23.8250 
  83   2.0000      -0.873064       -23.7573 
  84   2.0000      -0.868037       -23.6205 
  85   2.0000      -0.856623       -23.3099 
  86   2.0000      -0.839171       -22.8350 
  87   2.0000      -0.836672       -22.7670 
  88   2.0000      -0.824018       -22.4227 
  89   2.0000      -0.797683       -21.7061 
  90   2.0000      -0.790888       -21.5212 
  91   2.0000      -0.751248       -20.4425 
  92   2.0000      -0.742972       -20.2173 
  93   2.0000      -0.733574       -19.9616 
  94   2.0000      -0.724753       -19.7215 
  95   2.0000      -0.721651       -19.6371 
  96   2.0000      -0.716091       -19.4858 
  97   2.0000      -0.711871       -19.3710 
  98   2.0000      -0.706731       -19.2311 
  99   2.0000      -0.697299       -18.9745 
 100   2.0000      -0.696166       -18.9436 
 101   2.0000      -0.684460       -18.6251 
 102   2.0000      -0.681324       -18.5398 
 103   2.0000      -0.679673       -18.4948 
 104   2.0000      -0.677433       -18.4339 
 105   2.0000      -0.672107       -18.2890 
 106   2.0000      -0.669587       -18.2204 
 107   2.0000      -0.661276       -17.9942 
 108   2.0000      -0.655168       -17.8280 
 109   2.0000      -0.654333       -17.8053 
 110   2.0000      -0.649382       -17.6706 
 111   2.0000      -0.643309       -17.5053 
 112   2.0000      -0.642832       -17.4923 
 113   2.0000      -0.639634       -17.4053 
 114   2.0000      -0.637000       -17.3337 
 115   2.0000      -0.626515       -17.0483 
 116   2.0000      -0.623204       -16.9583 
 117   2.0000      -0.617996       -16.8165 
 118   2.0000      -0.614689       -16.7265 
 119   2.0000      -0.613240       -16.6871 
 120   2.0000      -0.609395       -16.5825 
 121   2.0000      -0.608469       -16.5573 
 122   2.0000      -0.599383       -16.3100 
 123   2.0000      -0.586392       -15.9565 
 124   2.0000      -0.583150       -15.8683 
 125   2.0000      -0.580484       -15.7958 
 126   2.0000      -0.578676       -15.7466 
 127   2.0000      -0.575660       -15.6645 
 128   2.0000      -0.567866       -15.4524 
 129   2.0000      -0.558923       -15.2091 
 130   2.0000      -0.550593       -14.9824 
 131   2.0000      -0.547636       -14.9019 
 132   2.0000      -0.543644       -14.7933 
 133   2.0000      -0.541534       -14.7359 
 134   2.0000      -0.539621       -14.6838 
 135   2.0000      -0.534371       -14.5410 
 136   2.0000      -0.527698       -14.3594 
 137   2.0000      -0.521633       -14.1943 
 138   2.0000      -0.518392       -14.1062 
 139   2.0000      -0.513813       -13.9816 
 140   2.0000      -0.512056       -13.9338 
 141   2.0000      -0.510517       -13.8919 
 142   2.0000      -0.510425       -13.8894 
 143   2.0000      -0.503922       -13.7124 
 144   2.0000      -0.500355       -13.6154 
 145   2.0000      -0.496193       -13.5021 
 146   2.0000      -0.493609       -13.4318 
 147   2.0000      -0.483059       -13.1447 
 148   2.0000      -0.478424       -13.0186 
 149   2.0000      -0.466855       -12.7038 
 150   2.0000      -0.466065       -12.6823 
 151   2.0000      -0.457185       -12.4406 
 152   2.0000      -0.450171       -12.2498 
 153   2.0000      -0.446005       -12.1364 
 154   2.0000      -0.441559       -12.0154 
 155   2.0000      -0.428724       -11.6662 
 156   2.0000      -0.427952       -11.6452 
 157   2.0000      -0.418150       -11.3784 
 158   2.0000      -0.406425       -11.0594 
 159   2.0000      -0.387173       -10.5355 
 160   2.0000      -0.384688       -10.4679 
 161   2.0000      -0.378235       -10.2923 
 162   2.0000      -0.371312       -10.1039 
 163   2.0000      -0.358719        -9.7612 
 164   2.0000      -0.353919        -9.6306 
 165   2.0000      -0.340239        -9.2584 
 166   2.0000      -0.337805        -9.1921 
 167   2.0000      -0.326762        -8.8917 
 168   2.0000      -0.323101        -8.7920 
 169   2.0000      -0.305396        -8.3103 
 170   2.0000      -0.299432        -8.1480 
 171   2.0000      -0.285412        -7.7664 
 172   2.0000      -0.281062        -7.6481 
 173   2.0000      -0.262276        -7.1369 
 174   2.0000      -0.242983        -6.6119 
 175   2.0000      -0.190050        -5.1715 
 176   2.0000      -0.180501        -4.9117 
 177   2.0000      -0.076943        -2.0937 
 178   2.0000      -0.058724        -1.5980 
 179   0.0000       0.028292         0.7699 
 180   0.0000       0.065848         1.7918 
 181   0.0000       0.091158         2.4805 
 182   0.0000       0.109028         2.9668 
 183   0.0000       0.111270         3.0278 
 184   0.0000       0.135159         3.6779 
 185   0.0000       0.141073         3.8388 
 186   0.0000       0.143273         3.8986 
 187   0.0000       0.163404         4.4465 
 188   0.0000       0.164407         4.4738 
 189   0.0000       0.167169         4.5489 
 190   0.0000       0.171390         4.6638 
 191   0.0000       0.182717         4.9720 
 192   0.0000       0.186140         5.0651 
 193   0.0000       0.187864         5.1120 
 194   0.0000       0.203202         5.5294 
 195   0.0000       0.206537         5.6202 
 196   0.0000       0.207165         5.6372 
 197   0.0000       0.210261         5.7215 
 198   0.0000       0.218698         5.9511 
 199   0.0000       0.227672         6.1953 
 200   0.0000       0.232742         6.3332 
 201   0.0000       0.235798         6.4164 
 202   0.0000       0.238005         6.4764 
 203   0.0000       0.240975         6.5573 
 204   0.0000       0.247383         6.7316 
 205   0.0000       0.255322         6.9477 
 206   0.0000       0.256627         6.9832 
 207   0.0000       0.257919         7.0183 
 208   0.0000       0.259931         7.0731 
 209   0.0000       0.260946         7.1007 
 210   0.0000       0.263915         7.1815 
 211   0.0000       0.267765         7.2863 
 212   0.0000       0.270860         7.3705 
 213   0.0000       0.271488         7.3876 
 214   0.0000       0.272419         7.4129 
 215   0.0000       0.276783         7.5316 
 216   0.0000       0.278571         7.5803 
 217   0.0000       0.280456         7.6316 
 218   0.0000       0.285346         7.7647 
 219   0.0000       0.288500         7.8505 
 220   0.0000       0.289172         7.8688 
 221   0.0000       0.292666         7.9639 
 222   0.0000       0.294158         8.0044 
 223   0.0000       0.295287         8.0352 
 224   0.0000       0.298984         8.1358 
 225   0.0000       0.300101         8.1662 
 226   0.0000       0.305260         8.3065 
 227   0.0000       0.308821         8.4034 
 228   0.0000       0.310052         8.4369 
 229   0.0000       0.323704         8.8084 
 230   0.0000       0.327125         8.9015 
 231   0.0000       0.332035         9.0351 
 232   0.0000       0.337600         9.1866 
 233   0.0000       0.341947         9.3049 
 234   0.0000       0.349905         9.5214 
 235   0.0000       0.355717         9.6796 
 236   0.0000       0.374544        10.1919 
 237   0.0000       0.377267        10.2660 
 238   0.0000       0.392822        10.6892 
 239   0.0000       0.396329        10.7847 
 240   0.0000       0.400684        10.9032 
 241   0.0000       0.409989        11.1564 
 242   0.0000       0.414002        11.2656 
 243   0.0000       0.419501        11.4152 
 244   0.0000       0.427661        11.6372 
 245   0.0000       0.434518        11.8238 
 246   0.0000       0.437310        11.8998 
 247   0.0000       0.439026        11.9465 
 248   0.0000       0.443049        12.0560 
 249   0.0000       0.448953        12.2166 
 250   0.0000       0.458512        12.4767 
 251   0.0000       0.460537        12.5319 
 252   0.0000       0.469185        12.7672 
 253   0.0000       0.469731        12.7820 
 254   0.0000       0.471912        12.8414 
 255   0.0000       0.475518        12.9395 
 256   0.0000       0.476851        12.9758 
 257   0.0000       0.481450        13.1009 
 258   0.0000       0.486556        13.2399 
 259   0.0000       0.497167        13.5286 
 260   0.0000       0.503285        13.6951 
 261   0.0000       0.504349        13.7240 
 262   0.0000       0.507595        13.8124 
 263   0.0000       0.509271        13.8580 
 264   0.0000       0.514568        14.0021 
 265   0.0000       0.518308        14.1039 
 266   0.0000       0.524620        14.2756 
 267   0.0000       0.529243        14.4014 
 268   0.0000       0.533839        14.5265 
 269   0.0000       0.536376        14.5955 
 270   0.0000       0.539513        14.6809 
 271   0.0000       0.547254        14.8915 
 272   0.0000       0.555316        15.1109 
 273   0.0000       0.558398        15.1948 
 274   0.0000       0.561897        15.2900 
 275   0.0000       0.564478        15.3602 
 276   0.0000       0.570347        15.5199 
 277   0.0000       0.571354        15.5473 
 278   0.0000       0.577807        15.7229 
 279   0.0000       0.587040        15.9742 
 280   0.0000       0.589422        16.0390 
 281   0.0000       0.592072        16.1111 
 282   0.0000       0.594108        16.1665 
 283   0.0000       0.595716        16.2103 
 284   0.0000       0.596694        16.2369 
 285   0.0000       0.598716        16.2919 
 286   0.0000       0.607960        16.5434 
 287   0.0000       0.611875        16.6500 
 288   0.0000       0.618384        16.8271 
 289   0.0000       0.623458        16.9652 
 290   0.0000       0.626828        17.0569 
 291   0.0000       0.630514        17.1572 
 292   0.0000       0.634341        17.2613 
 293   0.0000       0.637935        17.3591 
 294   0.0000       0.645329        17.5603 
 295   0.0000       0.649337        17.6694 
 296   0.0000       0.653535        17.7836 
 297   0.0000       0.656054        17.8521 
 298   0.0000       0.663401        18.0521 
 299   0.0000       0.667716        18.1695 
 300   0.0000       0.670538        18.2463 
 301   0.0000       0.674991        18.3674 
 302   0.0000       0.676370        18.4050 
 303   0.0000       0.678660        18.4673 
 304   0.0000       0.681125        18.5344 
 305   0.0000       0.685413        18.6510 
 306   0.0000       0.688862        18.7449 
 307   0.0000       0.690603        18.7923 
 308   0.0000       0.695625        18.9289 
 309   0.0000       0.697903        18.9909 
 310   0.0000       0.701861        19.0986 
 311   0.0000       0.704473        19.1697 
 312   0.0000       0.708876        19.2895 
 313   0.0000       0.710401        19.3310 
 314   0.0000       0.710509        19.3339 
 315   0.0000       0.714960        19.4551 
 316   0.0000       0.716749        19.5037 
 317   0.0000       0.718988        19.5646 
 318   0.0000       0.721547        19.6343 
 319   0.0000       0.724636        19.7184 
 320   0.0000       0.726740        19.7756 
 321   0.0000       0.731334        19.9006 
 322   0.0000       0.732959        19.9448 
 323   0.0000       0.733194        19.9512 
 324   0.0000       0.735682        20.0189 
 325   0.0000       0.739856        20.1325 
 326   0.0000       0.744875        20.2691 
 327   0.0000       0.746725        20.3194 
 328   0.0000       0.750083        20.4108 
 329   0.0000       0.752746        20.4833 
 330   0.0000       0.754624        20.5344 
 331   0.0000       0.757415        20.6103 
 332   0.0000       0.760756        20.7012 
 333   0.0000       0.763355        20.7719 
 334   0.0000       0.767385        20.8816 
 335   0.0000       0.772148        21.0112 
 336   0.0000       0.776737        21.1361 
 337   0.0000       0.782483        21.2924 
 338   0.0000       0.783701        21.3256 
 339   0.0000       0.787952        21.4413 
 340   0.0000       0.793525        21.5929 
 341   0.0000       0.794654        21.6236 
 342   0.0000       0.795467        21.6458 
 343   0.0000       0.802384        21.8340 
 344   0.0000       0.804453        21.8903 
 345   0.0000       0.805763        21.9259 
 346   0.0000       0.807978        21.9862 
 347   0.0000       0.812229        22.1019 
 348   0.0000       0.815833        22.2000 
 349   0.0000       0.817269        22.2390 
 350   0.0000       0.819022        22.2867 
 351   0.0000       0.819990        22.3131 
 352   0.0000       0.822026        22.3685 
 353   0.0000       0.823549        22.4099 
 354   0.0000       0.829682        22.5768 
 355   0.0000       0.832677        22.6583 
 356   0.0000       0.834499        22.7079 
 357   0.0000       0.835523        22.7357 
 358   0.0000       0.836453        22.7610 
 359   0.0000       0.838895        22.8275 
 360   0.0000       0.842210        22.9177 
 361   0.0000       0.843699        22.9582 
 362   0.0000       0.844625        22.9834 
 363   0.0000       0.845251        23.0005 
 364   0.0000       0.849188        23.1076 
 365   0.0000       0.853666        23.2294 
 366   0.0000       0.857968        23.3465 
 367   0.0000       0.861965        23.4553 
 368   0.0000       0.863855        23.5067 
 369   0.0000       0.865112        23.5409 
 370   0.0000       0.870506        23.6877 
 371   0.0000       0.871463        23.7137 
 372   0.0000       0.874578        23.7985 
 373   0.0000       0.879395        23.9295 
 374   0.0000       0.879958        23.9449 
 375   0.0000       0.882302        24.0087 
 376   0.0000       0.886160        24.1136 
 377   0.0000       0.889063        24.1926 
 378   0.0000       0.892359        24.2823 
 379   0.0000       0.893521        24.3140 
 380   0.0000       0.896390        24.3920 
 381   0.0000       0.898751        24.4562 
 382   0.0000       0.900388        24.5008 
 383   0.0000       0.901886        24.5416 
 384   0.0000       0.903942        24.5975 
 385   0.0000       0.906262        24.6606 
 386   0.0000       0.907176        24.6855 
 387   0.0000       0.909405        24.7462 
 388   0.0000       0.912356        24.8265 
 389   0.0000       0.915248        24.9052 
 390   0.0000       0.920423        25.0460 
 391   0.0000       0.923975        25.1426 
 392   0.0000       0.926054        25.1992 
 393   0.0000       0.927592        25.2411 
 394   0.0000       0.928334        25.2613 
 395   0.0000       0.930926        25.3318 
 396   0.0000       0.932198        25.3664 
 397   0.0000       0.934147        25.4194 
 398   0.0000       0.942301        25.6413 
 399   0.0000       0.943004        25.6604 
 400   0.0000       0.946185        25.7470 
 401   0.0000       0.952068        25.9071 
 402   0.0000       0.952962        25.9314 
 403   0.0000       0.953666        25.9506 
 404   0.0000       0.960585        26.1389 
 405   0.0000       0.964639        26.2492 
 406   0.0000       0.967135        26.3171 
 407   0.0000       0.970786        26.4164 
 408   0.0000       0.973860        26.5001 
 409   0.0000       0.979753        26.6604 
 410   0.0000       0.981203        26.6999 
 411   0.0000       0.985366        26.8132 
 412   0.0000       0.991767        26.9874 
 413   0.0000       0.999662        27.2022 
 414   0.0000       1.001267        27.2459 
 415   0.0000       1.007815        27.4240 
 416   0.0000       1.008378        27.4394 
 417   0.0000       1.011641        27.5281 
 418   0.0000       1.017148        27.6780 
 419   0.0000       1.023327        27.8461 
 420   0.0000       1.030116        28.0309 
 421   0.0000       1.031061        28.0566 
 422   0.0000       1.042858        28.3776 
 423   0.0000       1.045106        28.4388 
 424   0.0000       1.051073        28.6011 
 425   0.0000       1.059081        28.8191 
 426   0.0000       1.065702        28.9992 
 427   0.0000       1.068795        29.0834 
 428   0.0000       1.074527        29.2394 
 429   0.0000       1.079145        29.3650 
 430   0.0000       1.080882        29.4123 
 431   0.0000       1.084108        29.5001 
 432   0.0000       1.088494        29.6194 
 433   0.0000       1.093595        29.7582 
 434   0.0000       1.096460        29.8362 
 435   0.0000       1.104833        30.0640 
 436   0.0000       1.106949        30.1216 
 437   0.0000       1.111395        30.2426 
 438   0.0000       1.117491        30.4085 
 439   0.0000       1.119822        30.4719 
 440   0.0000       1.121380        30.5143 
 441   0.0000       1.121709        30.5233 
 442   0.0000       1.125710        30.6321 
 443   0.0000       1.129007        30.7218 
 444   0.0000       1.131509        30.7899 
 445   0.0000       1.134268        30.8650 
 446   0.0000       1.140931        31.0463 
 447   0.0000       1.147082        31.2137 
 448   0.0000       1.149351        31.2754 
 449   0.0000       1.151850        31.3434 
 450   0.0000       1.153393        31.3854 
 451   0.0000       1.155404        31.4401 
 452   0.0000       1.161728        31.6122 
 453   0.0000       1.165178        31.7061 
 454   0.0000       1.167525        31.7700 
 455   0.0000       1.172094        31.8943 
 456   0.0000       1.173862        31.9424 
 457   0.0000       1.179678        32.1007 
 458   0.0000       1.185312        32.2540 
 459   0.0000       1.189835        32.3771 
 460   0.0000       1.193930        32.4885 
 461   0.0000       1.198295        32.6073 
 462   0.0000       1.201518        32.6950 
 463   0.0000       1.203893        32.7596 
 464   0.0000       1.206967        32.8432 
 465   0.0000       1.208105        32.8742 
 466   0.0000       1.212733        33.0001 
 467   0.0000       1.217946        33.1420 
 468   0.0000       1.220097        33.2005 
 469   0.0000       1.226978        33.3878 
 470   0.0000       1.229072        33.4448 
 471   0.0000       1.233515        33.5657 
 472   0.0000       1.234447        33.5910 
 473   0.0000       1.236466        33.6459 
 474   0.0000       1.242284        33.8043 
 475   0.0000       1.242879        33.8205 
 476   0.0000       1.248249        33.9666 
 477   0.0000       1.251794        34.0630 
 478   0.0000       1.253943        34.1215 
 479   0.0000       1.254396        34.1338 
 480   0.0000       1.259053        34.2606 
 481   0.0000       1.262318        34.3494 
 482   0.0000       1.270580        34.5743 
 483   0.0000       1.272534        34.6274 
 484   0.0000       1.274168        34.6719 
 485   0.0000       1.278385        34.7866 
 486   0.0000       1.282787        34.9064 
 487   0.0000       1.284763        34.9602 
 488   0.0000       1.289771        35.0965 
 489   0.0000       1.292547        35.1720 
 490   0.0000       1.294941        35.2371 
 491   0.0000       1.296945        35.2917 
 492   0.0000       1.300932        35.4002 
 493   0.0000       1.303526        35.4707 
 494   0.0000       1.310983        35.6737 
 495   0.0000       1.313816        35.7507 
 496   0.0000       1.318434        35.8764 
 497   0.0000       1.322549        35.9884 
 498   0.0000       1.324142        36.0317 
 499   0.0000       1.326992        36.1093 
 500   0.0000       1.330076        36.1932 
 501   0.0000       1.335692        36.3460 
 502   0.0000       1.338725        36.4286 
 503   0.0000       1.343891        36.5691 
 504   0.0000       1.346018        36.6270 
 505   0.0000       1.349207        36.7138 
 506   0.0000       1.350705        36.7545 
 507   0.0000       1.355452        36.8837 
 508   0.0000       1.359836        37.0030 
 509   0.0000       1.362679        37.0804 
[...]
      pz      :     0.022102  p :     0.079766
      px      :     0.043590
      py      :     0.014074
 77 H s       :     0.884986  s :     0.884986
      pz      :     0.047948  p :     0.079253
      px      :     0.015022
      py      :     0.016283
 78 H s       :     0.885395  s :     0.885395
      pz      :     0.025864  p :     0.079210
      px      :     0.020464
      py      :     0.032882
 79 H s       :     0.910300  s :     0.910300
      pz      :     0.021831  p :     0.086377
      px      :     0.021672
      py      :     0.042874
 80 H s       :     0.865168  s :     0.865168
      pz      :     0.039337  p :     0.084770
      px      :     0.030260
      py      :     0.015173
 81 H s       :     0.887109  s :     0.887109
      pz      :     0.037800  p :     0.084094
      px      :     0.016194
      py      :     0.030099
 82 H s       :     0.916168  s :     0.916168
      pz      :     0.021988  p :     0.086728
      px      :     0.031614
      py      :     0.033126
 83 H s       :     0.873803  s :     0.873803
      pz      :     0.039231  p :     0.084041
      px      :     0.015284
      py      :     0.029526
 84 H s       :     0.887143  s :     0.887143
      pz      :     0.035743  p :     0.083464
      px      :     0.031683
      py      :     0.016038
 85 H s       :     0.893288  s :     0.893288
      pz      :     0.022482  p :     0.079765
      px      :     0.014085
      py      :     0.043198
 86 H s       :     0.891252  s :     0.891252
      pz      :     0.024720  p :     0.078807
      px      :     0.032962
      py      :     0.021125
 87 H s       :     0.890097  s :     0.890097
      pz      :     0.047994  p :     0.078717
      px      :     0.015587
      py      :     0.015135
 88 H s       :     0.910842  s :     0.910842
      pz      :     0.021702  p :     0.087038
      px      :     0.042883
      py      :     0.022453
 89 H s       :     0.871374  s :     0.871374
      pz      :     0.037941  p :     0.083829
      px      :     0.030472
      py      :     0.015417


                      *****************************
                      * MAYER POPULATION ANALYSIS *
                      *****************************

  NA   - Mulliken gross atomic population
  ZA   - Total nuclear charge
  QA   - Mulliken gross atomic charge
  VA   - Mayer's total valence
  BVA  - Mayer's bonded valence
  FA   - Mayer's free valence

  ATOM       NA         ZA         QA         VA         BVA        FA
  0 C      5.7911     6.0000     0.2089     3.8408     3.8408     0.0000
  1 N      7.4560     7.0000    -0.4560     3.3302     3.3302    -0.0000
  2 C      6.0698     6.0000    -0.0698     3.9213     3.9213     0.0000
  3 N      7.3379     7.0000    -0.3379     3.4596     3.4596     0.0000
  4 C      6.0557     6.0000    -0.0557     4.0447     4.0447     0.0000
  5 N      7.5630     7.0000    -0.5630     3.0963     3.0963    -0.0000
  6 C      6.1216     6.0000    -0.1216     3.9886     3.9886    -0.0000
  7 N      7.3405     7.0000    -0.3405     3.4334     3.4334    -0.0000
  8 C      5.7899     6.0000     0.2101     3.8448     3.8448     0.0000
  9 N      7.5626     7.0000    -0.5626     3.0782     3.0782    -0.0000
 10 C      5.8814     6.0000     0.1186     3.9094     3.9094     0.0000
 11 N      7.4379     7.0000    -0.4379     3.3812     3.3812     0.0000
 12 C      6.0772     6.0000    -0.0772     3.8871     3.8871    -0.0000
 13 N      7.4304     7.0000    -0.4304     3.4235     3.4235     0.0000
 14 C      5.7819     6.0000     0.2181     3.7859     3.7859     0.0000
 15 N      7.4415     7.0000    -0.4415     3.3696     3.3696    -0.0000
 16 C      5.7693     6.0000     0.2307     3.7779     3.7779     0.0000
 17 C      6.1192     6.0000    -0.1192     3.9899     3.9899     0.0000
 18 C      6.1585     6.0000    -0.1585     3.7528     3.7528     0.0000
 19 C      5.7947     6.0000     0.2053     3.8654     3.8654     0.0000
 20 C      5.7857     6.0000     0.2143     3.8284     3.8284    -0.0000
 21 C      6.0901     6.0000    -0.0901     3.8857     3.8857    -0.0000
 22 C      6.0890     6.0000    -0.0890     3.9818     3.9818     0.0000
 23 C      6.0405     6.0000    -0.0405     3.9923     3.9923     0.0000
 24 C      5.8042     6.0000     0.1958     3.8213     3.8213     0.0000
 25 C      5.8858     6.0000     0.1142     3.8905     3.8905     0.0000
 26 C      6.0804     6.0000    -0.0804     3.9059     3.9059     0.0000
 27 C      5.7875     6.0000     0.2125     3.8625     3.8625     0.0000
 28 C      6.0606     6.0000    -0.0606     3.9888     3.9888    -0.0000
 29 C      6.1813     6.0000    -0.1813     3.7458     3.7458     0.0000
 30 C      5.7550     6.0000     0.2450     3.7982     3.7982     0.0000
 31 C      5.7706     6.0000     0.2294     3.8185     3.8185    -0.0000
 32 C      6.0614     6.0000    -0.0614     3.9234     3.9234     0.0000
 33 C      6.0626     6.0000    -0.0626     3.9729     3.9729     0.0000
 34 C      6.0499     6.0000    -0.0499     3.9846     3.9846     0.0000
 35 C      5.7751     6.0000     0.2249     3.8172     3.8172     0.0000
 36 C      5.8912     6.0000     0.1088     3.8764     3.8764     0.0000
 37 C      6.0645     6.0000    -0.0645     3.9175     3.9175     0.0000
 38 C      5.7672     6.0000     0.2328     3.8020     3.8020    -0.0000
 39 C      6.0590     6.0000    -0.0590     3.9838     3.9838    -0.0000
 40 C      6.1813     6.0000    -0.1813     3.7281     3.7281    -0.0000
 41 C      5.7758     6.0000     0.2242     3.8860     3.8860    -0.0000
 42 C      5.8029     6.0000     0.1971     3.8263     3.8263     0.0000
 43 C      6.0728     6.0000    -0.0728     3.9000     3.9000     0.0000
 44 C      6.0911     6.0000    -0.0911     3.9859     3.9859    -0.0000
 45 C      6.0609     6.0000    -0.0609     3.9921     3.9921    -0.0000
 46 C      5.7904     6.0000     0.2096     3.8287     3.8287     0.0000
 47 C      5.8843     6.0000     0.1157     3.8938     3.8938    -0.0000
 48 C      6.0680     6.0000    -0.0680     3.9089     3.9089     0.0000
 49 C      5.7627     6.0000     0.2373     3.8944     3.8944     0.0000
 50 C      6.0469     6.0000    -0.0469     3.9905     3.9905     0.0000
 51 C      6.1943     6.0000    -0.1943     3.7370     3.7370     0.0000
 52 H      0.9611     1.0000     0.0389     0.9861     0.9861     0.0000
 53 H      1.0171     1.0000    -0.0171     0.9986     0.9986     0.0000
 54 H      0.9493     1.0000     0.0507     1.0154     1.0154    -0.0000
 55 H      0.9623     1.0000     0.0377     0.9866     0.9866     0.0000
 56 H      0.9506     1.0000     0.0494     0.9696     0.9696     0.0000
 57 H      0.9520     1.0000     0.0480     0.9823     0.9823     0.0000
 58 H      0.9530     1.0000     0.0470     0.9850     0.9850     0.0000
 59 H      0.9988     1.0000     0.0012     1.0034     1.0034     0.0000
 60 H      0.9471     1.0000     0.0529     1.0186     1.0186     0.0000
 61 H      0.8290     1.0000     0.1710     1.0419     1.0419     0.0000
 62 H      0.8245     1.0000     0.1755     1.0436     1.0436     0.0000
 63 H      0.9436     1.0000     0.0564     0.9852     0.9852    -0.0000
 64 H      1.0045     1.0000    -0.0045     0.9971     0.9971    -0.0000
 65 H      0.9529     1.0000     0.0471     1.0098     1.0098     0.0000
 66 H      0.9435     1.0000     0.0565     0.9854     0.9854    -0.0000
 67 H      0.9367     1.0000     0.0633     0.9720     0.9720     0.0000
 68 H      0.9423     1.0000     0.0577     0.9868     0.9868     0.0000
 69 H      0.9429     1.0000     0.0571     0.9829     0.9829    -0.0000
 70 H      1.0288     1.0000    -0.0288     0.9932     0.9932    -0.0000
 71 H      0.9540     1.0000     0.0460     1.0059     1.0059    -0.0000
 72 H      0.9300     1.0000     0.0700     0.9837     0.9837    -0.0000
 73 H      1.0083     1.0000    -0.0083     1.0007     1.0007     0.0000
 74 H      0.9408     1.0000     0.0592     1.0102     1.0102     0.0000
 75 H      0.9307     1.0000     0.0693     0.9841     0.9841    -0.0000
 76 H      0.9262     1.0000     0.0738     0.9721     0.9721     0.0000
 77 H      0.9329     1.0000     0.0671     0.9855     0.9855    -0.0000
 78 H      0.9337     1.0000     0.0663     0.9853     0.9853    -0.0000
 79 H      1.0158     1.0000    -0.0158     0.9978     0.9978     0.0000
 80 H      0.9401     1.0000     0.0599     1.0071     1.0071     0.0000
 81 H      0.9463     1.0000     0.0537     0.9857     0.9857     0.0000
 82 H      1.0252     1.0000    -0.0252     0.9933     0.9933     0.0000
 83 H      0.9590     1.0000     0.0410     1.0084     1.0084     0.0000
 84 H      0.9468     1.0000     0.0532     0.9853     0.9853    -0.0000
 85 H      0.9400     1.0000     0.0600     0.9715     0.9715     0.0000
 86 H      0.9449     1.0000     0.0551     0.9839     0.9839     0.0000
 87 H      0.9433     1.0000     0.0567     0.9856     0.9856     0.0000
 88 H      1.0150     1.0000    -0.0150     0.9966     0.9966    -0.0000
 89 H      0.9535     1.0000     0.0465     1.0072     1.0072     0.0000

  Mayer bond orders larger than 0.100000
B(  0-C ,  1-N ) :   1.0875 B(  0-C , 17-C ) :   1.7118 B(  0-C , 52-H ) :   0.9659 
B(  1-N ,  8-C ) :   1.0915 B(  1-N , 10-C ) :   0.9781 B(  2-C , 12-C ) :   1.5026 
B(  2-C , 16-C ) :   1.3590 B(  2-C , 53-H ) :   0.9754 B(  3-N , 14-C ) :   1.2186 
B(  3-N , 16-C ) :   1.1899 B(  3-N , 61-H ) :   0.8993 B(  4-C ,  6-C ) :   1.2115 
B(  4-C , 17-C ) :   1.2113 B(  4-C , 18-C ) :   1.4427 B(  5-N , 19-C ) :   1.4535 
B(  5-N , 27-C ) :   1.3783 B(  6-C ,  8-C ) :   1.7091 B(  6-C , 54-H ) :   0.9503 
B(  7-N , 30-C ) :   1.1941 B(  7-N , 38-C ) :   1.1920 B(  7-N , 62-H ) :   0.8967 
B(  8-C , 55-H ) :   0.9669 B(  9-N , 41-C ) :   1.3927 B(  9-N , 49-C ) :   1.4277 
B( 10-C , 56-H ) :   0.9770 B( 10-C , 57-H ) :   0.9833 B( 10-C , 58-H ) :   0.9834 
B( 11-N , 20-C ) :   1.1322 B( 11-N , 24-C ) :   1.1101 B( 11-N , 25-C ) :   0.9590 
B( 12-C , 14-C ) :   1.3572 B( 12-C , 59-H ) :   0.9717 B( 13-N , 31-C ) :   1.1591 
B( 13-N , 35-C ) :   1.1544 B( 13-N , 36-C ) :   0.9431 B( 14-C , 18-C ) :   1.1265 
B( 15-N , 42-C ) :   1.1067 B( 15-N , 46-C ) :   1.1214 B( 15-N , 47-C ) :   0.9623 
B( 16-C , 51-C ) :   1.1706 B( 17-C , 60-H ) :   0.9513 B( 18-C , 19-C ) :   1.1294 
B( 19-C , 21-C ) :   1.2461 B( 20-C , 28-C ) :   1.6260 B( 20-C , 63-H ) :   0.9702 
B( 21-C , 26-C ) :   1.6071 B( 21-C , 64-H ) :   0.9697 B( 22-C , 23-C ) :   1.2910 
B( 22-C , 28-C ) :   1.2668 B( 22-C , 29-C ) :   1.2209 B( 23-C , 24-C ) :   1.6176 
B( 23-C , 65-H ) :   0.9704 B( 24-C , 66-H ) :   0.9694 B( 25-C , 67-H ) :   0.9760 
B( 25-C , 68-H ) :   0.9828 B( 25-C , 69-H ) :   0.9823 B( 26-C , 27-C ) :   1.2415 
B( 26-C , 70-H ) :   0.9698 B( 27-C , 29-C ) :   1.2125 B( 28-C , 71-H ) :   0.9719 
B( 29-C , 30-C ) :   1.2439 B( 30-C , 32-C ) :   1.2807 B( 31-C , 39-C ) :   1.5922 
B( 31-C , 72-H ) :   0.9682 B( 32-C , 37-C ) :   1.5787 B( 32-C , 73-H ) :   0.9785 
B( 33-C , 34-C ) :   1.3055 B( 33-C , 39-C ) :   1.2995 B( 33-C , 40-C ) :   1.1814 
B( 34-C , 35-C ) :   1.5888 B( 34-C , 74-H ) :   0.9696 B( 35-C , 75-H ) :   0.9683 
B( 36-C , 76-H ) :   0.9767 B( 36-C , 77-H ) :   0.9816 B( 36-C , 78-H ) :   0.9824 
B( 37-C , 38-C ) :   1.2852 B( 37-C , 79-H ) :   0.9767 B( 38-C , 40-C ) :   1.2330 
B( 39-C , 80-H ) :   0.9707 B( 40-C , 41-C ) :   1.2475 B( 41-C , 43-C ) :   1.1891 
B( 42-C , 50-C ) :   1.6359 B( 42-C , 81-H ) :   0.9697 B( 43-C , 48-C ) :   1.6630 
B( 43-C , 82-H ) :   0.9722 B( 44-C , 45-C ) :   1.2621 B( 44-C , 50-C ) :   1.2695 
B( 44-C , 51-C ) :   1.2653 B( 45-C , 46-C ) :   1.6369 B( 45-C , 83-H ) :   0.9718 
B( 46-C , 84-H ) :   0.9701 B( 47-C , 85-H ) :   0.9762 B( 47-C , 86-H ) :   0.9829 
B( 47-C , 87-H ) :   0.9825 B( 48-C , 49-C ) :   1.1926 B( 48-C , 88-H ) :   0.9749 
B( 49-C , 51-C ) :   1.2382 B( 50-C , 89-H ) :   0.9709 

-------
TIMINGS
-------

Total SCF time: 0 days 0 hours 28 min 21 sec 

Total time                  ....    1701.621 sec
Sum of individual times     ....    1696.863 sec  ( 99.7%)

Fock matrix formation       ....    1669.139 sec  ( 98.1%)
Diagonalization             ....       8.801 sec  (  0.5%)
Density matrix formation    ....       0.527 sec  (  0.0%)
Population analysis         ....       0.590 sec  (  0.0%)
Initial guess               ....       2.506 sec  (  0.1%)
Orbital Transformation      ....       0.000 sec  (  0.0%)
Orbital Orthonormalization  ....       0.000 sec  (  0.0%)
DIIS solution               ....       3.960 sec  (  0.2%)
SOSCF solution              ....      10.051 sec  (  0.6%)

Maximum memory used throughout the entire SCF-calculation: 302.6 MB


           ************************************************************
           *        Program running with 16 parallel MPI-processes    *
           *              working on a common directory               *
           ************************************************************

------------------------------------------------------------------------------
                                ORCA  MP2 
------------------------------------------------------------------------------

Freezing NCore=104 chemical core electrons

----------
MP2 ENERGY (disk based algorithm)
----------

Dimension of the basis                    ...  918
Memory devoted to MP2                     ... 2000 MB   
Data format for buffers                   ... DOUBLE
Compression type for matrix containers    ... UNCOMPRESSED

-------------------------------
PARTIAL EXCHANGE TRANSFORMATION
-------------------------------

Transformation type                        ... one-operator
Generation of integrals (i,mue|j,nue)      ... ON
Generation of integrals (mue,kappa|nue,tau)... OFF
Generation of integrals (i,mue|a,nue)      ... OFF
Dimension of the basis                     ...  918
Number of internal MOs                     ...  127 (  52- 178)
Pair cutoff                                ... 2.500e-12 Eh
Number of AO pairs in the trafo            ... 421821
Total Number of distinct AO pairs          ... 421821
Memory devoted for trafo                   ... 2000.0 MB 
Max. Number of MO pairs treated together   ...  311      
Number Format for Storage                  ... Double (8 Byte)
Integral package used                      ... LIBINT

Starting integral evaluation:
    ... done with AO integral generation
Closing buffer AOK     (38.27 GB; CompressionRatio= 1.32)
Collecting buffer AOK 
Number of MO pairs included in the trafo   ... 8128
------------------------
SORTING OF (i,mue|j,nue)
------------------------

IBATCH = 1 of  2
IBATCH = 2 of  2
Closing buffer KAO     (51.03 GB; CompressionRatio= 1.00)
Collecting buffer KAO 
N(AO-Batches) Done                         ...  85994910 
N(AO-Batches) Skipped                      ...  82253054 
N(IJ)-pairs Skipped                        ...         0 
TOTAL TIME for half transformation         ...  2259.975 sec
AO-integral generation                     ...   211.314 sec
Half transformation                        ...   423.817 sec
K-integral sorting                         ...  1402.921 sec
Process 10:   Internal MO 132
Process 13:   Internal MO 156
Process  4:   Internal MO  84

Finished integral transformation - now doing MP2 part

OPERATOR COMBINATION   0   0: ij=( 52..178, 52..178)
Process  1:   Internal MO  60
Process  7:   Internal MO 108
Process  2:   Internal MO  69
Process  5:   Internal MO  93
Process  1:   Internal MO  63
Process  3:   Internal MO  78
Process  8:   Internal MO 117
Process  2:   Internal MO  72
Process  0:   Internal MO  54
Process  1:   Internal MO  66
Process  6:   Internal MO 102
Process 11:   Internal MO 141
Process  0:   Internal MO  57
Process 14:   Internal MO 165
Process  3:   Internal MO  81
Process  2:   Internal MO  75
Process  9:   Internal MO 126
Process  4:   Internal MO  87
Process  7:   Internal MO 111
Process  5:   Internal MO  96
Process 12:   Internal MO 150
Process 15:   Internal MO 174
Process  6:   Internal MO 105
Process 10:   Internal MO 135
Process  4:   Internal MO  90
Process  8:   Internal MO 120
Process  7:   Internal MO 114
Process  5:   Internal MO  99
Process 13:   Internal MO 159
Process  9:   Internal MO 129
Process 11:   Internal MO 144
Process 14:   Internal MO 168
Process 12:   Internal MO 153
Process  8:   Internal MO 123
Process 10:   Internal MO 138
Process 15:   Internal MO 177
Process 11:   Internal MO 147
Process 13:   Internal MO 162
Process 14:   Internal MO 171
-----------------------------------------------
 MP2 CORRELATION ENERGY   :     -7.282160319 Eh
-----------------------------------------------


-------
TIMINGS
-------
Total time                : 2544.823 sec
Integral trafo            : 2262.539 sec ( 88.9%)
K(i,j)                    :   37.637 sec (  1.5%)
T(i,j)                    :    0.217 sec (  0.0%)

---------------------------------------
MP2 TOTAL ENERGY:    -2130.882807864 Eh
---------------------------------------

Maximum memory used throughout the entire MP2-calculation: 2275.3 MB

-------------------------   --------------------
FINAL SINGLE POINT ENERGY     -2130.882807863985
-------------------------   --------------------


                            ***************************************
                            *     ORCA property calculations      *
                            ***************************************


  WARNING: The energy has been calculated at the MP2 level but the densities
           used in the property calculations are still SCF densities
           MP2 response densities have not been calculated 
           use %mp2 Density relaxed end
           or  %mp2 Density unrelaxed end

                                    ---------------------
                                    Active property flags
                                    ---------------------
   (+) Dipole Moment


------------------------------------------------------------------------------
                       ORCA ELECTRIC PROPERTIES CALCULATION
------------------------------------------------------------------------------

Dipole Moment Calculation                       ... on
Quadrupole Moment Calculation                   ... off
Polarizability Calculation                      ... off
GBWName                                         ... /scratch/allen/tmpyp4_amber_gaff2/conf1/conf1/Conf154.orca.gbw
Electron density                                ... /scratch/allen/tmpyp4_amber_gaff2/conf1/conf1/Conf154.orca.scfp
The origin for moment calculation is the CENTER OF MASS  = ( 0.003381, -0.001835  0.001680)

-------------
DIPOLE MOMENT
-------------
                                X             Y             Z
Electronic contribution:      2.27999      -4.18344      -0.22224
Nuclear contribution   :      0.04042       0.21278       0.22063
                        -----------------------------------------
Total Dipole Moment    :      2.32041      -3.97066      -0.00161
                        -----------------------------------------
Magnitude (a.u.)       :      4.59896
Magnitude (Debye)      :     11.68963



--------------------
Rotational spectrum 
--------------------
 
Rotational constants in cm-1:     0.001500     0.001478     0.000761 
Rotational constants in MHz :    44.981444    44.320669    22.799365 

 Dipole components along the rotational axes: 
x,y,z [a.u.] :     3.143631    -3.356787     0.002416 
x,y,z [Debye]:     7.990475    -8.532274     0.006141 

 

Timings for individual modules:

Sum of individual times         ...     4270.581 sec (=  71.176 min)
GTO integral calculation        ...        3.637 sec (=   0.061 min)   0.1 %
SCF iterations                  ...     1702.817 sec (=  28.380 min)  39.9 %
MP2 module                      ...     2564.127 sec (=  42.735 min)  60.0 %
                             ****ORCA TERMINATED NORMALLY****
TOTAL RUN TIME: 0 days 1 hours 11 minutes 13 seconds 923 msec
# of primitive gaussian functions

