
                                 *****************
                                 * O   R   C   A *
                                 *****************

                                            #,                                       
                                            ###                                      
                                            ####                                     
                                            #####                                    
                                            ######                                   
                                           ########,                                 
                                     ,,################,,,,,                         
                               ,,#################################,,                 
                          ,,##########################################,,             
                       ,#########################################, ''#####,          
                    ,#############################################,,   '####,        
                  ,##################################################,,,,####,       
                ,###########''''           ''''###############################       
              ,#####''   ,,,,##########,,,,          '''####'''          '####       
            ,##' ,,,,###########################,,,                        '##       
           ' ,,###''''                  '''############,,,                           
         ,,##''                                '''############,,,,        ,,,,,,###''
      ,#''                                            '''#######################'''  
     '                                                          ''''####''''         
             ,#######,   #######,   ,#######,      ##                                
            ,#'     '#,  ##    ##  ,#'     '#,    #''#        ######   ,####,        
            ##       ##  ##   ,#'  ##            #'  '#       #        #'  '#        
            ##       ##  #######   ##           ,######,      #####,   #    #        
            '#,     ,#'  ##    ##  '#,     ,#' ,#      #,         ##   #,  ,#        
             '#######'   ##     ##  '#######'  #'      '#     #####' # '####'        



                  #######################################################
                  #                        -***-                        #
                  #          Department of theory and spectroscopy      #
                  #    Directorship and core code : Frank Neese         #
                  #        Max Planck Institute fuer Kohlenforschung    #
                  #                Kaiser Wilhelm Platz 1               #
                  #                 D-45470 Muelheim/Ruhr               #
                  #                      Germany                        #
                  #                                                     #
                  #                  All rights reserved                #
                  #                        -***-                        #
                  #######################################################


                         Program Version 5.0.4 -  RELEASE  -


 With contributions from (in alphabetic order):
   Daniel Aravena         : Magnetic Suceptibility
   Michael Atanasov       : Ab Initio Ligand Field Theory (pilot matlab implementation)
   Alexander A. Auer      : GIAO ZORA, VPT2 properties, NMR spectrum
   Ute Becker             : Parallelization
   Giovanni Bistoni       : ED, misc. LED, open-shell LED, HFLD
   Martin Brehm           : Molecular dynamics
   Dmytro Bykov           : SCF Hessian
   Vijay G. Chilkuri      : MRCI spin determinant printing, contributions to CSF-ICE
   Dipayan Datta          : RHF DLPNO-CCSD density
   Achintya Kumar Dutta   : EOM-CC, STEOM-CC
   Dmitry Ganyushin       : Spin-Orbit,Spin-Spin,Magnetic field MRCI
   Miquel Garcia          : C-PCM and meta-GGA Hessian, CC/C-PCM, Gaussian charge scheme
   Yang Guo               : DLPNO-NEVPT2, F12-NEVPT2, CIM, IAO-localization
   Andreas Hansen         : Spin unrestricted coupled pair/coupled cluster methods
   Benjamin Helmich-Paris : MC-RPA, TRAH-SCF, COSX integrals
   Lee Huntington         : MR-EOM, pCC
   Robert Izsak           : Overlap fitted RIJCOSX, COSX-SCS-MP3, EOM
   Marcus Kettner         : VPT2
   Christian Kollmar      : KDIIS, OOCD, Brueckner-CCSD(T), CCSD density, CASPT2, CASPT2-K
   Simone Kossmann        : Meta GGA functionals, TD-DFT gradient, OOMP2, MP2 Hessian
   Martin Krupicka        : Initial AUTO-CI
   Lucas Lang             : DCDCAS
   Marvin Lechner         : AUTO-CI (C++ implementation), FIC-MRCC
   Dagmar Lenk            : GEPOL surface, SMD
   Dimitrios Liakos       : Extrapolation schemes; Compound Job, initial MDCI parallelization
   Dimitrios Manganas     : Further ROCIS development; embedding schemes
   Dimitrios Pantazis     : SARC Basis sets
   Anastasios Papadopoulos: AUTO-CI, single reference methods and gradients
   Taras Petrenko         : DFT Hessian,TD-DFT gradient, ASA, ECA, R-Raman, ABS, FL, XAS/XES, NRVS
   Peter Pinski           : DLPNO-MP2, DLPNO-MP2 Gradient
   Christoph Reimann      : Effective Core Potentials
   Marius Retegan         : Local ZFS, SOC
   Christoph Riplinger    : Optimizer, TS searches, QM/MM, DLPNO-CCSD(T), (RO)-DLPNO pert. Triples
   Tobias Risthaus        : Range-separated hybrids, TD-DFT gradient, RPA, STAB
   Michael Roemelt        : Original ROCIS implementation
   Masaaki Saitow         : Open-shell DLPNO-CCSD energy and density
   Barbara Sandhoefer     : DKH picture change effects
   Avijit Sen             : IP-ROCIS
   Kantharuban Sivalingam : CASSCF convergence, NEVPT2, FIC-MRCI
   Bernardo de Souza      : ESD, SOC TD-DFT
   Georgi Stoychev        : AutoAux, RI-MP2 NMR, DLPNO-MP2 response
   Willem Van den Heuvel  : Paramagnetic NMR
   Boris Wezisla          : Elementary symmetry handling
   Frank Wennmohs         : Technical directorship


 We gratefully acknowledge several colleagues who have allowed us to
 interface, adapt or use parts of their codes:
   Stefan Grimme, W. Hujo, H. Kruse, P. Pracht,  : VdW corrections, initial TS optimization,
                  C. Bannwarth, S. Ehlert          DFT functionals, gCP, sTDA/sTD-DF
   Ed Valeev, F. Pavosevic, A. Kumar             : LibInt (2-el integral package), F12 methods
   Garnet Chan, S. Sharma, J. Yang, R. Olivares  : DMRG
   Ulf Ekstrom                                   : XCFun DFT Library
   Mihaly Kallay                                 : mrcc  (arbitrary order and MRCC methods)
   Jiri Pittner, Ondrej Demel                    : Mk-CCSD
   Frank Weinhold                                : gennbo (NPA and NBO analysis)
   Christopher J. Cramer and Donald G. Truhlar   : smd solvation model
   Lars Goerigk                                  : TD-DFT with DH, B97 family of functionals
   V. Asgeirsson, H. Jonsson                     : NEB implementation
   FAccTs GmbH                                   : IRC, NEB, NEB-TS, DLPNO-Multilevel, CI-OPT
                                                   MM, QMMM, 2- and 3-layer-ONIOM, Crystal-QMMM,
                                                   LR-CPCM, SF, NACMEs, symmetry and pop. for TD-DFT,
                                                   nearIR, NL-DFT gradient (VV10), updates on ESD,
                                                   ML-optimized integration grids
   S Lehtola, MJT Oliveira, MAL Marques          : LibXC Library
   Liviu Ungur et al                             : ANISO software


 Your calculation uses the libint2 library for the computation of 2-el integrals
 For citations please refer to: http://libint.valeyev.net

 Your ORCA version has been built with support for libXC version: 5.1.0
 For citations please refer to: https://tddft.org/programs/libxc/

 This ORCA versions uses:
   CBLAS   interface :  Fast vector & matrix operations
   LAPACKE interface :  Fast linear algebra routines
   SCALAPACK package :  Parallel linear algebra routines
   Shared memory     :  Shared parallel matrices
   BLAS/LAPACK       :  OpenBLAS 0.3.15  USE64BITINT DYNAMIC_ARCH NO_AFFINITY Sandybridge SINGLE_THREADED
        Core in use  :  Sandybridge
   Copyright (c) 2011-2014, The OpenBLAS Project


================================================================================

----- Orbital basis set information -----
Your calculation utilizes the basis: cc-pVDZ 
       H, B-Ne : Obtained from the ccRepo (grant-hill.group.shef.ac.uk/ccrepo) Feb. 2017
                 T. H. Dunning, Jr., J. Chem. Phys. 90, 1007 (1989)
            He : Obtained from the ccRepo (grant-hill.group.shef.ac.uk/ccrepo) Feb. 2017
                 D. E. Woon, T. H. Dunning, Jr., J. Chem. Phys. 100, 2975 (1994)
  Li-Be, Na-Mg : Obtained from the ccRepo (grant-hill.group.shef.ac.uk/ccrepo) Feb. 2017
                 B. P. Prascher, D. E. Woon, K. A. Peterson, T. H. Dunning, Jr., A. K. Wilson, Theor. Chem. Acc. 128, 69 (2011)
         Al-Ar : Obtained from the ccRepo (grant-hill.group.shef.ac.uk/ccrepo) Feb. 2017
                 D. E. Woon, T. H. Dunning, Jr., J. Chem. Phys. 98, 1358 (1993)
            Ca : Obtained from the Peterson Research Group Website (tyr0.chem.wsu.edu/~kipeters) Feb. 2017
                 J. Koput, K. A. Peterson, J. Phys. Chem. 106, 9595 (2002)
         Sc-Zn : Obtained from the ccRepo (grant-hill.group.shef.ac.uk/ccrepo) Feb. 2017
                 N. B. Balabanov, K. A. Peterson, J. Chem. Phys. 123, 064107 (2005)
                 N. B. Balabanov, K. A. Peterson, J. Chem. Phys. 125, 074110 (2006)
         Ga-Kr : Obtained from the ccRepo (grant-hill.group.shef.ac.uk/ccrepo) Feb. 2017
                 A. K. Wilson, D. E. Woon, K. A. Peterson, T. H. Dunning, Jr., J. Chem. Phys. 110, 7667 (1999)

================================================================================
                                        WARNINGS
                       Please study these warnings very carefully!
================================================================================


WARNING: No MP2 level density has been requested!
         To caclulate MP2 level properties use
         %mp2 Density relaxed end
         or
         %mp2 Density unrelaxed end

WARNING: Post HF methods need fully converged wavefunctions
  ===> : Setting SCFConvForced true
         You can overwrite this default with %scf ConvForced false 


INFO   : the flag for use of the SHARK integral package has been found!

================================================================================
                                       INPUT FILE
================================================================================
NAME = /scratch/allen/tmpyp4_amber_gaff2/2.Mdgx/conf11/conf11/Conf107.orca
|  1> ! PAL2
|  2> ! mp2 cc-pvdz TightSCF  NoKeepInts
|  3> 
|  4> %scf
|  5>   MaxCore 2000
|  6> end
|  7> %mp2
|  8>   MaxCore 2000
|  9> end
| 10> * xyz 0 1
| 11>    C       -4.24400         5.69100        -1.04300
| 12>    C        1.47400         4.04100         0.05700
| 13>    C       -2.80200         4.09300         0.04900
| 14>    C       -2.93800         4.85000         1.22300
| 15>    C       -3.71600         5.99000         1.22700
| 16>    C       -5.21100         7.60300         0.15200
| 17>    C        0.13200         4.30700         0.06100
| 18>    C       -0.56900         3.05600         0.04700
| 19>    C        1.64900         2.61800         0.02300
| 20>    C       -3.48100         4.54000        -1.09500
| 21>    N       -4.35300         6.39800         0.10500
| 22>    N        0.38800         2.06700         0.02500
| 23>    N       -2.01000         0.39500        -0.07500
| 24>    N       -0.38800        -2.07400        -0.02700
| 25>    N        2.01000        -0.40100         0.06500
| 26>    C       -1.96000         2.86100         0.02400
| 27>    C       -2.62300         1.61500        -0.01800
| 28>    C       -5.57300        -4.32900         1.06600
| 29>    C       -4.07300         1.47100         0.05600
| 30>    C       -4.10600        -2.75600        -0.02600
| 31>    C       -4.99500        -2.75700        -1.11100
| 32>    C       -6.13200        -3.54200        -1.07600
| 33>    C       -7.65100        -5.11300         0.04000
| 34>    C       -4.32400         0.14100         0.03700
| 35>    C       -3.02500        -0.52000        -0.04800
| 36>    C       -4.42200        -3.56600         1.07500
| 37>    N       -6.40700        -4.31300         0.00100
| 38>    C       -2.86700        -1.92200        -0.04000
| 39>    C       -1.65000        -2.62400        -0.02700
| 40>    C        3.56800        -6.14200        -1.04000
| 41>    C       -1.47600        -4.04900        -0.03400
| 42>    C        2.80300        -4.09900        -0.00800
| 43>    C        3.65700        -4.38400         1.06900
| 44>    C        4.42700        -5.53000         1.05900
| 45>    C        5.24500        -7.58800         0.01400
| 46>    C       -0.13400        -4.31500        -0.02200
| 47>    C        0.56800        -3.06400        -0.02700
| 48>    C        2.77500        -5.01200        -1.07400
| 49>    N        4.37600        -6.39100         0.01700
| 50>    C        1.95900        -2.86900        -0.00900
| 51>    C        2.62100        -1.62200         0.00900
| 52>    C        5.54300         4.33900        -1.13000
| 53>    C        4.07000        -1.47900        -0.09400
| 54>    C        4.10400         2.75100        -0.02100
| 55>    C        5.02700         2.72900         1.03600
| 56>    C        6.16600         3.50900         0.97800
| 57>    C        7.61900         5.15300        -0.11500
| 58>    C        4.32100        -0.14800        -0.09200
| 59>    C        3.02500         0.51400         0.01500
| 60>    C        4.38700         3.58200        -1.11500
| 61>    C        2.86600         1.91600         0.01300
| 62>    N        6.41300         4.29600        -0.09500
| 63>    H       -4.77500         6.07900        -1.90300
| 64>    H        2.27400         4.76600         0.08100
| 65>    H       -2.44600         4.55100         2.14100
| 66>    H       -3.85800         6.60100         2.10900
| 67>    H       -6.21000         7.31500         0.48900
| 68>    H       -4.77200         8.31900         0.84600
| 69>    H       -5.26300         8.03500        -0.84700
| 70>    H       -0.33200         5.28200         0.06900
| 71>    H       -3.40500         4.00700        -2.03600
| 72>    H        0.18200         1.07200         0.00500
| 73>    H       -0.18300        -1.08000        -0.02100
| 74>    H       -5.86400        -4.96200         1.89500
| 75>    H       -4.79400         2.27200         0.13900
| 76>    H       -4.80000        -2.16000        -1.99400
| 77>    H       -6.84100        -3.58200        -1.89300
| 78>    H       -8.42800        -4.53600         0.54600
| 79>    H       -7.95600        -5.33700        -0.98100
| 80>    H       -7.45600        -6.03700         0.58400
| 81>    H       -5.28700        -0.34400         0.10000
| 82>    H       -3.78000        -3.60100         1.94700
| 83>    H        3.58700        -6.86800        -1.84300
| 84>    H       -2.27600        -4.77400        -0.05000
| 85>    H        3.71400        -3.72400         1.92600
| 86>    H        5.09200        -5.79500         1.87100
| 87>    H        6.20500        -7.32900        -0.43900
| 88>    H        5.39300        -7.91700         1.04200
| 89>    H        4.75900        -8.37300        -0.56400
| 90>    H        0.32900        -5.29000        -0.00800
| 91>    H        2.14600        -4.84200        -1.94000
| 92>    H        5.80800         4.98600        -1.95600
| 93>    H        4.78800        -2.28100        -0.18500
| 94>    H        4.86000         2.11400         1.91200
| 95>    H        6.90100         3.53100         1.77200
| 96>    H        7.38300         6.10900         0.35600
| 97>    H        8.41400         4.65200         0.43500
| 98>    H        7.92100         5.31000        -1.15000
| 99>    H        5.28300         0.33600        -0.17900
|100>    H        3.72000         3.63200        -1.96700
|101> *
|102> 
|103>                          ****END OF INPUT****
================================================================================

                       ****************************
                       * Single Point Calculation *
                       ****************************

---------------------------------
CARTESIAN COORDINATES (ANGSTROEM)
---------------------------------
  C     -4.244000    5.691000   -1.043000
  C      1.474000    4.041000    0.057000
  C     -2.802000    4.093000    0.049000
  C     -2.938000    4.850000    1.223000
  C     -3.716000    5.990000    1.227000
  C     -5.211000    7.603000    0.152000
  C      0.132000    4.307000    0.061000
  C     -0.569000    3.056000    0.047000
  C      1.649000    2.618000    0.023000
  C     -3.481000    4.540000   -1.095000
  N     -4.353000    6.398000    0.105000
  N      0.388000    2.067000    0.025000
  N     -2.010000    0.395000   -0.075000
  N     -0.388000   -2.074000   -0.027000
  N      2.010000   -0.401000    0.065000
  C     -1.960000    2.861000    0.024000
  C     -2.623000    1.615000   -0.018000
  C     -5.573000   -4.329000    1.066000
  C     -4.073000    1.471000    0.056000
  C     -4.106000   -2.756000   -0.026000
  C     -4.995000   -2.757000   -1.111000
  C     -6.132000   -3.542000   -1.076000
  C     -7.651000   -5.113000    0.040000
  C     -4.324000    0.141000    0.037000
  C     -3.025000   -0.520000   -0.048000
  C     -4.422000   -3.566000    1.075000
  N     -6.407000   -4.313000    0.001000
  C     -2.867000   -1.922000   -0.040000
  C     -1.650000   -2.624000   -0.027000
  C      3.568000   -6.142000   -1.040000
  C     -1.476000   -4.049000   -0.034000
  C      2.803000   -4.099000   -0.008000
  C      3.657000   -4.384000    1.069000
  C      4.427000   -5.530000    1.059000
  C      5.245000   -7.588000    0.014000
  C     -0.134000   -4.315000   -0.022000
  C      0.568000   -3.064000   -0.027000
  C      2.775000   -5.012000   -1.074000
  N      4.376000   -6.391000    0.017000
  C      1.959000   -2.869000   -0.009000
  C      2.621000   -1.622000    0.009000
  C      5.543000    4.339000   -1.130000
  C      4.070000   -1.479000   -0.094000
  C      4.104000    2.751000   -0.021000
  C      5.027000    2.729000    1.036000
  C      6.166000    3.509000    0.978000
  C      7.619000    5.153000   -0.115000
  C      4.321000   -0.148000   -0.092000
  C      3.025000    0.514000    0.015000
  C      4.387000    3.582000   -1.115000
  C      2.866000    1.916000    0.013000
  N      6.413000    4.296000   -0.095000
  H     -4.775000    6.079000   -1.903000
  H      2.274000    4.766000    0.081000
  H     -2.446000    4.551000    2.141000
  H     -3.858000    6.601000    2.109000
  H     -6.210000    7.315000    0.489000
  H     -4.772000    8.319000    0.846000
  H     -5.263000    8.035000   -0.847000
  H     -0.332000    5.282000    0.069000
  H     -3.405000    4.007000   -2.036000
  H      0.182000    1.072000    0.005000
  H     -0.183000   -1.080000   -0.021000
  H     -5.864000   -4.962000    1.895000
  H     -4.794000    2.272000    0.139000
  H     -4.800000   -2.160000   -1.994000
  H     -6.841000   -3.582000   -1.893000
  H     -8.428000   -4.536000    0.546000
  H     -7.956000   -5.337000   -0.981000
  H     -7.456000   -6.037000    0.584000
  H     -5.287000   -0.344000    0.100000
  H     -3.780000   -3.601000    1.947000
  H      3.587000   -6.868000   -1.843000
  H     -2.276000   -4.774000   -0.050000
  H      3.714000   -3.724000    1.926000
  H      5.092000   -5.795000    1.871000
  H      6.205000   -7.329000   -0.439000
  H      5.393000   -7.917000    1.042000
  H      4.759000   -8.373000   -0.564000
  H      0.329000   -5.290000   -0.008000
  H      2.146000   -4.842000   -1.940000
  H      5.808000    4.986000   -1.956000
  H      4.788000   -2.281000   -0.185000
  H      4.860000    2.114000    1.912000
  H      6.901000    3.531000    1.772000
  H      7.383000    6.109000    0.356000
  H      8.414000    4.652000    0.435000
  H      7.921000    5.310000   -1.150000
  H      5.283000    0.336000   -0.179000
  H      3.720000    3.632000   -1.967000

----------------------------
CARTESIAN COORDINATES (A.U.)
----------------------------
  NO LB      ZA    FRAG     MASS         X           Y           Z
   0 C     6.0000    0    12.011   -8.019998   10.754431   -1.970984
   1 C     6.0000    0    12.011    2.785456    7.636383    0.107714
   2 C     6.0000    0    12.011   -5.295013    7.734649    0.092597
   3 C     6.0000    0    12.011   -5.552015    9.165172    2.311135
   4 C     6.0000    0    12.011   -7.022222   11.319460    2.318694
   5 C     6.0000    0    12.011   -9.847363   14.367588    0.287238
   6 C     6.0000    0    12.011    0.249444    8.139050    0.115273
   7 C     6.0000    0    12.011   -1.075254    5.775003    0.088817
   8 C     6.0000    0    12.011    3.116158    4.947303    0.043464
   9 C     6.0000    0    12.011   -6.578137    8.579357   -2.069250
  10 N     7.0000    0    14.007   -8.225978   12.090468    0.198421
  11 N     7.0000    0    14.007    0.733214    3.906064    0.047243
  12 N     7.0000    0    14.007   -3.798350    0.746442   -0.141729
  13 N     7.0000    0    14.007   -0.733214   -3.919292   -0.051023
  14 N     7.0000    0    14.007    3.798350   -0.757780    0.122832
  15 C     6.0000    0    12.011   -3.703863    5.406506    0.045353
  16 C     6.0000    0    12.011   -4.956752    3.051908   -0.034015
  17 C     6.0000    0    12.011  -10.531444   -8.180624    2.014448
  18 C     6.0000    0    12.011   -7.696855    2.779787    0.105825
  19 C     6.0000    0    12.011   -7.759216   -5.208085   -0.049133
  20 C     6.0000    0    12.011   -9.439182   -5.209975   -2.099486
  21 C     6.0000    0    12.011  -11.587801   -6.693410   -2.033345
  22 C     6.0000    0    12.011  -14.458295   -9.662170    0.075589
  23 C     6.0000    0    12.011   -8.171176    0.266451    0.069920
  24 C     6.0000    0    12.011   -5.716422   -0.982658   -0.090707
  25 C     6.0000    0    12.011   -8.356369   -6.738763    2.031456
  26 N     7.0000    0    14.007  -12.107475   -8.150389    0.001890
  27 C     6.0000    0    12.011   -5.417845   -3.632054   -0.075589
  28 C     6.0000    0    12.011   -3.118048   -4.958641   -0.051023
  29 C     6.0000    0    12.011    6.742543  -11.606698   -1.965315
  30 C     6.0000    0    12.011   -2.789236   -7.651501   -0.064251
  31 C     6.0000    0    12.011    5.296902   -7.745987   -0.015118
  32 C     6.0000    0    12.011    6.910728   -8.284559    2.020117
  33 C     6.0000    0    12.011    8.365818  -10.450186    2.001220
  34 C     6.0000    0    12.011    9.911614  -14.339242    0.026456
  35 C     6.0000    0    12.011   -0.253223   -8.154168   -0.041574
  36 C     6.0000    0    12.011    1.073364   -5.790121   -0.051023
  37 C     6.0000    0    12.011    5.243990   -9.471307   -2.029566
  38 N     7.0000    0    14.007    8.269442  -12.077240    0.032125
  39 C     6.0000    0    12.011    3.701973   -5.421624   -0.017008
  40 C     6.0000    0    12.011    4.952972   -3.065136    0.017008
  41 C     6.0000    0    12.011   10.474752    8.199522   -2.135391
  42 C     6.0000    0    12.011    7.691185   -2.794905   -0.177634
  43 C     6.0000    0    12.011    7.755436    5.198637   -0.039684
  44 C     6.0000    0    12.011    9.499653    5.157063    1.957756
  45 C     6.0000    0    12.011   11.652051    6.631049    1.848152
  46 C     6.0000    0    12.011   14.397823    9.737759   -0.217319
  47 C     6.0000    0    12.011    8.165507   -0.279679   -0.173855
  48 C     6.0000    0    12.011    5.716422    0.971319    0.028346
  49 C     6.0000    0    12.011    8.290229    6.768999   -2.107045
  50 C     6.0000    0    12.011    5.415955    3.620715    0.024566
  51 N     7.0000    0    14.007   12.118814    8.118263   -0.179524
  52 H     1.0000    0     1.008   -9.023442   11.487645   -3.596149
  53 H     1.0000    0     1.008    4.297237    9.006435    0.153068
  54 H     1.0000    0     1.008   -4.622270    8.600144    4.045904
  55 H     1.0000    0     1.008   -7.290563   12.474082    3.985432
  56 H     1.0000    0     1.008  -11.735199   13.823347    0.924076
  57 H     1.0000    0     1.008   -9.017773   15.720632    1.598708
  58 H     1.0000    0     1.008   -9.945629   15.183949   -1.600598
  59 H     1.0000    0     1.008   -0.627389    9.981533    0.130391
  60 H     1.0000    0     1.008   -6.434517    7.572133   -3.847482
  61 H     1.0000    0     1.008    0.343930    2.025786    0.009449
  62 H     1.0000    0     1.008   -0.345820   -2.040904   -0.039684
  63 H     1.0000    0     1.008  -11.081354   -9.376821    3.581031
  64 H     1.0000    0     1.008   -9.059347    4.293458    0.262672
  65 H     1.0000    0     1.008   -9.070685   -4.081808   -3.768114
  66 H     1.0000    0     1.008  -12.927616   -6.768999   -3.577252
  67 H     1.0000    0     1.008  -15.926612   -8.571798    1.031790
  68 H     1.0000    0     1.008  -15.034661  -10.085468   -1.853821
  69 H     1.0000    0     1.008  -14.089798  -11.408277    1.103600
  70 H     1.0000    0     1.008   -9.990982   -0.650066    0.188973
  71 H     1.0000    0     1.008   -7.143165   -6.804904    3.679297
  72 H     1.0000    0     1.008    6.778448  -12.978639   -3.482765
  73 H     1.0000    0     1.008   -4.301017   -9.021553   -0.094486
  74 H     1.0000    0     1.008    7.018443   -7.037340    3.639613
  75 H     1.0000    0     1.008    9.622485  -10.950963    3.535678
  76 H     1.0000    0     1.008   11.725751  -13.849803   -0.829590
  77 H     1.0000    0     1.008   10.191293  -14.960962    1.969095
  78 H     1.0000    0     1.008    8.993207  -15.822677   -1.065806
  79 H     1.0000    0     1.008    0.621720   -9.996651   -0.015118
  80 H     1.0000    0     1.008    4.055352   -9.150054   -3.666069
  81 H     1.0000    0     1.008   10.975529    9.422175   -3.696304
  82 H     1.0000    0     1.008    9.048009   -4.310465   -0.349599
  83 H     1.0000    0     1.008    9.184069    3.994881    3.613156
  84 H     1.0000    0     1.008   13.041000    6.672623    3.348595
  85 H     1.0000    0     1.008   13.951848   11.544337    0.672743
  86 H     1.0000    0     1.008   15.900156    8.791006    0.822031
  87 H     1.0000    0     1.008   14.968521   10.034446   -2.173185
  88 H     1.0000    0     1.008    9.983423    0.634948   -0.338261
  89 H     1.0000    0     1.008    7.029781    6.863485   -3.717091

--------------------------------
INTERNAL COORDINATES (ANGSTROEM)
--------------------------------
 C      0   0   0     0.000000000000     0.00000000     0.00000000
 C      1   0   0     6.052109053875     0.00000000     0.00000000
 C      1   2   0     2.413593172016    34.18731226     0.00000000
 C      3   1   2     1.403503117204    87.90575516    95.75802651
 C      4   3   1     1.380181147531   120.16885576     0.09894671
 C      5   4   3     2.447941788524   152.52838266     1.74172958
 C      2   1   3     1.368114030335    11.69606473   327.98027305
 C      7   2   3     1.434084376876   108.05010202     0.84668783
 C      2   1   3     1.434123425651   112.42649622    39.01810434
 C      1   2   3     1.381909548415    42.10722063   311.69359390
 N      1   2   3     1.352639641590    93.69109073    85.59800969
 N      9   2   1     1.376127174356   106.58526707   347.59294496
 N     12   9   2     2.925062050624   168.53581413   171.12065651
 N     13  12   9     2.954513327098    91.55032014    11.12112580
 N     14  13  12     2.925371258490    88.43092389   359.84326247
 C      8   7   2     1.404790019896   127.24786865   181.11170171
 C     13  12   9     1.366535034311    81.72106996   188.00453233
 C     14  13  12     5.758810554272    80.56209567   166.76250791
 C     17  13  12     1.459010623676   111.08861209   183.82872609
 C     18  14  13     2.412235892279    27.27532823    36.33507194
 C     20  18  14     1.402692767501    87.95206320   148.94598259
 C     21  20  18     1.382106725257   120.14573887   359.70382047
 C     18  14  13     2.446510985056   144.15733107    82.80075377
 C     19  17  13     1.353610726908   106.29293361   359.75308708
 C     13  12   9     1.366813447402   172.21332906    33.46711076
 C     18  14  13     1.380960173213    15.08449437   309.23336894
 N     22  21  20     1.352773077792   120.73759875     0.27865223
 C     25  13  17     1.410897586645   125.60330303   182.37774668
 C     14  13  12     1.376642291955    80.24689249   177.85461986
 C     14  13  12     5.764089607215   164.51507311   312.20821879
 C     29  14  13     1.435600919476   106.58649366   178.76395472
 C     30  14  13     2.413316804732    27.10625047    82.12560436
 C     32  30  14     1.403734305344    87.90059683   149.76154742
 C     33  32  30     1.380694028378   120.14881443   359.74174632
 C     34  33  32     2.448777858443   152.49203239     2.45173620
 C     31  29  14     1.368160809262   108.16950133     0.70383075
 C     14  13  12     1.376239804685   169.26375223   353.09862627
 C     30  14  13     1.380907310430    14.68948582   353.70041132
 N     34  33  32     1.352658863128   120.85575621     0.19603406
 C     37  14  29     1.404717053360   126.01551127   180.90772073
 C     15  14  13     1.366491126938    81.61824056   183.09049352
 C      2   1   3     4.249062720177   146.60149299   160.35290791
 C     41  15  14     1.459677704153   111.05201287   175.08990246
 C     42   2   1     2.412953791518    41.78584867   208.60602538
 C     44  42   2     1.403446472082    87.95153797   233.97558675
 C     45  44  42     1.381696421071   120.11137308     0.19721020
 C     42   2   1     2.450019795838   135.97209175   118.92087448
 C     43  41  15     1.354461516618   106.26758155     0.30894352
 C     15  14  13     1.367461151185   171.87382904   332.35056460
 C     42   2   1     1.381886391857    32.59078432   257.46130457
 C      9   2   1     1.404988612053   126.98745415   168.59728249
 N     42   2   1     1.352765315936   113.57249190   146.65746367
 H      1   2   3     1.082637981968   134.86810750   219.76098847
 H      2   1   3     1.079907866440   121.39359991   208.19091811
 H      4   3   1     1.083600018457   121.05225310   179.57273663
 H      5   4   3     1.082316497149   122.86135667   179.45115372
 H      6   5   4     1.092938241622   104.42938265    99.97628563
 H      6   5   4     1.089501262046    84.67645350   209.48036489
 H      6   5   4     1.089646272879   133.86743927   322.29887995
 H      7   2  54     1.079807853278   126.66122480     1.30600390
 H     10   1   2     1.084133755586   118.74117814   237.69086882
 H     12   9   2     1.016297692608   125.29023241   180.00180175
 H     14  13  12     1.014936943854    44.97226959   359.42596618
 H     18  14  13     1.082871645210   128.03556573   234.20482432
 H     19  17  13     1.080893611786   126.41830519   178.11313280
 H     21  20  18     1.083569563987   121.05669627   180.67006309
 H     22  21  20     1.082483256222   122.73097286   180.59748951
 H     23  18  14     1.092105306278   103.92715769   234.93429879
 H     23  18  14     1.088871893291   134.19244188    12.25587044
 H     23  18  14     1.089833473518    84.85857450   125.45241208
 H     24  19  17     1.080075460327   127.28078426   178.44613241
 H     26  18  14     1.083408048706   118.76995697   244.94906660
 H     30  14  13     1.082703098730   127.99711412   279.66882698
 H     31  29  14     1.079759695488   125.22293469   180.92530585
 H     33  32  30     1.083188810873   121.01964473   180.74284758
 H     34  33  32     1.082494341787   122.70821597   180.59516895
 H     35  34  33     1.092652735319   105.73575241    97.19771933
 H     35  34  33     1.089462711615    84.05943581   206.43036958
 H     35  34  33     1.089268102902   133.08365142   318.50306270
 H     36  31  29     1.079439669458   126.61599965   178.98859863
 H     38  30  73     1.083742127999   118.77264435   359.90091293
 H     42   2   1     1.082178358682   119.31790784     3.28899413
 H     43  41  15     1.080281907652   126.36969097   182.06329380
 H     45  44  42     1.083277434455   121.10105945   179.58025624
 H     46  45  44     1.082194529648   122.72144639   179.46906377
 H     47  42   2     1.091546151109   106.65128841   315.16475048
 H     47  42   2     1.088818625851   132.46019523    94.52397119
 H     47  42   2     1.089531091801    83.63838232   206.04504406
 H     48  43  41     1.080402239909   127.23657387   181.62955349
 H     50  42   2     1.083186502870   118.77001737    94.71359229

---------------------------
INTERNAL COORDINATES (A.U.)
---------------------------
 C      0   0   0     0.000000000000     0.00000000     0.00000000
 C      1   0   0    11.436828644450     0.00000000     0.00000000
 C      1   2   0     4.561030093812    34.18731226     0.00000000
 C      3   1   2     2.652236519619    87.90575516    95.75802651
 C      4   3   1     2.608164384035   120.16885576     0.09894671
 C      5   4   3     4.625939572091   152.52838266     1.74172958
 C      2   1   3     2.585360837309    11.69606473   327.98027305
 C      7   2   3     2.710026725231   108.05010202     0.84668783
 C      2   1   3     2.710100516721   112.42649622    39.01810434
 C      1   2   3     2.611430588355    42.10722063   311.69359390
 N      1   2   3     2.556118480490    93.69109073    85.59800969
 N      9   2   1     2.600503484979   106.58526707   347.59294496
 N     12   9   2     5.527566200405   168.53581413   171.12065651
 N     13  12   9     5.583221047236    91.55032014    11.12112580
 N     14  13  12     5.528150518591    88.43092389   359.84326247
 C      8   7   2     2.654668413270   127.24786865   181.11170171
 C     13  12   9     2.582376967257    81.72106996   188.00453233
 C     14  13  12    10.882574804710    80.56209567   166.76250791
 C     17  13  12     2.757130505230   111.08861209   183.82872609
 C     18  14  13     4.558465206823    27.27532823    36.33507194
 C     20  18  14     2.650705180609    87.95206320   148.94598259
 C     21  20  18     2.611803198586   120.14573887   359.70382047
 C     18  14  13     4.623235745386   144.15733107    82.80075377
 C     19  17  13     2.557953565794   106.29293361   359.75308708
 C     13  12   9     2.582903091751   172.21332906    33.46711076
 C     18  14  13     2.609636529225    15.08449437   309.23336894
 N     22  21  20     2.556370638369   120.73759875     0.27865223
 C     25  13  17     2.666210041769   125.60330303   182.37774668
 C     14  13  12     2.601476916169    80.24689249   177.85461986
 C     14  13  12    10.892550769017   164.51507311   312.20821879
 C     29  14  13     2.712892575415   106.58649366   178.76395472
 C     30  14  13     4.560507835333    27.10625047    82.12560436
 C     32  30  14     2.652673401891    87.90059683   149.76154742
 C     33  32  30     2.609133588376   120.14881443   359.74174632
 C     34  33  32     4.627519515267   152.49203239     2.45173620
 C     31  29  14     2.585449236669   108.16950133     0.70383075
 C     14  13  12     2.600716325456   169.26375223   353.09862627
 C     30  14  13     2.609536633043    14.68948582   353.70041132
 N     34  33  32     2.556154803934   120.85575621     0.19603406
 C     37  14  29     2.654530526499   126.01551127   180.90772073
 C     15  14  13     2.582293994346    81.61824056   183.09049352
 C      2   1   3     8.029564866989   146.60149299   160.35290791
 C     41  15  14     2.758391104639   111.05201287   175.08990246
 C     42   2   1     4.559821839776    41.78584867   208.60602538
 C     44  42   2     2.652129475853    87.95153797   233.97558675
 C     45  44  42     2.611027836043   120.11137308     0.19721020
 C     42   2   1     4.629866436820   135.97209175   118.92087448
 C     43  41  15     2.559561325344   106.26758155     0.30894352
 C     15  14  13     2.584127074516   171.87382904   332.35056460
 C     42   2   1     2.611386828803    32.59078432   257.46130457
 C      9   2   1     2.655043698059   126.98745415   168.59728249
 N     42   2   1     2.556355970587   113.57249190   146.65746367
 H      1   2   3     2.045889288101   134.86810750   219.76098847
 H      2   1   3     2.040730117440   121.39359991   208.19091811
 H      4   3   1     2.047707273596   121.05225310   179.57273663
 H      5   4   3     2.045281769836   122.86135667   179.45115372
 H      6   5   4     2.065353957955   104.42938265    99.97628563
 H      6   5   4     2.058859007829    84.67645350   209.48036489
 H      6   5   4     2.059133038590   133.86743927   322.29887995
 H      7   2  54     2.040541119952   126.66122480     1.30600390
 H     10   1   2     2.048715890596   118.74117814   237.69086882
 H     12   9   2     1.920524309565   125.29023241   180.00180175
 H     14  13  12     1.917952867083    44.97226959   359.42596618
 H     18  14  13     2.046330847636   128.03556573   234.20482432
 H     19  17  13     2.042592906181   126.41830519   178.11313280
 H     21  20  18     2.047649722989   121.05669627   180.67006309
 H     22  21  20     2.045596898814   122.73097286   180.59748951
 H     23  18  14     2.063779938267   103.92715769   234.93429879
 H     23  18  14     2.057669673245   134.19244188    12.25587044
 H     23  18  14     2.059486796529    84.85857450   125.45241208
 H     24  19  17     2.041046823986   127.28078426   178.44613241
 H     26  18  14     2.047344503340   118.76995697   244.94906660
 H     30  14  13     2.046012340948   127.99711412   279.66882698
 H     31  29  14     2.040450114918   125.22293469   180.92530585
 H     33  32  30     2.046930203877   121.01964473   180.74284758
 H     34  33  32     2.045617847496   122.70821597   180.59516895
 H     35  34  33     2.064814429233   105.73575241    97.19771933
 H     35  34  33     2.058786158072    84.05943581   206.43036958
 H     35  34  33     2.058418400901   133.08365142   318.50306270
 H     36  31  29     2.039845353366   126.61599965   178.98859863
 H     38  30  73     2.047975821711   118.77264435   359.90091293
 H     42   2   1     2.045020725966   119.31790784     3.28899413
 H     43  41  15     2.041436952892   126.36969097   182.06329380
 H     45  44  42     2.047097678177   121.10105945   179.58025624
 H     46  45  44     2.045051284662   122.72144639   179.46906377
 H     47  42   2     2.062723288131   106.65128841   315.16475048
 H     47  42   2     2.057569012371   132.46019523    94.52397119
 H     47  42   2     2.058915377895    83.63838232   206.04504406
 H     48  43  41     2.041664347903   127.23657387   181.62955349
 H     50  42   2     2.046925842384   118.77001737    94.71359229

---------------------
BASIS SET INFORMATION
---------------------
There are 3 groups of distinct atoms

 Group   1 Type C   : 17s4p1d contracted to 3s2p1d pattern {881/31/1}
 Group   2 Type N   : 17s4p1d contracted to 3s2p1d pattern {881/31/1}
 Group   3 Type H   : 4s1p contracted to 2s1p pattern {31/1}

Atom   0C    basis set group =>   1
Atom   1N    basis set group =>   2
Atom   2C    basis set group =>   1
Atom   3N    basis set group =>   2
Atom   4C    basis set group =>   1
Atom   5N    basis set group =>   2
Atom   6C    basis set group =>   1
Atom   7N    basis set group =>   2
Atom   8C    basis set group =>   1
Atom   9N    basis set group =>   2
Atom  10C    basis set group =>   1
Atom  11N    basis set group =>   2
Atom  12C    basis set group =>   1
Atom  13N    basis set group =>   2
Atom  14C    basis set group =>   1
Atom  15N    basis set group =>   2
Atom  16C    basis set group =>   1
Atom  17C    basis set group =>   1
Atom  18C    basis set group =>   1
Atom  19C    basis set group =>   1
Atom  20C    basis set group =>   1
Atom  21C    basis set group =>   1
Atom  22C    basis set group =>   1
Atom  23C    basis set group =>   1
Atom  24C    basis set group =>   1
Atom  25C    basis set group =>   1
Atom  26C    basis set group =>   1
Atom  27C    basis set group =>   1
Atom  28C    basis set group =>   1
Atom  29C    basis set group =>   1
Atom  30C    basis set group =>   1
Atom  31C    basis set group =>   1
Atom  32C    basis set group =>   1
Atom  33C    basis set group =>   1
Atom  34C    basis set group =>   1
Atom  35C    basis set group =>   1
Atom  36C    basis set group =>   1
Atom  37C    basis set group =>   1
Atom  38C    basis set group =>   1
Atom  39C    basis set group =>   1
Atom  40C    basis set group =>   1
Atom  41C    basis set group =>   1
Atom  42C    basis set group =>   1
Atom  43C    basis set group =>   1
Atom  44C    basis set group =>   1
Atom  45C    basis set group =>   1
Atom  46C    basis set group =>   1
Atom  47C    basis set group =>   1
Atom  48C    basis set group =>   1
Atom  49C    basis set group =>   1
Atom  50C    basis set group =>   1
Atom  51C    basis set group =>   1
Atom  52H    basis set group =>   3
Atom  53H    basis set group =>   3
Atom  54H    basis set group =>   3
Atom  55H    basis set group =>   3
Atom  56H    basis set group =>   3
Atom  57H    basis set group =>   3
Atom  58H    basis set group =>   3
Atom  59H    basis set group =>   3
Atom  60H    basis set group =>   3
Atom  61H    basis set group =>   3
Atom  62H    basis set group =>   3
Atom  63H    basis set group =>   3
Atom  64H    basis set group =>   3
Atom  65H    basis set group =>   3
Atom  66H    basis set group =>   3
Atom  67H    basis set group =>   3
Atom  68H    basis set group =>   3
Atom  69H    basis set group =>   3
Atom  70H    basis set group =>   3
Atom  71H    basis set group =>   3
Atom  72H    basis set group =>   3
Atom  73H    basis set group =>   3
Atom  74H    basis set group =>   3
Atom  75H    basis set group =>   3
Atom  76H    basis set group =>   3
Atom  77H    basis set group =>   3
Atom  78H    basis set group =>   3
Atom  79H    basis set group =>   3
Atom  80H    basis set group =>   3
Atom  81H    basis set group =>   3
Atom  82H    basis set group =>   3
Atom  83H    basis set group =>   3
Atom  84H    basis set group =>   3
Atom  85H    basis set group =>   3
Atom  86H    basis set group =>   3
Atom  87H    basis set group =>   3
Atom  88H    basis set group =>   3
Atom  89H    basis set group =>   3


           ************************************************************
           *        Program running with 16 parallel MPI-processes    *
           *              working on a common directory               *
           ************************************************************
------------------------------------------------------------------------------
                           ORCA GTO INTEGRAL CALCULATION
------------------------------------------------------------------------------
------------------------------------------------------------------------------
                   ___                                                        
                  /   \      - P O W E R E D   B Y -                         
                 /     \                                                     
                 |  |  |   _    _      __       _____    __    __             
                 |  |  |  | |  | |    /  \     |  _  \  |  |  /  |          
                  \  \/   | |  | |   /    \    | | | |  |  | /  /          
                 / \  \   | |__| |  /  /\  \   | |_| |  |  |/  /          
                |  |  |   |  __  | /  /__\  \  |    /   |      \           
                |  |  |   | |  | | |   __   |  |    \   |  |\   \          
                \     /   | |  | | |  |  |  |  | |\  \  |  | \   \       
                 \___/    |_|  |_| |__|  |__|  |_| \__\ |__|  \__/        
                                                                              
                      - O R C A' S   B I G   F R I E N D -                    
                                      &                                       
                       - I N T E G R A L  F E E D E R -                       
                                                                              
 v1 FN, 2020, v2 2021                                                         
------------------------------------------------------------------------------


Reading SHARK input file /scratch/allen/tmpyp4_amber_gaff2/conf1/conf1/Conf107.orca.SHARKINP.tmp ... ok
----------------------
SHARK INTEGRAL PACKAGE
----------------------

Number of atoms                             ...     90
Number of basis functions                   ...   1230
Number of shells                            ...    738
Maximum angular momentum                    ...      2
Integral batch strategy                     ... SHARK/LIBINT Hybrid
RI-J (if used) integral strategy            ... SPLIT-RIJ (Revised 2003 algorithm where possible)
Printlevel                                  ...      1
Contraction scheme used                     ... PARTIAL GENERAL contraction
Coulomb Range Separation                    ... NOT USED
Exchange Range Separation                   ... NOT USED
Finite Nucleus Model                        ... NOT USED
Auxiliary Coulomb fitting basis             ... NOT available
Auxiliary J/K fitting basis                 ... NOT available
Auxiliary Correlation fitting basis         ... NOT available
Auxiliary 'external' fitting basis          ... NOT available
Integral threshold                          ...     2.500000e-11
Primitive cut-off                           ...     2.500000e-12
Primitive pair pre-selection threshold      ...     2.500000e-12

Calculating pre-screening integrals         ... done (  0.1 sec) Dimension = 738
Calculating pre-screening integrals (ORCA)  ... done (  0.3 sec) Dimension = 426
Organizing shell pair data                  ... done (  0.5 sec)
Shell pair information
Total number of shell pairs                 ...    272691
Shell pairs after pre-screening             ...     71586
Total number of primitive shell pairs       ...    422091
Primitive shell pairs kept                  ...     92343
          la=0 lb=0:  29410 shell pairs
          la=1 lb=0:  25954 shell pairs
          la=1 lb=1:   4683 shell pairs
          la=2 lb=0:   7883 shell pairs
          la=2 lb=1:   3125 shell pairs
          la=2 lb=2:    531 shell pairs

Calculating one electron integrals          ... done (  0.2 sec)
Calculating Nuclear repulsion               ... done (  0.0 sec) ENN=   6222.587942341060 Eh

SHARK setup successfully completed in   1.7 seconds

Maximum memory used throughout the entire GTOINT-calculation: 99.0 MB


           ************************************************************
           *        Program running with 16 parallel MPI-processes    *
           *              working on a common directory               *
           ************************************************************
-------------------------------------------------------------------------------
                                 ORCA SCF
-------------------------------------------------------------------------------

------------
SCF SETTINGS
------------
Hamiltonian:
 Ab initio Hamiltonian  Method          .... Hartree-Fock(GTOs)


General Settings:
 Integral files         IntName         .... /scratch/allen/tmpyp4_amber_gaff2/conf1/conf1/Conf107.orca
 Hartree-Fock type      HFTyp           .... RHF
 Total Charge           Charge          ....    0
 Multiplicity           Mult            ....    1
 Number of Electrons    NEL             ....  358
 Basis Dimension        Dim             ....  918
 Nuclear Repulsion      ENuc            ....   6222.5879423411 Eh

Convergence Acceleration:
 DIIS                   CNVDIIS         .... on
   Start iteration      DIISMaxIt       ....    12
   Startup error        DIISStart       ....  0.200000
   # of expansion vecs  DIISMaxEq       ....     5
   Bias factor          DIISBfac        ....   1.050
   Max. coefficient     DIISMaxC        ....  10.000
 Trust-Rad. Augm. Hess. CNVTRAH         .... auto
   Auto Start mean grad. ratio tolernc. ....  1.125000
   Auto Start start iteration           ....    20
   Auto Start num. interpolation iter.  ....    10
   Max. Number of Micro iterations      ....    16
   Max. Number of Macro iterations      .... Maxiter - #DIIS iter
   Number of Davidson start vectors     ....     2
   Converg. threshold I  (grad. norm)   ....   1.000e-05
   Converg. threshold II (energy diff.) ....   1.000e-08
   Grad. Scal. Fac. for Micro threshold ....   0.100
   Minimum threshold for Micro iter.    ....   0.010
   NR start threshold (gradient norm)   ....   0.001
   Initial trust radius                 ....   0.400
   Minimum AH scaling param. (alpha)    ....   1.000
   Maximum AH scaling param. (alpha)    .... 1000.000
   Orbital update algorithm             .... Taylor
   White noise on init. David. guess    .... on
   Maximum white noise                  ....   0.010
   Quad. conv. algorithm                .... NR
 SOSCF                  CNVSOSCF        .... on
   Start iteration      SOSCFMaxIt      ....   150
   Startup grad/error   SOSCFStart      ....  0.003300
 Level Shifting         CNVShift        .... on
   Level shift para.    LevelShift      ....    0.2500
   Turn off err/grad.   ShiftErr        ....    0.0010
 Zerner damping         CNVZerner       .... off
 Static damping         CNVDamp         .... on
   Fraction old density DampFac         ....    0.7000
   Max. Damping (<1)    DampMax         ....    0.9800
   Min. Damping (>=0)   DampMin         ....    0.0000
   Turn off err/grad.   DampErr         ....    0.1000
 Fernandez-Rico         CNVRico         .... off

SCF Procedure:
 Maximum # iterations   MaxIter         ....   125
 SCF integral mode      SCFMode         .... Direct
   Integral package                     .... SHARK and LIBINT hybrid scheme
 Reset frequency        DirectResetFreq ....    20
 Integral Threshold     Thresh          ....  2.500e-11 Eh
 Primitive CutOff       TCut            ....  2.500e-12 Eh

Convergence Tolerance:
 Convergence Check Mode ConvCheckMode   .... Total+1el-Energy
 Convergence forced     ConvForced      .... 1
 Energy Change          TolE            ....  1.000e-08 Eh
 1-El. energy change                    ....  1.000e-05 Eh
 Orbital Gradient       TolG            ....  1.000e-05
 Orbital Rotation angle TolX            ....  1.000e-05
 DIIS Error             TolErr          ....  5.000e-07


Diagonalization of the overlap matrix:
Smallest eigenvalue                        ... 2.262e-04
Time for diagonalization                   ...    0.397 sec
Threshold for overlap eigenvalues          ... 1.000e-08
Number of eigenvalues below threshold      ... 0
Time for construction of square roots      ...    0.194 sec
Total time needed                          ...    0.596 sec

Time for model grid setup =    1.082 sec

------------------------------
INITIAL GUESS: MODEL POTENTIAL
------------------------------
Loading Hartree-Fock densities                     ... done
Calculating cut-offs                               ... done
Initializing the effective Hamiltonian             ... done
Setting up the integral package (SHARK)            ... done
Starting the Coulomb interaction                   ... done (   1.1 sec)
Reading the grid                                   ... done
Mapping shells                                     ... done
Starting the XC term evaluation                    ... done (   0.2 sec)
Transforming the Hamiltonian                       ... done (   0.2 sec)
Diagonalizing the Hamiltonian                      ... done (   0.3 sec)
Back transforming the eigenvectors                 ... done (   0.1 sec)
Now organizing SCF variables                       ... done
                      ------------------
                      INITIAL GUESS DONE (   3.0 sec)
                      ------------------
--------------
SCF ITERATIONS
--------------
ITER       Energy         Delta-E        Max-DP      RMS-DP      [F,P]     Damp
               ***  Starting incremental Fock matrix formation  ***
  0  -2121.6525624820   0.000000000000 0.06925461  0.00121117  0.2343783 0.7000
  1  -2122.3211796075  -0.668617125531 0.05260911  0.00098167  0.1449392 0.7000
                               ***Turning on DIIS***
  2  -2122.7367949851  -0.415615377588 0.11681312  0.00222092  0.0804900 0.0000
  3  -2117.6944675839   5.042327401230 0.03346133  0.00068692  0.0444444 0.0000
  4  -2123.4022150368  -5.707747452889 0.00893030  0.00022983  0.0071011 0.0000
  5  -2123.5837111825  -0.181496145751 0.00517156  0.00013720  0.0050256 0.0000
  6  -2123.5655076063   0.018203576165 0.00366454  0.00009135  0.0021447 0.0000
  7  -2123.6711313439  -0.105623737529 0.00318166  0.00007460  0.0016419 0.0000
  8  -2123.6973083277  -0.026176983796 0.00296338  0.00007335  0.0015291 0.0000
  9  -2123.6576631287   0.039645198995 0.00255682  0.00005208  0.0012026 0.0000
 10  -2123.6783998127  -0.020736684059 0.00625239  0.00011442  0.0009069 0.0000
                      *** Initiating the SOSCF procedure ***
                           *** Shutting down DIIS ***
                      *** Re-Reading the Fockian *** 
                      *** Removing any level shift *** 
ITER      Energy       Delta-E        Grad      Rot      Max-DP    RMS-DP
 11  -2123.52591098   0.1524888341  0.000246  0.000246  0.000269  0.000006
               *** Restarting incremental Fock matrix formation ***
 12  -2123.61544596  -0.0895349766  0.000926  0.006438  0.001479  0.000038
 13  -2123.61557258  -0.0001266291  0.001179  0.029811  0.007666  0.000137
 14  -2123.61578071  -0.0002081295  0.000385  0.003375  0.001028  0.000018
 15  -2123.61580841  -0.0000276982  0.000407  0.013240  0.002407  0.000048
 16  -2123.61584341  -0.0000349959  0.000256  0.008001  0.001397  0.000030
 17  -2123.61586004  -0.0000166285  0.000355  0.011415  0.001451  0.000036
 18  -2123.61587663  -0.0000165924  0.000252  0.008164  0.001316  0.000026
 19  -2123.61588553  -0.0000088984  0.000156  0.002847  0.000588  0.000009
 20  -2123.61588784  -0.0000023093  0.000101  0.001799  0.000346  0.000007
 21  -2123.61588949  -0.0000016524  0.000062  0.001751  0.000294  0.000007
 22  -2123.61589061  -0.0000011224  0.000051  0.001798  0.000334  0.000006
 23  -2123.61589125  -0.0000006427  0.000038  0.001154  0.000215  0.000004
 24  -2123.61589155  -0.0000002916  0.000020  0.000607  0.000133  0.000003
 25  -2123.61589170  -0.0000001497  0.000016  0.000469  0.000090  0.000002
 26  -2123.61589178  -0.0000000804  0.000014  0.000561  0.000099  0.000002
 27  -2123.61589183  -0.0000000576  0.000013  0.000436  0.000077  0.000002
 28  -2123.61589186  -0.0000000315  0.000008  0.000265  0.000044  0.000001
 29  -2123.61589189  -0.0000000209  0.000005  0.000092  0.000019  0.000000
                  ***Gradient check signals convergence***
              ***Rediagonalizing the Fockian in SOSCF/NRSCF***

               *****************************************************
               *                     SUCCESS                       *
               *           SCF CONVERGED AFTER  30 CYCLES          *
               *****************************************************


----------------
TOTAL SCF ENERGY
----------------

Total Energy       :        -2123.61589189 Eh          -57786.52623 eV

Components:
Nuclear Repulsion  :         6222.58794234 Eh          169325.22624 eV
Electronic Energy  :        -8346.20383423 Eh         -227111.75247 eV
One Electron Energy:       -15286.59533667 Eh         -415969.40659 eV
Two Electron Energy:         6940.39150244 Eh          188857.65412 eV

Virial components:
Potential Energy   :        -4245.59570776 Eh         -115528.53257 eV
Kinetic Energy     :         2121.97981587 Eh           57742.00634 eV
Virial Ratio       :            2.00077101


---------------
SCF CONVERGENCE
---------------

  Last Energy change         ...   -7.9126e-09  Tolerance :   1.0000e-08
  Last MAX-Density change    ...    8.8937e-06  Tolerance :   1.0000e-07
  Last RMS-Density change    ...    2.0186e-07  Tolerance :   5.0000e-09
  Last Orbital Gradient      ...    2.2318e-06  Tolerance :   1.0000e-05
  Last Orbital Rotation      ...    3.1044e-05  Tolerance :   1.0000e-05

             **** THE GBW FILE WAS UPDATED (/scratch/allen/tmpyp4_amber_gaff2/conf1/conf1/Conf107.orca.gbw) ****
             **** DENSITY /scratch/allen/tmpyp4_amber_gaff2/conf1/conf1/Conf107.orca.scfp WAS UPDATED ****
             **** ENERGY FILE WAS UPDATED (/scratch/allen/tmpyp4_amber_gaff2/conf1/conf1/Conf107.orca.en.tmp) ****
             **** THE GBW FILE WAS UPDATED (/scratch/allen/tmpyp4_amber_gaff2/conf1/conf1/Conf107.orca.gbw) ****
             **** DENSITY /scratch/allen/tmpyp4_amber_gaff2/conf1/conf1/Conf107.orca.scfp WAS UPDATED ****
----------------
ORBITAL ENERGIES
----------------

  NO   OCC          E(Eh)            E(eV) 
   0   2.0000     -15.673072      -426.4860 
   1   2.0000     -15.637275      -425.5119 
   2   2.0000     -15.624423      -425.1622 
   3   2.0000     -15.603079      -424.5814 
   4   2.0000     -15.517405      -422.2500 
   5   2.0000     -15.510827      -422.0711 
   6   2.0000     -15.447780      -420.3555 
   7   2.0000     -15.433978      -419.9799 
   8   2.0000     -11.322932      -308.1126 
   9   2.0000     -11.321772      -308.0811 
  10   2.0000     -11.320497      -308.0464 
  11   2.0000     -11.301469      -307.5286 
  12   2.0000     -11.295471      -307.3654 
  13   2.0000     -11.293140      -307.3020 
  14   2.0000     -11.290054      -307.2180 
  15   2.0000     -11.284157      -307.0575 
  16   2.0000     -11.279999      -306.9444 
  17   2.0000     -11.278921      -306.9150 
  18   2.0000     -11.272275      -306.7342 
  19   2.0000     -11.265627      -306.5533 
  20   2.0000     -11.262188      -306.4597 
  21   2.0000     -11.257042      -306.3197 
  22   2.0000     -11.256949      -306.3172 
  23   2.0000     -11.240636      -305.8732 
  24   2.0000     -11.232811      -305.6603 
  25   2.0000     -11.231995      -305.6381 
  26   2.0000     -11.228579      -305.5452 
  27   2.0000     -11.222954      -305.3921 
  28   2.0000     -11.222801      -305.3880 
  29   2.0000     -11.209213      -305.0182 
  30   2.0000     -11.207731      -304.9779 
  31   2.0000     -11.206924      -304.9559 
  32   2.0000     -11.201858      -304.8180 
  33   2.0000     -11.201734      -304.8147 
  34   2.0000     -11.189202      -304.4737 
  35   2.0000     -11.189092      -304.4707 
  36   2.0000     -11.183130      -304.3084 
  37   2.0000     -11.182929      -304.3030 
  38   2.0000     -11.180663      -304.2413 
  39   2.0000     -11.168888      -303.9209 
  40   2.0000     -11.165156      -303.8193 
  41   2.0000     -11.162681      -303.7520 
  42   2.0000     -11.158298      -303.6327 
  43   2.0000     -11.156420      -303.5816 
  44   2.0000     -11.155815      -303.5652 
  45   2.0000     -11.155300      -303.5511 
  46   2.0000     -11.152499      -303.4749 
  47   2.0000     -11.152224      -303.4674 
  48   2.0000     -11.149718      -303.3993 
  49   2.0000     -11.143580      -303.2322 
  50   2.0000     -11.127057      -302.7826 
  51   2.0000     -11.124264      -302.7066 
  52   2.0000      -1.353545       -36.8318 
  53   2.0000      -1.324066       -36.0297 
  54   2.0000      -1.312636       -35.7186 
  55   2.0000      -1.294686       -35.2302 
  56   2.0000      -1.218107       -33.1464 
  57   2.0000      -1.207801       -32.8659 
  58   2.0000      -1.168211       -31.7886 
  59   2.0000      -1.146047       -31.1855 
  60   2.0000      -1.136191       -30.9173 
  61   2.0000      -1.111966       -30.2581 
  62   2.0000      -1.101930       -29.9850 
  63   2.0000      -1.085983       -29.5511 
  64   2.0000      -1.075114       -29.2553 
  65   2.0000      -1.047939       -28.5159 
  66   2.0000      -1.037259       -28.2252 
  67   2.0000      -1.034518       -28.1507 
  68   2.0000      -1.020627       -27.7727 
  69   2.0000      -1.013653       -27.5829 
  70   2.0000      -1.005709       -27.3667 
  71   2.0000      -0.990396       -26.9501 
  72   2.0000      -0.983564       -26.7641 
  73   2.0000      -0.975840       -26.5540 
  74   2.0000      -0.970674       -26.4134 
  75   2.0000      -0.959681       -26.1142 
  76   2.0000      -0.950566       -25.8662 
  77   2.0000      -0.946226       -25.7481 
  78   2.0000      -0.928283       -25.2599 
  79   2.0000      -0.919854       -25.0305 
  80   2.0000      -0.902225       -24.5508 
  81   2.0000      -0.888634       -24.1810 
  82   2.0000      -0.875162       -23.8144 
  83   2.0000      -0.867315       -23.6008 
  84   2.0000      -0.864243       -23.5172 
  85   2.0000      -0.853250       -23.2181 
  86   2.0000      -0.846757       -23.0414 
  87   2.0000      -0.833102       -22.6699 
  88   2.0000      -0.822373       -22.3779 
  89   2.0000      -0.796456       -21.6727 
  90   2.0000      -0.793484       -21.5918 
  91   2.0000      -0.747454       -20.3393 
  92   2.0000      -0.733644       -19.9635 
  93   2.0000      -0.726780       -19.7767 
  94   2.0000      -0.722323       -19.6554 
  95   2.0000      -0.716023       -19.4840 
  96   2.0000      -0.710022       -19.3207 
  97   2.0000      -0.706387       -19.2218 
  98   2.0000      -0.701374       -19.0854 
  99   2.0000      -0.694081       -18.8869 
 100   2.0000      -0.693333       -18.8665 
 101   2.0000      -0.682324       -18.5670 
 102   2.0000      -0.678965       -18.4756 
 103   2.0000      -0.678258       -18.4563 
 104   2.0000      -0.672672       -18.3043 
 105   2.0000      -0.668449       -18.1894 
 106   2.0000      -0.665340       -18.1048 
 107   2.0000      -0.657126       -17.8813 
 108   2.0000      -0.655204       -17.8290 
 109   2.0000      -0.652826       -17.7643 
 110   2.0000      -0.649045       -17.6614 
 111   2.0000      -0.646442       -17.5906 
 112   2.0000      -0.640416       -17.4266 
 113   2.0000      -0.639725       -17.4078 
 114   2.0000      -0.634415       -17.2633 
 115   2.0000      -0.630977       -17.1698 
 116   2.0000      -0.622400       -16.9364 
 117   2.0000      -0.616218       -16.7681 
 118   2.0000      -0.614297       -16.7159 
 119   2.0000      -0.609222       -16.5778 
 120   2.0000      -0.605805       -16.4848 
 121   2.0000      -0.604983       -16.4624 
 122   2.0000      -0.596074       -16.2200 
 123   2.0000      -0.590121       -16.0580 
 124   2.0000      -0.589353       -16.0371 
 125   2.0000      -0.583487       -15.8775 
 126   2.0000      -0.575559       -15.6618 
 127   2.0000      -0.572840       -15.5878 
 128   2.0000      -0.565945       -15.4001 
 129   2.0000      -0.561435       -15.2774 
 130   2.0000      -0.557643       -15.1742 
 131   2.0000      -0.547607       -14.9011 
 132   2.0000      -0.540041       -14.6953 
 133   2.0000      -0.539340       -14.6762 
 134   2.0000      -0.534231       -14.5372 
 135   2.0000      -0.531516       -14.4633 
 136   2.0000      -0.522159       -14.2087 
 137   2.0000      -0.519888       -14.1469 
 138   2.0000      -0.515844       -14.0368 
 139   2.0000      -0.512684       -13.9508 
 140   2.0000      -0.510038       -13.8789 
 141   2.0000      -0.507763       -13.8169 
 142   2.0000      -0.502074       -13.6621 
 143   2.0000      -0.499662       -13.5965 
 144   2.0000      -0.496372       -13.5070 
 145   2.0000      -0.495704       -13.4888 
 146   2.0000      -0.493344       -13.4246 
 147   2.0000      -0.487235       -13.2583 
 148   2.0000      -0.483538       -13.1577 
 149   2.0000      -0.464864       -12.6496 
 150   2.0000      -0.462049       -12.5730 
 151   2.0000      -0.455038       -12.3822 
 152   2.0000      -0.449233       -12.2242 
 153   2.0000      -0.442154       -12.0316 
 154   2.0000      -0.439871       -11.9695 
 155   2.0000      -0.438578       -11.9343 
 156   2.0000      -0.428675       -11.6649 
 157   2.0000      -0.421539       -11.4707 
 158   2.0000      -0.397813       -10.8251 
 159   2.0000      -0.384725       -10.4689 
 160   2.0000      -0.381538       -10.3822 
 161   2.0000      -0.372736       -10.1427 
 162   2.0000      -0.362724        -9.8702 
 163   2.0000      -0.358572        -9.7572 
 164   2.0000      -0.349408        -9.5079 
 165   2.0000      -0.338914        -9.2223 
 166   2.0000      -0.336460        -9.1555 
 167   2.0000      -0.335252        -9.1227 
 168   2.0000      -0.319712        -8.6998 
 169   2.0000      -0.299540        -8.1509 
 170   2.0000      -0.296714        -8.0740 
 171   2.0000      -0.285691        -7.7740 
 172   2.0000      -0.283772        -7.7218 
 173   2.0000      -0.260603        -7.0914 
 174   2.0000      -0.238218        -6.4822 
 175   2.0000      -0.185437        -5.0460 
 176   2.0000      -0.175159        -4.7663 
 177   2.0000      -0.062496        -1.7006 
 178   2.0000      -0.052043        -1.4162 
 179   0.0000       0.033552         0.9130 
 180   0.0000       0.064453         1.7539 
 181   0.0000       0.091819         2.4985 
 182   0.0000       0.096515         2.6263 
 183   0.0000       0.112561         3.0629 
 184   0.0000       0.135633         3.6908 
 185   0.0000       0.145204         3.9512 
 186   0.0000       0.145685         3.9643 
 187   0.0000       0.159940         4.3522 
 188   0.0000       0.162998         4.4354 
 189   0.0000       0.163316         4.4441 
 190   0.0000       0.170356         4.6356 
 191   0.0000       0.181508         4.9391 
 192   0.0000       0.184913         5.0317 
 193   0.0000       0.188666         5.1339 
 194   0.0000       0.202346         5.5061 
 195   0.0000       0.207449         5.6450 
 196   0.0000       0.210165         5.7189 
 197   0.0000       0.214314         5.8318 
 198   0.0000       0.221133         6.0173 
 199   0.0000       0.222045         6.0421 
 200   0.0000       0.225244         6.1292 
 201   0.0000       0.237585         6.4650 
 202   0.0000       0.238822         6.4987 
 203   0.0000       0.244121         6.6429 
 204   0.0000       0.248743         6.7686 
 205   0.0000       0.254436         6.9235 
 206   0.0000       0.255448         6.9511 
 207   0.0000       0.258179         7.0254 
 208   0.0000       0.261287         7.1100 
 209   0.0000       0.263649         7.1742 
 210   0.0000       0.265910         7.2358 
 211   0.0000       0.269067         7.3217 
 212   0.0000       0.270036         7.3481 
 213   0.0000       0.273313         7.4372 
 214   0.0000       0.274444         7.4680 
 215   0.0000       0.276065         7.5121 
 216   0.0000       0.279896         7.6163 
 217   0.0000       0.284196         7.7334 
 218   0.0000       0.286112         7.7855 
 219   0.0000       0.287888         7.8338 
 220   0.0000       0.291406         7.9296 
 221   0.0000       0.293637         7.9903 
 222   0.0000       0.295459         8.0399 
 223   0.0000       0.296743         8.0748 
 224   0.0000       0.297213         8.0876 
 225   0.0000       0.302789         8.2393 
 226   0.0000       0.303873         8.2688 
 227   0.0000       0.307202         8.3594 
 228   0.0000       0.308582         8.3969 
 229   0.0000       0.313679         8.5356 
 230   0.0000       0.316284         8.6065 
 231   0.0000       0.320992         8.7346 
 232   0.0000       0.324308         8.8249 
 233   0.0000       0.329658         8.9704 
 234   0.0000       0.334209         9.0943 
 235   0.0000       0.346053         9.4166 
 236   0.0000       0.358310         9.7501 
 237   0.0000       0.373486        10.1631 
 238   0.0000       0.396118        10.7789 
 239   0.0000       0.396811        10.7978 
 240   0.0000       0.403443        10.9782 
 241   0.0000       0.411334        11.1930 
 242   0.0000       0.416342        11.3292 
 243   0.0000       0.416657        11.3378 
 244   0.0000       0.423049        11.5117 
 245   0.0000       0.431764        11.7489 
 246   0.0000       0.434086        11.8121 
 247   0.0000       0.438637        11.9359 
 248   0.0000       0.443031        12.0555 
 249   0.0000       0.446978        12.1629 
 250   0.0000       0.447895        12.1878 
 251   0.0000       0.454851        12.3771 
 252   0.0000       0.457525        12.4499 
 253   0.0000       0.461715        12.5639 
 254   0.0000       0.469857        12.7855 
 255   0.0000       0.477221        12.9858 
 256   0.0000       0.482899        13.1403 
 257   0.0000       0.486591        13.2408 
 258   0.0000       0.486817        13.2470 
 259   0.0000       0.494331        13.4514 
 260   0.0000       0.499704        13.5976 
 261   0.0000       0.503580        13.7031 
 262   0.0000       0.506586        13.7849 
 263   0.0000       0.507626        13.8132 
 264   0.0000       0.512722        13.9519 
 265   0.0000       0.516986        14.0679 
 266   0.0000       0.522153        14.2085 
 267   0.0000       0.526058        14.3148 
 268   0.0000       0.532181        14.4814 
 269   0.0000       0.535966        14.5844 
 270   0.0000       0.543408        14.7869 
 271   0.0000       0.544895        14.8274 
 272   0.0000       0.545367        14.8402 
 273   0.0000       0.553992        15.0749 
 274   0.0000       0.563861        15.3434 
 275   0.0000       0.566088        15.4041 
 276   0.0000       0.569285        15.4910 
 277   0.0000       0.572735        15.5849 
 278   0.0000       0.578261        15.7353 
 279   0.0000       0.579761        15.7761 
 280   0.0000       0.587439        15.9850 
 281   0.0000       0.591055        16.0834 
 282   0.0000       0.593057        16.1379 
 283   0.0000       0.597497        16.2587 
 284   0.0000       0.600623        16.3438 
 285   0.0000       0.601625        16.3711 
 286   0.0000       0.607383        16.5277 
 287   0.0000       0.614265        16.7150 
 288   0.0000       0.614414        16.7191 
 289   0.0000       0.616828        16.7848 
 290   0.0000       0.622903        16.9500 
 291   0.0000       0.626621        17.0512 
 292   0.0000       0.629323        17.1247 
 293   0.0000       0.635287        17.2870 
 294   0.0000       0.644759        17.5448 
 295   0.0000       0.649090        17.6626 
 296   0.0000       0.653610        17.7856 
 297   0.0000       0.659875        17.9561 
 298   0.0000       0.664149        18.0724 
 299   0.0000       0.665443        18.1076 
 300   0.0000       0.670401        18.2425 
 301   0.0000       0.673958        18.3393 
 302   0.0000       0.676257        18.4019 
 303   0.0000       0.678326        18.4582 
 304   0.0000       0.683205        18.5910 
 305   0.0000       0.685359        18.6496 
 306   0.0000       0.686954        18.6930 
 307   0.0000       0.688017        18.7219 
 308   0.0000       0.691119        18.8063 
 309   0.0000       0.695894        18.9362 
 310   0.0000       0.700253        19.0548 
 311   0.0000       0.702593        19.1185 
 312   0.0000       0.709778        19.3140 
 313   0.0000       0.710428        19.3317 
 314   0.0000       0.710917        19.3450 
 315   0.0000       0.714101        19.4317 
 316   0.0000       0.717039        19.5116 
 317   0.0000       0.719890        19.5892 
 318   0.0000       0.721684        19.6380 
 319   0.0000       0.722799        19.6684 
 320   0.0000       0.724016        19.7015 
 321   0.0000       0.729044        19.8383 
 322   0.0000       0.730869        19.8880 
 323   0.0000       0.735263        20.0075 
 324   0.0000       0.736511        20.0415 
 325   0.0000       0.738921        20.1071 
 326   0.0000       0.740609        20.1530 
 327   0.0000       0.741857        20.1869 
 328   0.0000       0.748969        20.3805 
 329   0.0000       0.751657        20.4536 
 330   0.0000       0.754839        20.5402 
 331   0.0000       0.756909        20.5965 
 332   0.0000       0.758327        20.6351 
 333   0.0000       0.761655        20.7257 
 334   0.0000       0.765774        20.8378 
 335   0.0000       0.770152        20.9569 
 336   0.0000       0.775139        21.0926 
 337   0.0000       0.777726        21.1630 
 338   0.0000       0.784758        21.3544 
 339   0.0000       0.785973        21.3874 
 340   0.0000       0.788331        21.4516 
 341   0.0000       0.792296        21.5595 
 342   0.0000       0.795595        21.6493 
 343   0.0000       0.797511        21.7014 
 344   0.0000       0.802136        21.8272 
 345   0.0000       0.806312        21.9409 
 346   0.0000       0.810230        22.0475 
 347   0.0000       0.811435        22.0803 
 348   0.0000       0.814558        22.1653 
 349   0.0000       0.815408        22.1884 
 350   0.0000       0.818970        22.2853 
 351   0.0000       0.819956        22.3121 
 352   0.0000       0.823420        22.4064 
 353   0.0000       0.824136        22.4259 
 354   0.0000       0.826268        22.4839 
 355   0.0000       0.828407        22.5421 
 356   0.0000       0.832445        22.6520 
 357   0.0000       0.835169        22.7261 
 358   0.0000       0.837202        22.7814 
 359   0.0000       0.837899        22.8004 
 360   0.0000       0.840932        22.8829 
 361   0.0000       0.842981        22.9387 
 362   0.0000       0.845631        23.0108 
 363   0.0000       0.847835        23.0708 
 364   0.0000       0.851197        23.1622 
 365   0.0000       0.851819        23.1792 
 366   0.0000       0.855335        23.2748 
 367   0.0000       0.857826        23.3426 
 368   0.0000       0.860180        23.4067 
 369   0.0000       0.862280        23.4638 
 370   0.0000       0.865248        23.5446 
 371   0.0000       0.866975        23.5916 
 372   0.0000       0.873929        23.7808 
 373   0.0000       0.875035        23.8109 
 374   0.0000       0.878591        23.9077 
 375   0.0000       0.881862        23.9967 
 376   0.0000       0.885452        24.0944 
 377   0.0000       0.888739        24.1838 
 378   0.0000       0.890146        24.2221 
 379   0.0000       0.890457        24.2306 
 380   0.0000       0.895716        24.3737 
 381   0.0000       0.899473        24.4759 
 382   0.0000       0.901128        24.5209 
 383   0.0000       0.903359        24.5816 
 384   0.0000       0.904897        24.6235 
 385   0.0000       0.906838        24.6763 
 386   0.0000       0.908386        24.7184 
 387   0.0000       0.911217        24.7955 
 388   0.0000       0.915011        24.8987 
 389   0.0000       0.917122        24.9562 
 390   0.0000       0.920544        25.0493 
 391   0.0000       0.921397        25.0725 
 392   0.0000       0.923107        25.1190 
 393   0.0000       0.925942        25.1962 
 394   0.0000       0.928176        25.2569 
 395   0.0000       0.930557        25.3217 
 396   0.0000       0.932504        25.3747 
 397   0.0000       0.934656        25.4333 
 398   0.0000       0.938357        25.5340 
 399   0.0000       0.941716        25.6254 
 400   0.0000       0.944794        25.7091 
 401   0.0000       0.948598        25.8127 
 402   0.0000       0.951913        25.9029 
 403   0.0000       0.955892        26.0111 
 404   0.0000       0.957237        26.0477 
 405   0.0000       0.958530        26.0829 
 406   0.0000       0.959072        26.0977 
 407   0.0000       0.963660        26.2225 
 408   0.0000       0.965501        26.2726 
 409   0.0000       0.967045        26.3146 
 410   0.0000       0.975388        26.5416 
 411   0.0000       0.980286        26.6749 
 412   0.0000       0.984877        26.7999 
 413   0.0000       0.986742        26.8506 
 414   0.0000       0.993894        27.0452 
 415   0.0000       0.994142        27.0520 
 416   0.0000       1.001919        27.2636 
 417   0.0000       1.004900        27.3447 
 418   0.0000       1.008529        27.4435 
 419   0.0000       1.016619        27.6636 
 420   0.0000       1.023369        27.8473 
 421   0.0000       1.028732        27.9932 
 422   0.0000       1.033216        28.1152 
 423   0.0000       1.036619        28.2078 
 424   0.0000       1.042784        28.3756 
 425   0.0000       1.048913        28.5424 
 426   0.0000       1.055337        28.7172 
 427   0.0000       1.059143        28.8207 
 428   0.0000       1.067836        29.0573 
 429   0.0000       1.070109        29.1191 
 430   0.0000       1.080100        29.3910 
 431   0.0000       1.083398        29.4808 
 432   0.0000       1.087846        29.6018 
 433   0.0000       1.090248        29.6672 
 434   0.0000       1.097993        29.8779 
 435   0.0000       1.099871        29.9290 
 436   0.0000       1.104679        30.0598 
 437   0.0000       1.111538        30.2465 
 438   0.0000       1.114838        30.3363 
 439   0.0000       1.116731        30.3878 
 440   0.0000       1.118942        30.4480 
 441   0.0000       1.123743        30.5786 
 442   0.0000       1.126902        30.6646 
 443   0.0000       1.129768        30.7425 
 444   0.0000       1.134820        30.8800 
 445   0.0000       1.135345        30.8943 
 446   0.0000       1.138650        30.9842 
 447   0.0000       1.142144        31.0793 
 448   0.0000       1.143828        31.1252 
 449   0.0000       1.149583        31.2817 
 450   0.0000       1.153762        31.3955 
 451   0.0000       1.155879        31.4531 
 452   0.0000       1.158461        31.5233 
 453   0.0000       1.159411        31.5492 
 454   0.0000       1.161052        31.5938 
 455   0.0000       1.169241        31.8167 
 456   0.0000       1.170880        31.8613 
 457   0.0000       1.176318        32.0092 
 458   0.0000       1.178771        32.0760 
 459   0.0000       1.186869        32.2963 
 460   0.0000       1.188096        32.3297 
 461   0.0000       1.191053        32.4102 
 462   0.0000       1.201506        32.6947 
 463   0.0000       1.207731        32.8640 
 464   0.0000       1.210103        32.9286 
 465   0.0000       1.211022        32.9536 
 466   0.0000       1.212581        32.9960 
 467   0.0000       1.217694        33.1351 
 468   0.0000       1.224058        33.3083 
 469   0.0000       1.227140        33.3922 
 470   0.0000       1.228126        33.4190 
 471   0.0000       1.231088        33.4996 
 472   0.0000       1.238116        33.6909 
 473   0.0000       1.241403        33.7803 
 474   0.0000       1.244017        33.8514 
 475   0.0000       1.248488        33.9731 
 476   0.0000       1.249373        33.9972 
 477   0.0000       1.249584        34.0029 
 478   0.0000       1.255196        34.1556 
 479   0.0000       1.256149        34.1815 
 480   0.0000       1.259679        34.2776 
 481   0.0000       1.262199        34.3462 
 482   0.0000       1.264661        34.4132 
 483   0.0000       1.269143        34.5351 
 484   0.0000       1.270891        34.5827 
 485   0.0000       1.277530        34.7634 
 486   0.0000       1.279358        34.8131 
 487   0.0000       1.284092        34.9419 
 488   0.0000       1.289195        35.0808 
 489   0.0000       1.291763        35.1507 
 490   0.0000       1.294976        35.2381 
 491   0.0000       1.298493        35.3338 
 492   0.0000       1.305285        35.5186 
 493   0.0000       1.307391        35.5759 
 494   0.0000       1.310360        35.6567 
 495   0.0000       1.314138        35.7595 
 496   0.0000       1.317690        35.8562 
 497   0.0000       1.319500        35.9054 
 498   0.0000       1.331456        36.2308 
 499   0.0000       1.331863        36.2418 
 500   0.0000       1.334250        36.3068 
 501   0.0000       1.335720        36.3468 
 502   0.0000       1.340181        36.4682 
 503   0.0000       1.342892        36.5419 
 504   0.0000       1.345029        36.6001 
 505   0.0000       1.350526        36.7497 
[...]
      pz      :     0.021836  p :     0.079375
      px      :     0.043010
      py      :     0.014529
 77 H s       :     0.893321  s :     0.893321
      pz      :     0.047299  p :     0.078529
      px      :     0.015005
      py      :     0.016224
 78 H s       :     0.893745  s :     0.893745
      pz      :     0.025535  p :     0.078446
      px      :     0.020654
      py      :     0.032257
 79 H s       :     0.907689  s :     0.907689
      pz      :     0.022405  p :     0.087071
      px      :     0.021858
      py      :     0.042808
 80 H s       :     0.876664  s :     0.876664
      pz      :     0.038401  p :     0.083504
      px      :     0.029636
      py      :     0.015468
 81 H s       :     0.887907  s :     0.887907
      pz      :     0.037647  p :     0.083511
      px      :     0.016088
      py      :     0.029776
 82 H s       :     0.914651  s :     0.914651
      pz      :     0.022359  p :     0.087032
      px      :     0.031067
      py      :     0.033606
 83 H s       :     0.872185  s :     0.872185
      pz      :     0.039213  p :     0.083797
      px      :     0.015243
      py      :     0.029341
 84 H s       :     0.887946  s :     0.887946
      pz      :     0.035810  p :     0.084134
      px      :     0.031765
      py      :     0.016558
 85 H s       :     0.894953  s :     0.894953
      pz      :     0.022508  p :     0.079655
      px      :     0.014122
      py      :     0.043026
 86 H s       :     0.890621  s :     0.890621
      pz      :     0.024713  p :     0.078889
      px      :     0.033003
      py      :     0.021174
 87 H s       :     0.890700  s :     0.890700
      pz      :     0.047883  p :     0.078646
      px      :     0.015638
      py      :     0.015125
 88 H s       :     0.917002  s :     0.917002
      pz      :     0.022435  p :     0.086889
      px      :     0.042134
      py      :     0.022319
 89 H s       :     0.873724  s :     0.873724
      pz      :     0.037864  p :     0.084002
      px      :     0.030503
      py      :     0.015635


                      *****************************
                      * MAYER POPULATION ANALYSIS *
                      *****************************

  NA   - Mulliken gross atomic population
  ZA   - Total nuclear charge
  QA   - Mulliken gross atomic charge
  VA   - Mayer's total valence
  BVA  - Mayer's bonded valence
  FA   - Mayer's free valence

  ATOM       NA         ZA         QA         VA         BVA        FA
  0 C      5.7793     6.0000     0.2207     3.8148     3.8148     0.0000
  1 N      7.4273     7.0000    -0.4273     3.4260     3.4260     0.0000
  2 C      6.0674     6.0000    -0.0674     3.9176     3.9176    -0.0000
  3 N      7.3415     7.0000    -0.3415     3.4313     3.4313    -0.0000
  4 C      6.0835     6.0000    -0.0835     3.9750     3.9750    -0.0000
  5 N      7.5641     7.0000    -0.5641     3.0751     3.0751    -0.0000
  6 C      6.0345     6.0000    -0.0345     3.9751     3.9751    -0.0000
  7 N      7.3374     7.0000    -0.3374     3.4437     3.4437    -0.0000
  8 C      5.7819     6.0000     0.2181     3.8145     3.8145     0.0000
  9 N      7.5647     7.0000    -0.5647     3.0892     3.0892    -0.0000
 10 C      5.8912     6.0000     0.1088     3.8761     3.8761     0.0000
 11 N      7.4380     7.0000    -0.4380     3.3821     3.3821    -0.0000
 12 C      6.0607     6.0000    -0.0607     3.9129     3.9129     0.0000
 13 N      7.4465     7.0000    -0.4465     3.3429     3.3429     0.0000
 14 C      5.7749     6.0000     0.2251     3.8045     3.8045     0.0000
 15 N      7.4410     7.0000    -0.4410     3.3684     3.3684    -0.0000
 16 C      5.7520     6.0000     0.2480     3.8005     3.8005    -0.0000
 17 C      6.0395     6.0000    -0.0395     3.9781     3.9781     0.0000
 18 C      6.1812     6.0000    -0.1812     3.7063     3.7063     0.0000
 19 C      5.7738     6.0000     0.2262     3.8962     3.8962     0.0000
 20 C      5.8018     6.0000     0.1982     3.8223     3.8223    -0.0000
 21 C      6.0673     6.0000    -0.0673     3.8972     3.8972    -0.0000
 22 C      6.0866     6.0000    -0.0866     3.9847     3.9847    -0.0000
 23 C      6.0595     6.0000    -0.0595     3.9882     3.9882     0.0000
 24 C      5.7852     6.0000     0.2148     3.8268     3.8268    -0.0000
 25 C      5.8860     6.0000     0.1140     3.8907     3.8907     0.0000
 26 C      6.0707     6.0000    -0.0707     3.9046     3.9046    -0.0000
 27 C      5.7628     6.0000     0.2372     3.8966     3.8966    -0.0000
 28 C      6.0443     6.0000    -0.0443     3.9888     3.9888    -0.0000
 29 C      6.1918     6.0000    -0.1918     3.7291     3.7291    -0.0000
 30 C      5.7732     6.0000     0.2268     3.7850     3.7850    -0.0000
 31 C      5.8027     6.0000     0.1973     3.8315     3.8315    -0.0000
 32 C      6.0652     6.0000    -0.0652     3.9147     3.9147    -0.0000
 33 C      6.0944     6.0000    -0.0944     3.9859     3.9859     0.0000
 34 C      6.0499     6.0000    -0.0499     3.9967     3.9967    -0.0000
 35 C      5.8118     6.0000     0.1882     3.8283     3.8283     0.0000
 36 C      5.8817     6.0000     0.1183     3.9030     3.9030    -0.0000
 37 C      6.0687     6.0000    -0.0687     3.9159     3.9159    -0.0000
 38 C      5.7581     6.0000     0.2419     3.7973     3.7973    -0.0000
 39 C      6.0641     6.0000    -0.0641     3.9960     3.9960     0.0000
 40 C      6.1977     6.0000    -0.1977     3.7484     3.7484    -0.0000
 41 C      5.7828     6.0000     0.2172     3.8766     3.8766    -0.0000
 42 C      5.7911     6.0000     0.2089     3.8302     3.8302    -0.0000
 43 C      6.0758     6.0000    -0.0758     3.9048     3.9048    -0.0000
 44 C      6.0896     6.0000    -0.0896     3.9847     3.9847    -0.0000
 45 C      6.0443     6.0000    -0.0443     3.9942     3.9942    -0.0000
 46 C      5.8069     6.0000     0.1931     3.8224     3.8224    -0.0000
 47 C      5.8839     6.0000     0.1161     3.8953     3.8953     0.0000
 48 C      6.0800     6.0000    -0.0800     3.8995     3.8995    -0.0000
 49 C      5.7848     6.0000     0.2152     3.8728     3.8728    -0.0000
 50 C      6.0608     6.0000    -0.0608     3.9899     3.9899     0.0000
 51 C      6.1902     6.0000    -0.1902     3.7385     3.7385    -0.0000
 52 H      0.9309     1.0000     0.0691     0.9838     0.9838     0.0000
 53 H      1.0107     1.0000    -0.0107     1.0010     1.0010    -0.0000
 54 H      0.9431     1.0000     0.0569     1.0056     1.0056     0.0000
 55 H      0.9320     1.0000     0.0680     0.9844     0.9844    -0.0000
 56 H      0.9269     1.0000     0.0731     0.9725     0.9725     0.0000
 57 H      0.9329     1.0000     0.0671     0.9839     0.9839    -0.0000
 58 H      0.9341     1.0000     0.0659     0.9868     0.9868    -0.0000
 59 H      1.0227     1.0000    -0.0227     0.9968     0.9968     0.0000
 60 H      0.9449     1.0000     0.0551     1.0071     1.0071     0.0000
 61 H      0.8249     1.0000     0.1751     1.0432     1.0432     0.0000
 62 H      0.8299     1.0000     0.1701     1.0434     1.0434    -0.0000
 63 H      0.9444     1.0000     0.0556     0.9858     0.9858    -0.0000
 64 H      1.0292     1.0000    -0.0292     0.9938     0.9938    -0.0000
 65 H      0.9559     1.0000     0.0441     1.0085     1.0085     0.0000
 66 H      0.9428     1.0000     0.0572     0.9847     0.9847    -0.0000
 67 H      0.9387     1.0000     0.0613     0.9718     0.9718     0.0000
 68 H      0.9424     1.0000     0.0576     0.9866     0.9866    -0.0000
 69 H      0.9403     1.0000     0.0597     0.9831     0.9831    -0.0000
 70 H      1.0190     1.0000    -0.0190     0.9962     0.9962    -0.0000
 71 H      0.9515     1.0000     0.0485     1.0072     1.0072    -0.0000
 72 H      0.9549     1.0000     0.0451     0.9857     0.9857    -0.0000
 73 H      1.0177     1.0000    -0.0177     0.9971     0.9971     0.0000
 74 H      0.9636     1.0000     0.0364     1.0095     1.0095    -0.0000
 75 H      0.9561     1.0000     0.0439     0.9864     0.9864     0.0000
 76 H      0.9475     1.0000     0.0525     0.9708     0.9708     0.0000
 77 H      0.9491     1.0000     0.0509     0.9846     0.9846    -0.0000
 78 H      0.9499     1.0000     0.0501     0.9840     0.9840     0.0000
 79 H      1.0123     1.0000    -0.0123     1.0010     1.0010    -0.0000
 80 H      0.9637     1.0000     0.0363     1.0066     1.0066     0.0000
 81 H      0.9479     1.0000     0.0521     0.9853     0.9853     0.0000
 82 H      1.0235     1.0000    -0.0235     0.9947     0.9947     0.0000
 83 H      0.9568     1.0000     0.0432     1.0102     1.0102     0.0000
 84 H      0.9488     1.0000     0.0512     0.9860     0.9860    -0.0000
 85 H      0.9434     1.0000     0.0566     0.9714     0.9714     0.0000
 86 H      0.9435     1.0000     0.0565     0.9841     0.9841    -0.0000
 87 H      0.9443     1.0000     0.0557     0.9854     0.9854    -0.0000
 88 H      1.0277     1.0000    -0.0277     0.9924     0.9924    -0.0000
 89 H      0.9578     1.0000     0.0422     1.0062     1.0062    -0.0000

  Mayer bond orders larger than 0.100000
B(  0-C ,  1-N ) :   1.1594 B(  0-C , 17-C ) :   1.5745 B(  0-C , 52-H ) :   0.9682 
B(  1-N ,  8-C ) :   1.1539 B(  1-N , 10-C ) :   0.9436 B(  2-C , 12-C ) :   1.5579 
B(  2-C , 16-C ) :   1.2967 B(  2-C , 53-H ) :   0.9787 B(  3-N , 14-C ) :   1.1858 
B(  3-N , 16-C ) :   1.2006 B(  3-N , 61-H ) :   0.8969 B(  4-C ,  6-C ) :   1.3127 
B(  4-C , 17-C ) :   1.3168 B(  4-C , 18-C ) :   1.1455 B(  5-N , 19-C ) :   1.3873 
B(  5-N , 27-C ) :   1.4310 B(  6-C ,  8-C ) :   1.5787 B(  6-C , 54-H ) :   0.9712 
B(  7-N , 30-C ) :   1.1873 B(  7-N , 38-C ) :   1.2102 B(  7-N , 62-H ) :   0.8999 
B(  8-C , 55-H ) :   0.9693 B(  9-N , 41-C ) :   1.4220 B(  9-N , 49-C ) :   1.4047 
B( 10-C , 56-H ) :   0.9763 B( 10-C , 57-H ) :   0.9816 B( 10-C , 58-H ) :   0.9823 
B( 11-N , 20-C ) :   1.1123 B( 11-N , 24-C ) :   1.1335 B( 11-N , 25-C ) :   0.9588 
B( 12-C , 14-C ) :   1.2976 B( 12-C , 59-H ) :   0.9779 B( 13-N , 31-C ) :   1.0999 
B( 13-N , 35-C ) :   1.0900 B( 13-N , 36-C ) :   0.9728 B( 14-C , 18-C ) :   1.2356 
B( 15-N , 42-C ) :   1.1226 B( 15-N , 46-C ) :   1.1020 B( 15-N , 47-C ) :   0.9640 
B( 16-C , 51-C ) :   1.2251 B( 17-C , 60-H ) :   0.9713 B( 18-C , 19-C ) :   1.2691 
B( 19-C , 21-C ) :   1.1869 B( 20-C , 28-C ) :   1.6228 B( 20-C , 63-H ) :   0.9705 
B( 21-C , 26-C ) :   1.6618 B( 21-C , 64-H ) :   0.9734 B( 22-C , 23-C ) :   1.2703 
B( 22-C , 28-C ) :   1.2808 B( 22-C , 29-C ) :   1.2413 B( 23-C , 24-C ) :   1.6240 
B( 23-C , 65-H ) :   0.9716 B( 24-C , 66-H ) :   0.9689 B( 25-C , 67-H ) :   0.9763 
B( 25-C , 68-H ) :   0.9831 B( 25-C , 69-H ) :   0.9819 B( 26-C , 27-C ) :   1.1898 
B( 26-C , 70-H ) :   0.9745 B( 27-C , 29-C ) :   1.2341 B( 28-C , 71-H ) :   0.9711 
B( 29-C , 30-C ) :   1.1941 B( 30-C , 32-C ) :   1.3319 B( 31-C , 39-C ) :   1.6612 
B( 31-C , 72-H ) :   0.9704 B( 32-C , 37-C ) :   1.5269 B( 32-C , 73-H ) :   0.9773 
B( 33-C , 34-C ) :   1.2513 B( 33-C , 39-C ) :   1.2431 B( 33-C , 40-C ) :   1.3086 
B( 34-C , 35-C ) :   1.6588 B( 34-C , 74-H ) :   0.9708 B( 35-C , 75-H ) :   0.9704 
B( 36-C , 76-H ) :   0.9758 B( 36-C , 77-H ) :   0.9824 B( 36-C , 78-H ) :   0.9835 
B( 37-C , 38-C ) :   1.3296 B( 37-C , 79-H ) :   0.9787 B( 38-C , 40-C ) :   1.1929 
B( 39-C , 80-H ) :   0.9719 B( 40-C , 41-C ) :   1.1893 B( 41-C , 43-C ) :   1.2396 
B( 42-C , 50-C ) :   1.6371 B( 42-C , 81-H ) :   0.9696 B( 43-C , 48-C ) :   1.6114 
B( 43-C , 82-H ) :   0.9747 B( 44-C , 45-C ) :   1.2769 B( 44-C , 50-C ) :   1.2582 
B( 44-C , 51-C ) :   1.2522 B( 45-C , 46-C ) :   1.6318 B( 45-C , 83-H ) :   0.9706 
B( 46-C , 84-H ) :   0.9706 B( 47-C , 85-H ) :   0.9761 B( 47-C , 86-H ) :   0.9827 
B( 47-C , 87-H ) :   0.9828 B( 48-C , 49-C ) :   1.2360 B( 48-C , 88-H ) :   0.9730 
B( 49-C , 51-C ) :   1.2006 B( 50-C , 89-H ) :   0.9718 

-------
TIMINGS
-------

Total SCF time: 0 days 0 hours 25 min 10 sec 

Total time                  ....    1510.220 sec
Sum of individual times     ....    1506.400 sec  ( 99.7%)

Fock matrix formation       ....    1484.727 sec  ( 98.3%)
Diagonalization             ....       6.599 sec  (  0.4%)
Density matrix formation    ....       0.425 sec  (  0.0%)
Population analysis         ....       0.434 sec  (  0.0%)
Initial guess               ....       1.922 sec  (  0.1%)
Orbital Transformation      ....       0.000 sec  (  0.0%)
Orbital Orthonormalization  ....       0.000 sec  (  0.0%)
DIIS solution               ....       2.934 sec  (  0.2%)
SOSCF solution              ....       8.279 sec  (  0.5%)

Maximum memory used throughout the entire SCF-calculation: 302.6 MB


           ************************************************************
           *        Program running with 16 parallel MPI-processes    *
           *              working on a common directory               *
           ************************************************************

------------------------------------------------------------------------------
                                ORCA  MP2 
------------------------------------------------------------------------------

Freezing NCore=104 chemical core electrons

----------
MP2 ENERGY (disk based algorithm)
----------

Dimension of the basis                    ...  918
Memory devoted to MP2                     ... 2000 MB   
Data format for buffers                   ... DOUBLE
Compression type for matrix containers    ... UNCOMPRESSED

-------------------------------
PARTIAL EXCHANGE TRANSFORMATION
-------------------------------

Transformation type                        ... one-operator
Generation of integrals (i,mue|j,nue)      ... ON
Generation of integrals (mue,kappa|nue,tau)... OFF
Generation of integrals (i,mue|a,nue)      ... OFF
Dimension of the basis                     ...  918
Number of internal MOs                     ...  127 (  52- 178)
Pair cutoff                                ... 2.500e-12 Eh
Number of AO pairs in the trafo            ... 421821
Total Number of distinct AO pairs          ... 421821
Memory devoted for trafo                   ... 2000.0 MB 
Max. Number of MO pairs treated together   ...  311      
Number Format for Storage                  ... Double (8 Byte)
Integral package used                      ... LIBINT

Starting integral evaluation:
    ... done with AO integral generation
Closing buffer AOK     (37.97 GB; CompressionRatio= 1.34)
Collecting buffer AOK 
Number of MO pairs included in the trafo   ... 8128
------------------------
SORTING OF (i,mue|j,nue)
------------------------

IBATCH = 1 of  2
IBATCH = 2 of  2
Closing buffer KAO     (51.03 GB; CompressionRatio= 1.00)
Collecting buffer KAO 
N(AO-Batches) Done                         ...  85681797 
N(AO-Batches) Skipped                      ...  81964582 
N(IJ)-pairs Skipped                        ...         0 
TOTAL TIME for half transformation         ...  6294.982 sec
AO-integral generation                     ...   175.061 sec
Half transformation                        ...   310.098 sec
K-integral sorting                         ...  5639.706 sec
Process 10:   Internal MO 132
Process  1:   Internal MO  60
Process  7:   Internal MO 108

Finished integral transformation - now doing MP2 part

OPERATOR COMBINATION   0   0: ij=( 52..178, 52..178)
Process  4:   Internal MO  84
Process  0:   Internal MO  54
Process  2:   Internal MO  69
Process  0:   Internal MO  57
Process  1:   Internal MO  63
Process  5:   Internal MO  93
Process  2:   Internal MO  72
Process  8:   Internal MO 117
Process  1:   Internal MO  66
Process 14:   Internal MO 165
Process  4:   Internal MO  87
Process  2:   Internal MO  75
Process 13:   Internal MO 156
Process  3:   Internal MO  78
Process  6:   Internal MO 102
Process 12:   Internal MO 150
Process  5:   Internal MO  96
Process 11:   Internal MO 141
Process  7:   Internal MO 111
Process 10:   Internal MO 135
Process  3:   Internal MO  81
Process  4:   Internal MO  90
Process  6:   Internal MO 105
Process  8:   Internal MO 120
Process  9:   Internal MO 126
Process  5:   Internal MO  99
Process  7:   Internal MO 114
Process 14:   Internal MO 168
Process 11:   Internal MO 144
Process 12:   Internal MO 153
Process 10:   Internal MO 138
Process  8:   Internal MO 123
Process  9:   Internal MO 129
Process 13:   Internal MO 159
Process 11:   Internal MO 147
Process 14:   Internal MO 171
Process 15:   Internal MO 174
Process 13:   Internal MO 162
Process 15:   Internal MO 177
-----------------------------------------------
 MP2 CORRELATION ENERGY   :     -7.282437842 Eh
-----------------------------------------------


-------
TIMINGS
-------
Total time                : 6651.490 sec
Integral trafo            : 6297.298 sec ( 94.7%)
K(i,j)                    :    5.087 sec (  0.1%)
T(i,j)                    :    0.097 sec (  0.0%)

---------------------------------------
MP2 TOTAL ENERGY:    -2130.898329736 Eh
---------------------------------------

Maximum memory used throughout the entire MP2-calculation: 2275.2 MB

-------------------------   --------------------
FINAL SINGLE POINT ENERGY     -2130.898329736124
-------------------------   --------------------


                            ***************************************
                            *     ORCA property calculations      *
                            ***************************************


  WARNING: The energy has been calculated at the MP2 level but the densities
           used in the property calculations are still SCF densities
           MP2 response densities have not been calculated 
           use %mp2 Density relaxed end
           or  %mp2 Density unrelaxed end

                                    ---------------------
                                    Active property flags
                                    ---------------------
   (+) Dipole Moment


------------------------------------------------------------------------------
                       ORCA ELECTRIC PROPERTIES CALCULATION
------------------------------------------------------------------------------

Dipole Moment Calculation                       ... on
Quadrupole Moment Calculation                   ... off
Polarizability Calculation                      ... off
GBWName                                         ... /scratch/allen/tmpyp4_amber_gaff2/conf1/conf1/Conf107.orca.gbw
Electron density                                ... /scratch/allen/tmpyp4_amber_gaff2/conf1/conf1/Conf107.orca.scfp
The origin for moment calculation is the CENTER OF MASS  = ( 0.002360, -0.002519  0.003664)

-------------
DIPOLE MOMENT
-------------
                                X             Y             Z
Electronic contribution:     -2.66657       2.41980      -0.18068
Nuclear contribution   :     -0.01346       0.17598       0.22077
                        -----------------------------------------
Total Dipole Moment    :     -2.68003       2.59578       0.04009
                        -----------------------------------------
Magnitude (a.u.)       :      3.73125
Magnitude (Debye)      :      9.48409



--------------------
Rotational spectrum 
--------------------
 
Rotational constants in cm-1:     0.001498     0.001473     0.000763 
Rotational constants in MHz :    44.900946    44.158792    22.862876 

 Dipole components along the rotational axes: 
x,y,z [a.u.] :    -3.463047     1.388576     0.037388 
x,y,z [Debye]:    -8.802367     3.529480     0.095034 

 

Timings for individual modules:

Sum of individual times         ...     8184.159 sec (= 136.403 min)
GTO integral calculation        ...        2.695 sec (=   0.045 min)   0.0 %
SCF iterations                  ...     1511.178 sec (=  25.186 min)  18.5 %
MP2 module                      ...     6670.286 sec (= 111.171 min)  81.5 %
                             ****ORCA TERMINATED NORMALLY****
TOTAL RUN TIME: 0 days 2 hours 16 minutes 27 seconds 563 msec
# of primitive gaussian functions

