
                                 *****************
                                 * O   R   C   A *
                                 *****************

                                            #,                                       
                                            ###                                      
                                            ####                                     
                                            #####                                    
                                            ######                                   
                                           ########,                                 
                                     ,,################,,,,,                         
                               ,,#################################,,                 
                          ,,##########################################,,             
                       ,#########################################, ''#####,          
                    ,#############################################,,   '####,        
                  ,##################################################,,,,####,       
                ,###########''''           ''''###############################       
              ,#####''   ,,,,##########,,,,          '''####'''          '####       
            ,##' ,,,,###########################,,,                        '##       
           ' ,,###''''                  '''############,,,                           
         ,,##''                                '''############,,,,        ,,,,,,###''
      ,#''                                            '''#######################'''  
     '                                                          ''''####''''         
             ,#######,   #######,   ,#######,      ##                                
            ,#'     '#,  ##    ##  ,#'     '#,    #''#        ######   ,####,        
            ##       ##  ##   ,#'  ##            #'  '#       #        #'  '#        
            ##       ##  #######   ##           ,######,      #####,   #    #        
            '#,     ,#'  ##    ##  '#,     ,#' ,#      #,         ##   #,  ,#        
             '#######'   ##     ##  '#######'  #'      '#     #####' # '####'        



                  #######################################################
                  #                        -***-                        #
                  #          Department of theory and spectroscopy      #
                  #    Directorship and core code : Frank Neese         #
                  #        Max Planck Institute fuer Kohlenforschung    #
                  #                Kaiser Wilhelm Platz 1               #
                  #                 D-45470 Muelheim/Ruhr               #
                  #                      Germany                        #
                  #                                                     #
                  #                  All rights reserved                #
                  #                        -***-                        #
                  #######################################################


                         Program Version 5.0.4 -  RELEASE  -


 With contributions from (in alphabetic order):
   Daniel Aravena         : Magnetic Suceptibility
   Michael Atanasov       : Ab Initio Ligand Field Theory (pilot matlab implementation)
   Alexander A. Auer      : GIAO ZORA, VPT2 properties, NMR spectrum
   Ute Becker             : Parallelization
   Giovanni Bistoni       : ED, misc. LED, open-shell LED, HFLD
   Martin Brehm           : Molecular dynamics
   Dmytro Bykov           : SCF Hessian
   Vijay G. Chilkuri      : MRCI spin determinant printing, contributions to CSF-ICE
   Dipayan Datta          : RHF DLPNO-CCSD density
   Achintya Kumar Dutta   : EOM-CC, STEOM-CC
   Dmitry Ganyushin       : Spin-Orbit,Spin-Spin,Magnetic field MRCI
   Miquel Garcia          : C-PCM and meta-GGA Hessian, CC/C-PCM, Gaussian charge scheme
   Yang Guo               : DLPNO-NEVPT2, F12-NEVPT2, CIM, IAO-localization
   Andreas Hansen         : Spin unrestricted coupled pair/coupled cluster methods
   Benjamin Helmich-Paris : MC-RPA, TRAH-SCF, COSX integrals
   Lee Huntington         : MR-EOM, pCC
   Robert Izsak           : Overlap fitted RIJCOSX, COSX-SCS-MP3, EOM
   Marcus Kettner         : VPT2
   Christian Kollmar      : KDIIS, OOCD, Brueckner-CCSD(T), CCSD density, CASPT2, CASPT2-K
   Simone Kossmann        : Meta GGA functionals, TD-DFT gradient, OOMP2, MP2 Hessian
   Martin Krupicka        : Initial AUTO-CI
   Lucas Lang             : DCDCAS
   Marvin Lechner         : AUTO-CI (C++ implementation), FIC-MRCC
   Dagmar Lenk            : GEPOL surface, SMD
   Dimitrios Liakos       : Extrapolation schemes; Compound Job, initial MDCI parallelization
   Dimitrios Manganas     : Further ROCIS development; embedding schemes
   Dimitrios Pantazis     : SARC Basis sets
   Anastasios Papadopoulos: AUTO-CI, single reference methods and gradients
   Taras Petrenko         : DFT Hessian,TD-DFT gradient, ASA, ECA, R-Raman, ABS, FL, XAS/XES, NRVS
   Peter Pinski           : DLPNO-MP2, DLPNO-MP2 Gradient
   Christoph Reimann      : Effective Core Potentials
   Marius Retegan         : Local ZFS, SOC
   Christoph Riplinger    : Optimizer, TS searches, QM/MM, DLPNO-CCSD(T), (RO)-DLPNO pert. Triples
   Tobias Risthaus        : Range-separated hybrids, TD-DFT gradient, RPA, STAB
   Michael Roemelt        : Original ROCIS implementation
   Masaaki Saitow         : Open-shell DLPNO-CCSD energy and density
   Barbara Sandhoefer     : DKH picture change effects
   Avijit Sen             : IP-ROCIS
   Kantharuban Sivalingam : CASSCF convergence, NEVPT2, FIC-MRCI
   Bernardo de Souza      : ESD, SOC TD-DFT
   Georgi Stoychev        : AutoAux, RI-MP2 NMR, DLPNO-MP2 response
   Willem Van den Heuvel  : Paramagnetic NMR
   Boris Wezisla          : Elementary symmetry handling
   Frank Wennmohs         : Technical directorship


 We gratefully acknowledge several colleagues who have allowed us to
 interface, adapt or use parts of their codes:
   Stefan Grimme, W. Hujo, H. Kruse, P. Pracht,  : VdW corrections, initial TS optimization,
                  C. Bannwarth, S. Ehlert          DFT functionals, gCP, sTDA/sTD-DF
   Ed Valeev, F. Pavosevic, A. Kumar             : LibInt (2-el integral package), F12 methods
   Garnet Chan, S. Sharma, J. Yang, R. Olivares  : DMRG
   Ulf Ekstrom                                   : XCFun DFT Library
   Mihaly Kallay                                 : mrcc  (arbitrary order and MRCC methods)
   Jiri Pittner, Ondrej Demel                    : Mk-CCSD
   Frank Weinhold                                : gennbo (NPA and NBO analysis)
   Christopher J. Cramer and Donald G. Truhlar   : smd solvation model
   Lars Goerigk                                  : TD-DFT with DH, B97 family of functionals
   V. Asgeirsson, H. Jonsson                     : NEB implementation
   FAccTs GmbH                                   : IRC, NEB, NEB-TS, DLPNO-Multilevel, CI-OPT
                                                   MM, QMMM, 2- and 3-layer-ONIOM, Crystal-QMMM,
                                                   LR-CPCM, SF, NACMEs, symmetry and pop. for TD-DFT,
                                                   nearIR, NL-DFT gradient (VV10), updates on ESD,
                                                   ML-optimized integration grids
   S Lehtola, MJT Oliveira, MAL Marques          : LibXC Library
   Liviu Ungur et al                             : ANISO software


 Your calculation uses the libint2 library for the computation of 2-el integrals
 For citations please refer to: http://libint.valeyev.net

 Your ORCA version has been built with support for libXC version: 5.1.0
 For citations please refer to: https://tddft.org/programs/libxc/

 This ORCA versions uses:
   CBLAS   interface :  Fast vector & matrix operations
   LAPACKE interface :  Fast linear algebra routines
   SCALAPACK package :  Parallel linear algebra routines
   Shared memory     :  Shared parallel matrices
   BLAS/LAPACK       :  OpenBLAS 0.3.15  USE64BITINT DYNAMIC_ARCH NO_AFFINITY Sandybridge SINGLE_THREADED
        Core in use  :  Sandybridge
   Copyright (c) 2011-2014, The OpenBLAS Project


================================================================================

----- Orbital basis set information -----
Your calculation utilizes the basis: cc-pVDZ 
       H, B-Ne : Obtained from the ccRepo (grant-hill.group.shef.ac.uk/ccrepo) Feb. 2017
                 T. H. Dunning, Jr., J. Chem. Phys. 90, 1007 (1989)
            He : Obtained from the ccRepo (grant-hill.group.shef.ac.uk/ccrepo) Feb. 2017
                 D. E. Woon, T. H. Dunning, Jr., J. Chem. Phys. 100, 2975 (1994)
  Li-Be, Na-Mg : Obtained from the ccRepo (grant-hill.group.shef.ac.uk/ccrepo) Feb. 2017
                 B. P. Prascher, D. E. Woon, K. A. Peterson, T. H. Dunning, Jr., A. K. Wilson, Theor. Chem. Acc. 128, 69 (2011)
         Al-Ar : Obtained from the ccRepo (grant-hill.group.shef.ac.uk/ccrepo) Feb. 2017
                 D. E. Woon, T. H. Dunning, Jr., J. Chem. Phys. 98, 1358 (1993)
            Ca : Obtained from the Peterson Research Group Website (tyr0.chem.wsu.edu/~kipeters) Feb. 2017
                 J. Koput, K. A. Peterson, J. Phys. Chem. 106, 9595 (2002)
         Sc-Zn : Obtained from the ccRepo (grant-hill.group.shef.ac.uk/ccrepo) Feb. 2017
                 N. B. Balabanov, K. A. Peterson, J. Chem. Phys. 123, 064107 (2005)
                 N. B. Balabanov, K. A. Peterson, J. Chem. Phys. 125, 074110 (2006)
         Ga-Kr : Obtained from the ccRepo (grant-hill.group.shef.ac.uk/ccrepo) Feb. 2017
                 A. K. Wilson, D. E. Woon, K. A. Peterson, T. H. Dunning, Jr., J. Chem. Phys. 110, 7667 (1999)

================================================================================
                                        WARNINGS
                       Please study these warnings very carefully!
================================================================================


WARNING: No MP2 level density has been requested!
         To caclulate MP2 level properties use
         %mp2 Density relaxed end
         or
         %mp2 Density unrelaxed end

WARNING: Post HF methods need fully converged wavefunctions
  ===> : Setting SCFConvForced true
         You can overwrite this default with %scf ConvForced false 


INFO   : the flag for use of the SHARK integral package has been found!

================================================================================
                                       INPUT FILE
================================================================================
NAME = /scratch/allen/tmpyp4_amber_gaff2/2.Mdgx/conf11/conf11/Conf164.orca
|  1> ! PAL2
|  2> ! mp2 cc-pvdz TightSCF  NoKeepInts
|  3> 
|  4> %scf
|  5>   MaxCore 2000
|  6> end
|  7> %mp2
|  8>   MaxCore 2000
|  9> end
| 10> * xyz 0 1
| 11>    C       -4.91000         5.22000        -0.28500
| 12>    C        1.47400         4.04100         0.05700
| 13>    C       -2.80200         4.09300         0.04900
| 14>    C       -2.25800         5.33000         0.42700
| 15>    C       -3.05000         6.46100         0.44000
| 16>    C       -5.18600         7.62000         0.14500
| 17>    C        0.13200         4.30700         0.06100
| 18>    C       -0.56900         3.05600         0.04700
| 19>    C        1.64900         2.61800         0.02300
| 20>    C       -4.15900         4.06100        -0.30800
| 21>    N       -4.35500         6.39700         0.08400
| 22>    N        0.38800         2.06700         0.02500
| 23>    N       -2.01000         0.39500        -0.07500
| 24>    N       -0.38800        -2.07400        -0.02700
| 25>    N        2.01000        -0.40100         0.06500
| 26>    C       -1.96000         2.86100         0.02400
| 27>    C       -2.62300         1.61500        -0.01800
| 28>    C       -5.57300        -4.32900         1.06600
| 29>    C       -4.07300         1.47100         0.05600
| 30>    C       -4.10600        -2.75600        -0.02600
| 31>    C       -4.99500        -2.75700        -1.11100
| 32>    C       -6.13200        -3.54200        -1.07600
| 33>    C       -7.65100        -5.11300         0.04000
| 34>    C       -4.32400         0.14100         0.03700
| 35>    C       -3.02500        -0.52000        -0.04800
| 36>    C       -4.42200        -3.56600         1.07500
| 37>    N       -6.40700        -4.31300         0.00100
| 38>    C       -2.86700        -1.92200        -0.04000
| 39>    C       -1.65000        -2.62400        -0.02700
| 40>    C        3.56800        -6.14200        -1.04000
| 41>    C       -1.47600        -4.04900        -0.03400
| 42>    C        2.80300        -4.09900        -0.00800
| 43>    C        3.65700        -4.38400         1.06900
| 44>    C        4.42700        -5.53000         1.05900
| 45>    C        5.24500        -7.58800         0.01400
| 46>    C       -0.13400        -4.31500        -0.02200
| 47>    C        0.56800        -3.06400        -0.02700
| 48>    C        2.77500        -5.01200        -1.07400
| 49>    N        4.37600        -6.39100         0.01700
| 50>    C        1.95900        -2.86900        -0.00900
| 51>    C        2.62100        -1.62200         0.00900
| 52>    C        5.54300         4.33900        -1.13000
| 53>    C        4.07000        -1.47900        -0.09400
| 54>    C        4.10400         2.75100        -0.02100
| 55>    C        5.02700         2.72900         1.03600
| 56>    C        6.16600         3.50900         0.97800
| 57>    C        7.61900         5.15300        -0.11500
| 58>    C        4.32100        -0.14800        -0.09200
| 59>    C        3.02500         0.51400         0.01500
| 60>    C        4.38700         3.58200        -1.11500
| 61>    C        2.86600         1.91600         0.01300
| 62>    N        6.41300         4.29600        -0.09500
| 63>    H       -5.95600         5.24500        -0.56400
| 64>    H        2.27400         4.76600         0.08100
| 65>    H       -1.22000         5.41800         0.72300
| 66>    H       -2.67900         7.43400         0.73200
| 67>    H       -5.57600         7.73500         1.15800
| 68>    H       -4.56800         8.47800        -0.11900
| 69>    H       -6.00800         7.52000        -0.56400
| 70>    H       -0.33200         5.28200         0.06900
| 71>    H       -4.63300         3.13900        -0.62300
| 72>    H        0.18200         1.07200         0.00500
| 73>    H       -0.18300        -1.08000        -0.02100
| 74>    H       -5.86400        -4.96200         1.89500
| 75>    H       -4.79400         2.27200         0.13900
| 76>    H       -4.80000        -2.16000        -1.99400
| 77>    H       -6.84100        -3.58200        -1.89300
| 78>    H       -8.42800        -4.53600         0.54600
| 79>    H       -7.95600        -5.33700        -0.98100
| 80>    H       -7.45600        -6.03700         0.58400
| 81>    H       -5.28700        -0.34400         0.10000
| 82>    H       -3.78000        -3.60100         1.94700
| 83>    H        3.58700        -6.86800        -1.84300
| 84>    H       -2.27600        -4.77400        -0.05000
| 85>    H        3.71400        -3.72400         1.92600
| 86>    H        5.09200        -5.79500         1.87100
| 87>    H        6.20500        -7.32900        -0.43900
| 88>    H        5.39300        -7.91700         1.04200
| 89>    H        4.75900        -8.37300        -0.56400
| 90>    H        0.32900        -5.29000        -0.00800
| 91>    H        2.14600        -4.84200        -1.94000
| 92>    H        5.80800         4.98600        -1.95600
| 93>    H        4.78800        -2.28100        -0.18500
| 94>    H        4.86000         2.11400         1.91200
| 95>    H        6.90100         3.53100         1.77200
| 96>    H        7.38300         6.10900         0.35600
| 97>    H        8.41400         4.65200         0.43500
| 98>    H        7.92100         5.31000        -1.15000
| 99>    H        5.28300         0.33600        -0.17900
|100>    H        3.72000         3.63200        -1.96700
|101> *
|102> 
|103>                          ****END OF INPUT****
================================================================================

                       ****************************
                       * Single Point Calculation *
                       ****************************

---------------------------------
CARTESIAN COORDINATES (ANGSTROEM)
---------------------------------
  C     -4.910000    5.220000   -0.285000
  C      1.474000    4.041000    0.057000
  C     -2.802000    4.093000    0.049000
  C     -2.258000    5.330000    0.427000
  C     -3.050000    6.461000    0.440000
  C     -5.186000    7.620000    0.145000
  C      0.132000    4.307000    0.061000
  C     -0.569000    3.056000    0.047000
  C      1.649000    2.618000    0.023000
  C     -4.159000    4.061000   -0.308000
  N     -4.355000    6.397000    0.084000
  N      0.388000    2.067000    0.025000
  N     -2.010000    0.395000   -0.075000
  N     -0.388000   -2.074000   -0.027000
  N      2.010000   -0.401000    0.065000
  C     -1.960000    2.861000    0.024000
  C     -2.623000    1.615000   -0.018000
  C     -5.573000   -4.329000    1.066000
  C     -4.073000    1.471000    0.056000
  C     -4.106000   -2.756000   -0.026000
  C     -4.995000   -2.757000   -1.111000
  C     -6.132000   -3.542000   -1.076000
  C     -7.651000   -5.113000    0.040000
  C     -4.324000    0.141000    0.037000
  C     -3.025000   -0.520000   -0.048000
  C     -4.422000   -3.566000    1.075000
  N     -6.407000   -4.313000    0.001000
  C     -2.867000   -1.922000   -0.040000
  C     -1.650000   -2.624000   -0.027000
  C      3.568000   -6.142000   -1.040000
  C     -1.476000   -4.049000   -0.034000
  C      2.803000   -4.099000   -0.008000
  C      3.657000   -4.384000    1.069000
  C      4.427000   -5.530000    1.059000
  C      5.245000   -7.588000    0.014000
  C     -0.134000   -4.315000   -0.022000
  C      0.568000   -3.064000   -0.027000
  C      2.775000   -5.012000   -1.074000
  N      4.376000   -6.391000    0.017000
  C      1.959000   -2.869000   -0.009000
  C      2.621000   -1.622000    0.009000
  C      5.543000    4.339000   -1.130000
  C      4.070000   -1.479000   -0.094000
  C      4.104000    2.751000   -0.021000
  C      5.027000    2.729000    1.036000
  C      6.166000    3.509000    0.978000
  C      7.619000    5.153000   -0.115000
  C      4.321000   -0.148000   -0.092000
  C      3.025000    0.514000    0.015000
  C      4.387000    3.582000   -1.115000
  C      2.866000    1.916000    0.013000
  N      6.413000    4.296000   -0.095000
  H     -5.956000    5.245000   -0.564000
  H      2.274000    4.766000    0.081000
  H     -1.220000    5.418000    0.723000
  H     -2.679000    7.434000    0.732000
  H     -5.576000    7.735000    1.158000
  H     -4.568000    8.478000   -0.119000
  H     -6.008000    7.520000   -0.564000
  H     -0.332000    5.282000    0.069000
  H     -4.633000    3.139000   -0.623000
  H      0.182000    1.072000    0.005000
  H     -0.183000   -1.080000   -0.021000
  H     -5.864000   -4.962000    1.895000
  H     -4.794000    2.272000    0.139000
  H     -4.800000   -2.160000   -1.994000
  H     -6.841000   -3.582000   -1.893000
  H     -8.428000   -4.536000    0.546000
  H     -7.956000   -5.337000   -0.981000
  H     -7.456000   -6.037000    0.584000
  H     -5.287000   -0.344000    0.100000
  H     -3.780000   -3.601000    1.947000
  H      3.587000   -6.868000   -1.843000
  H     -2.276000   -4.774000   -0.050000
  H      3.714000   -3.724000    1.926000
  H      5.092000   -5.795000    1.871000
  H      6.205000   -7.329000   -0.439000
  H      5.393000   -7.917000    1.042000
  H      4.759000   -8.373000   -0.564000
  H      0.329000   -5.290000   -0.008000
  H      2.146000   -4.842000   -1.940000
  H      5.808000    4.986000   -1.956000
  H      4.788000   -2.281000   -0.185000
  H      4.860000    2.114000    1.912000
  H      6.901000    3.531000    1.772000
  H      7.383000    6.109000    0.356000
  H      8.414000    4.652000    0.435000
  H      7.921000    5.310000   -1.150000
  H      5.283000    0.336000   -0.179000
  H      3.720000    3.632000   -1.967000

----------------------------
CARTESIAN COORDINATES (A.U.)
----------------------------
  NO LB      ZA    FRAG     MASS         X           Y           Z
   0 C     6.0000    0    12.011   -9.278555    9.864370   -0.538572
   1 C     6.0000    0    12.011    2.785456    7.636383    0.107714
   2 C     6.0000    0    12.011   -5.295013    7.734649    0.092597
   3 C     6.0000    0    12.011   -4.267002   10.072240    0.806913
   4 C     6.0000    0    12.011   -5.763665   12.209521    0.831479
   5 C     6.0000    0    12.011   -9.800120   14.399713    0.274010
   6 C     6.0000    0    12.011    0.249444    8.139050    0.115273
   7 C     6.0000    0    12.011   -1.075254    5.775003    0.088817
   8 C     6.0000    0    12.011    3.116158    4.947303    0.043464
   9 C     6.0000    0    12.011   -7.859371    7.674178   -0.582036
  10 N     7.0000    0    14.007   -8.229757   12.088578    0.158737
  11 N     7.0000    0    14.007    0.733214    3.906064    0.047243
  12 N     7.0000    0    14.007   -3.798350    0.746442   -0.141729
  13 N     7.0000    0    14.007   -0.733214   -3.919292   -0.051023
  14 N     7.0000    0    14.007    3.798350   -0.757780    0.122832
  15 C     6.0000    0    12.011   -3.703863    5.406506    0.045353
  16 C     6.0000    0    12.011   -4.956752    3.051908   -0.034015
  17 C     6.0000    0    12.011  -10.531444   -8.180624    2.014448
  18 C     6.0000    0    12.011   -7.696855    2.779787    0.105825
  19 C     6.0000    0    12.011   -7.759216   -5.208085   -0.049133
  20 C     6.0000    0    12.011   -9.439182   -5.209975   -2.099486
  21 C     6.0000    0    12.011  -11.587801   -6.693410   -2.033345
  22 C     6.0000    0    12.011  -14.458295   -9.662170    0.075589
  23 C     6.0000    0    12.011   -8.171176    0.266451    0.069920
  24 C     6.0000    0    12.011   -5.716422   -0.982658   -0.090707
  25 C     6.0000    0    12.011   -8.356369   -6.738763    2.031456
  26 N     7.0000    0    14.007  -12.107475   -8.150389    0.001890
  27 C     6.0000    0    12.011   -5.417845   -3.632054   -0.075589
  28 C     6.0000    0    12.011   -3.118048   -4.958641   -0.051023
  29 C     6.0000    0    12.011    6.742543  -11.606698   -1.965315
  30 C     6.0000    0    12.011   -2.789236   -7.651501   -0.064251
  31 C     6.0000    0    12.011    5.296902   -7.745987   -0.015118
  32 C     6.0000    0    12.011    6.910728   -8.284559    2.020117
  33 C     6.0000    0    12.011    8.365818  -10.450186    2.001220
  34 C     6.0000    0    12.011    9.911614  -14.339242    0.026456
  35 C     6.0000    0    12.011   -0.253223   -8.154168   -0.041574
  36 C     6.0000    0    12.011    1.073364   -5.790121   -0.051023
  37 C     6.0000    0    12.011    5.243990   -9.471307   -2.029566
  38 N     7.0000    0    14.007    8.269442  -12.077240    0.032125
  39 C     6.0000    0    12.011    3.701973   -5.421624   -0.017008
  40 C     6.0000    0    12.011    4.952972   -3.065136    0.017008
  41 C     6.0000    0    12.011   10.474752    8.199522   -2.135391
  42 C     6.0000    0    12.011    7.691185   -2.794905   -0.177634
  43 C     6.0000    0    12.011    7.755436    5.198637   -0.039684
  44 C     6.0000    0    12.011    9.499653    5.157063    1.957756
  45 C     6.0000    0    12.011   11.652051    6.631049    1.848152
  46 C     6.0000    0    12.011   14.397823    9.737759   -0.217319
  47 C     6.0000    0    12.011    8.165507   -0.279679   -0.173855
  48 C     6.0000    0    12.011    5.716422    0.971319    0.028346
  49 C     6.0000    0    12.011    8.290229    6.768999   -2.107045
  50 C     6.0000    0    12.011    5.415955    3.620715    0.024566
  51 N     7.0000    0    14.007   12.118814    8.118263   -0.179524
  52 H     1.0000    0     1.008  -11.255209    9.911614   -1.065806
  53 H     1.0000    0     1.008    4.297237    9.006435    0.153068
  54 H     1.0000    0     1.008   -2.305466   10.238536    1.366272
  55 H     1.0000    0     1.008   -5.062576   14.048224    1.383280
  56 H     1.0000    0     1.008  -10.537113   14.617032    2.188303
  57 H     1.0000    0     1.008   -8.632269   16.021098   -0.224877
  58 H     1.0000    0     1.008  -11.353475   14.210741   -1.065806
  59 H     1.0000    0     1.008   -0.627389    9.981533    0.130391
  60 H     1.0000    0     1.008   -8.755101    5.931850   -1.177299
  61 H     1.0000    0     1.008    0.343930    2.025786    0.009449
  62 H     1.0000    0     1.008   -0.345820   -2.040904   -0.039684
  63 H     1.0000    0     1.008  -11.081354   -9.376821    3.581031
  64 H     1.0000    0     1.008   -9.059347    4.293458    0.262672
  65 H     1.0000    0     1.008   -9.070685   -4.081808   -3.768114
  66 H     1.0000    0     1.008  -12.927616   -6.768999   -3.577252
  67 H     1.0000    0     1.008  -15.926612   -8.571798    1.031790
  68 H     1.0000    0     1.008  -15.034661  -10.085468   -1.853821
  69 H     1.0000    0     1.008  -14.089798  -11.408277    1.103600
  70 H     1.0000    0     1.008   -9.990982   -0.650066    0.188973
  71 H     1.0000    0     1.008   -7.143165   -6.804904    3.679297
  72 H     1.0000    0     1.008    6.778448  -12.978639   -3.482765
  73 H     1.0000    0     1.008   -4.301017   -9.021553   -0.094486
  74 H     1.0000    0     1.008    7.018443   -7.037340    3.639613
  75 H     1.0000    0     1.008    9.622485  -10.950963    3.535678
  76 H     1.0000    0     1.008   11.725751  -13.849803   -0.829590
  77 H     1.0000    0     1.008   10.191293  -14.960962    1.969095
  78 H     1.0000    0     1.008    8.993207  -15.822677   -1.065806
  79 H     1.0000    0     1.008    0.621720   -9.996651   -0.015118
  80 H     1.0000    0     1.008    4.055352   -9.150054   -3.666069
  81 H     1.0000    0     1.008   10.975529    9.422175   -3.696304
  82 H     1.0000    0     1.008    9.048009   -4.310465   -0.349599
  83 H     1.0000    0     1.008    9.184069    3.994881    3.613156
  84 H     1.0000    0     1.008   13.041000    6.672623    3.348595
  85 H     1.0000    0     1.008   13.951848   11.544337    0.672743
  86 H     1.0000    0     1.008   15.900156    8.791006    0.822031
  87 H     1.0000    0     1.008   14.968521   10.034446   -2.173185
  88 H     1.0000    0     1.008    9.983423    0.634948   -0.338261
  89 H     1.0000    0     1.008    7.029781    6.863485   -3.717091

--------------------------------
INTERNAL COORDINATES (ANGSTROEM)
--------------------------------
 C      0   0   0     0.000000000000     0.00000000     0.00000000
 C      1   0   0     6.500958467795     0.00000000     0.00000000
 C      1   2   0     2.413575977673    18.26020535     0.00000000
 C      3   1   2     1.403206684705    87.95092051    30.80339875
 C      4   3   1     1.380794698715   120.14840168     0.15279471
 C      5   4   3     2.448020016258   152.51543635     1.60872107
 C      2   1   3     1.368114030335     3.26970341   273.18664457
 C      7   2   4     1.434084376876   108.05010202   213.00059440
 C      2   1   3     1.434123425651   107.36959704    18.78551925
 C      1   2   7     1.381235316664    46.74580565   252.61593618
 N      1   2   7     1.352595652810    74.96090038    61.18296982
 N      9   2   1     1.376127174356   106.58526707   355.92195042
 N     12   9   2     2.925062050624   168.53581413   171.12065651
 N     13  12   9     2.954513327098    91.55032014    11.12112580
 N     14  13  12     2.925371258490    88.43092389   359.84326247
 C      8   7   2     1.404790019896   127.24786865   181.11170171
 C     13  12   9     1.366535034311    81.72106996   188.00453233
 C     14  13  12     5.758810554272    80.56209567   166.76250791
 C     17  13  12     1.459010623676   111.08861209   183.82872609
 C     18  14  13     2.412235892279    27.27532823    36.33507194
 C     20  18  14     1.402692767501    87.95206320   148.94598259
 C     21  20  18     1.382106725257   120.14573887   359.70382047
 C     18  14  13     2.446510985056   144.15733107    82.80075377
 C     19  17  13     1.353610726908   106.29293361   359.75308708
 C     13  12   9     1.366813447402   172.21332906    33.46711076
 C     18  14  13     1.380960173213    15.08449437   309.23336894
 N     22  21  20     1.352773077792   120.73759875     0.27865223
 C     25  13  17     1.410897586645   125.60330303   182.37774668
 C     14  13  12     1.376642291955    80.24689249   177.85461986
 C     14  13  12     5.764089607215   164.51507311   312.20821879
 C     29  14  13     1.435600919476   106.58649366   178.76395472
 C     30  14  13     2.413316804732    27.10625047    82.12560436
 C     32  30  14     1.403734305344    87.90059683   149.76154742
 C     33  32  30     1.380694028378   120.14881443   359.74174632
 C     34  33  32     2.448777858443   152.49203239     2.45173620
 C     31  29  14     1.368160809262   108.16950133     0.70383075
 C     14  13  12     1.376239804685   169.26375223   353.09862627
 C     30  14  13     1.380907310430    14.68948582   353.70041132
 N     34  33  32     1.352658863128   120.85575621     0.19603406
 C     37  14  29     1.404717053360   126.01551127   180.90772073
 C     15  14  13     1.366491126938    81.61824056   183.09049352
 C      2   1   3     4.249062720177   155.92032459   142.94840164
 C     41  15  14     1.459677704153   111.05201287   175.08990246
 C     42   2   1     2.412953791518    41.78584867   208.62178536
 C     44  42   2     1.403446472082    87.95153797   233.97558675
 C     45  44  42     1.381696421071   120.11137308     0.19721020
 C     42   2   1     2.450019795838   135.97209175   118.93663446
 C     43  41  15     1.354461516618   106.26758155     0.30894352
 C     15  14  13     1.367461151185   171.87382904   332.35056460
 C     42   2   1     1.381886391857    32.59078432   257.47706455
 C      9   2   1     1.404988612053   126.98745415   176.92628795
 N     42   2   1     1.352765315936   113.57249190   146.67322365
 H      1   2   7     1.082858254805   165.08860810   203.17758389
 H      2   1   3     1.079907866440   127.36497278   195.71499688
 H      4   3   1     1.082960756445   121.12126037   179.48618465
 H      5   4   3     1.081496185846   122.86762740   179.43854306
 H      6   5   4     1.091555770449   104.46538604   100.09959207
 H      6   5   4     1.089855036232    84.67190816   209.56401844
 H      6   5   4     1.090121552855   133.85852476   322.33799337
 H      7   2  54     1.079807853278   126.66122480     1.30600390
 H     10   1   2     1.083505883694   118.75141778   193.77160554
 H     12   9   2     1.016297692608   125.29023241   180.00180175
 H     14  13  12     1.014936943854    44.97226959   359.42596618
 H     18  14  13     1.082871645210   128.03556573   234.20482432
 H     19  17  13     1.080893611786   126.41830519   178.11313280
 H     21  20  18     1.083569563987   121.05669627   180.67006309
 H     22  21  20     1.082483256222   122.73097286   180.59748951
 H     23  18  14     1.092105306278   103.92715769   234.93429879
 H     23  18  14     1.088871893291   134.19244188    12.25587044
 H     23  18  14     1.089833473518    84.85857450   125.45241208
 H     24  19  17     1.080075460327   127.28078426   178.44613241
 H     26  18  14     1.083408048706   118.76995697   244.94906660
 H     30  14  13     1.082703098730   127.99711412   279.66882698
 H     31  29  14     1.079759695488   125.22293469   180.92530585
 H     33  32  30     1.083188810873   121.01964473   180.74284758
 H     34  33  32     1.082494341787   122.70821597   180.59516895
 H     35  34  33     1.092652735319   105.73575241    97.19771933
 H     35  34  33     1.089462711615    84.05943581   206.43036958
 H     35  34  33     1.089268102902   133.08365142   318.50306270
 H     36  31  29     1.079439669458   126.61599965   178.98859863
 H     38  30  73     1.083742127999   118.77264435   359.90091293
 H     42   2   1     1.082178358682   119.31790784     3.30475411
 H     43  41  15     1.080281907652   126.36969097   182.06329380
 H     45  44  42     1.083277434455   121.10105945   179.58025624
 H     46  45  44     1.082194529648   122.72144639   179.46906377
 H     47  42   2     1.091546151109   106.65128841   315.16475048
 H     47  42   2     1.088818625851   132.46019523    94.52397119
 H     47  42   2     1.089531091801    83.63838232   206.04504406
 H     48  43  41     1.080402239909   127.23657387   181.62955349
 H     50  42   2     1.083186502870   118.77001737    94.71359229

---------------------------
INTERNAL COORDINATES (A.U.)
---------------------------
 C      0   0   0     0.000000000000     0.00000000     0.00000000
 C      1   0   0    12.285031112130     0.00000000     0.00000000
 C      1   2   0     4.560997601213    18.26020535     0.00000000
 C      3   1   2     2.651676343379    87.95092051    30.80339875
 C      4   3   1     2.609323827742   120.14840168     0.15279471
 C      5   4   3     4.626087401085   152.51543635     1.60872107
 C      2   1   3     2.585360837309     3.26970341   273.18664457
 C      7   2   4     2.710026725231   108.05010202   213.00059440
 C      2   1   3     2.710100516721   107.36959704    18.78551925
 C      1   2   7     2.610156474995    46.74580565   252.61593618
 N      1   2   7     2.556035353743    74.96090038    61.18296982
 N      9   2   1     2.600503484979   106.58526707   355.92195042
 N     12   9   2     5.527566200405   168.53581413   171.12065651
 N     13  12   9     5.583221047236    91.55032014    11.12112580
 N     14  13  12     5.528150518591    88.43092389   359.84326247
 C      8   7   2     2.654668413270   127.24786865   181.11170171
 C     13  12   9     2.582376967257    81.72106996   188.00453233
 C     14  13  12    10.882574804710    80.56209567   166.76250791
 C     17  13  12     2.757130505230   111.08861209   183.82872609
 C     18  14  13     4.558465206823    27.27532823    36.33507194
 C     20  18  14     2.650705180609    87.95206320   148.94598259
 C     21  20  18     2.611803198586   120.14573887   359.70382047
 C     18  14  13     4.623235745386   144.15733107    82.80075377
 C     19  17  13     2.557953565794   106.29293361   359.75308708
 C     13  12   9     2.582903091751   172.21332906    33.46711076
 C     18  14  13     2.609636529225    15.08449437   309.23336894
 N     22  21  20     2.556370638369   120.73759875     0.27865223
 C     25  13  17     2.666210041769   125.60330303   182.37774668
 C     14  13  12     2.601476916169    80.24689249   177.85461986
 C     14  13  12    10.892550769017   164.51507311   312.20821879
 C     29  14  13     2.712892575415   106.58649366   178.76395472
 C     30  14  13     4.560507835333    27.10625047    82.12560436
 C     32  30  14     2.652673401891    87.90059683   149.76154742
 C     33  32  30     2.609133588376   120.14881443   359.74174632
 C     34  33  32     4.627519515267   152.49203239     2.45173620
 C     31  29  14     2.585449236669   108.16950133     0.70383075
 C     14  13  12     2.600716325456   169.26375223   353.09862627
 C     30  14  13     2.609536633043    14.68948582   353.70041132
 N     34  33  32     2.556154803934   120.85575621     0.19603406
 C     37  14  29     2.654530526499   126.01551127   180.90772073
 C     15  14  13     2.582293994346    81.61824056   183.09049352
 C      2   1   3     8.029564866989   155.92032459   142.94840164
 C     41  15  14     2.758391104639   111.05201287   175.08990246
 C     42   2   1     4.559821839776    41.78584867   208.62178536
 C     44  42   2     2.652129475853    87.95153797   233.97558675
 C     45  44  42     2.611027836043   120.11137308     0.19721020
 C     42   2   1     4.629866436820   135.97209175   118.93663446
 C     43  41  15     2.559561325344   106.26758155     0.30894352
 C     15  14  13     2.584127074516   171.87382904   332.35056460
 C     42   2   1     2.611386828803    32.59078432   257.47706455
 C      9   2   1     2.655043698059   126.98745415   176.92628795
 N     42   2   1     2.556355970587   113.57249190   146.67322365
 H      1   2   7     2.046305543438   165.08860810   203.17758389
 H      2   1   3     2.040730117440   127.36497278   195.71499688
 H      4   3   1     2.046499243465   121.12126037   179.48618465
 H      5   4   3     2.043731606130   122.86762740   179.43854306
 H      6   5   4     2.062741466050   104.46538604   100.09959207
 H      6   5   4     2.059527544153    84.67190816   209.56401844
 H      6   5   4     2.060031187582   133.85852476   322.33799337
 H      7   2  54     2.040541119952   126.66122480     1.30600390
 H     10   1   2     2.047529384674   118.75141778   193.77160554
 H     12   9   2     1.920524309565   125.29023241   180.00180175
 H     14  13  12     1.917952867083    44.97226959   359.42596618
 H     18  14  13     2.046330847636   128.03556573   234.20482432
 H     19  17  13     2.042592906181   126.41830519   178.11313280
 H     21  20  18     2.047649722989   121.05669627   180.67006309
 H     22  21  20     2.045596898814   122.73097286   180.59748951
 H     23  18  14     2.063779938267   103.92715769   234.93429879
 H     23  18  14     2.057669673245   134.19244188    12.25587044
 H     23  18  14     2.059486796529    84.85857450   125.45241208
 H     24  19  17     2.041046823986   127.28078426   178.44613241
 H     26  18  14     2.047344503340   118.76995697   244.94906660
 H     30  14  13     2.046012340948   127.99711412   279.66882698
 H     31  29  14     2.040450114918   125.22293469   180.92530585
 H     33  32  30     2.046930203877   121.01964473   180.74284758
 H     34  33  32     2.045617847496   122.70821597   180.59516895
 H     35  34  33     2.064814429233   105.73575241    97.19771933
 H     35  34  33     2.058786158072    84.05943581   206.43036958
 H     35  34  33     2.058418400901   133.08365142   318.50306270
 H     36  31  29     2.039845353366   126.61599965   178.98859863
 H     38  30  73     2.047975821711   118.77264435   359.90091293
 H     42   2   1     2.045020725966   119.31790784     3.30475411
 H     43  41  15     2.041436952892   126.36969097   182.06329380
 H     45  44  42     2.047097678177   121.10105945   179.58025624
 H     46  45  44     2.045051284662   122.72144639   179.46906377
 H     47  42   2     2.062723288131   106.65128841   315.16475048
 H     47  42   2     2.057569012371   132.46019523    94.52397119
 H     47  42   2     2.058915377895    83.63838232   206.04504406
 H     48  43  41     2.041664347903   127.23657387   181.62955349
 H     50  42   2     2.046925842384   118.77001737    94.71359229

---------------------
BASIS SET INFORMATION
---------------------
There are 3 groups of distinct atoms

 Group   1 Type C   : 17s4p1d contracted to 3s2p1d pattern {881/31/1}
 Group   2 Type N   : 17s4p1d contracted to 3s2p1d pattern {881/31/1}
 Group   3 Type H   : 4s1p contracted to 2s1p pattern {31/1}

Atom   0C    basis set group =>   1
Atom   1N    basis set group =>   2
Atom   2C    basis set group =>   1
Atom   3N    basis set group =>   2
Atom   4C    basis set group =>   1
Atom   5N    basis set group =>   2
Atom   6C    basis set group =>   1
Atom   7N    basis set group =>   2
Atom   8C    basis set group =>   1
Atom   9N    basis set group =>   2
Atom  10C    basis set group =>   1
Atom  11N    basis set group =>   2
Atom  12C    basis set group =>   1
Atom  13N    basis set group =>   2
Atom  14C    basis set group =>   1
Atom  15N    basis set group =>   2
Atom  16C    basis set group =>   1
Atom  17C    basis set group =>   1
Atom  18C    basis set group =>   1
Atom  19C    basis set group =>   1
Atom  20C    basis set group =>   1
Atom  21C    basis set group =>   1
Atom  22C    basis set group =>   1
Atom  23C    basis set group =>   1
Atom  24C    basis set group =>   1
Atom  25C    basis set group =>   1
Atom  26C    basis set group =>   1
Atom  27C    basis set group =>   1
Atom  28C    basis set group =>   1
Atom  29C    basis set group =>   1
Atom  30C    basis set group =>   1
Atom  31C    basis set group =>   1
Atom  32C    basis set group =>   1
Atom  33C    basis set group =>   1
Atom  34C    basis set group =>   1
Atom  35C    basis set group =>   1
Atom  36C    basis set group =>   1
Atom  37C    basis set group =>   1
Atom  38C    basis set group =>   1
Atom  39C    basis set group =>   1
Atom  40C    basis set group =>   1
Atom  41C    basis set group =>   1
Atom  42C    basis set group =>   1
Atom  43C    basis set group =>   1
Atom  44C    basis set group =>   1
Atom  45C    basis set group =>   1
Atom  46C    basis set group =>   1
Atom  47C    basis set group =>   1
Atom  48C    basis set group =>   1
Atom  49C    basis set group =>   1
Atom  50C    basis set group =>   1
Atom  51C    basis set group =>   1
Atom  52H    basis set group =>   3
Atom  53H    basis set group =>   3
Atom  54H    basis set group =>   3
Atom  55H    basis set group =>   3
Atom  56H    basis set group =>   3
Atom  57H    basis set group =>   3
Atom  58H    basis set group =>   3
Atom  59H    basis set group =>   3
Atom  60H    basis set group =>   3
Atom  61H    basis set group =>   3
Atom  62H    basis set group =>   3
Atom  63H    basis set group =>   3
Atom  64H    basis set group =>   3
Atom  65H    basis set group =>   3
Atom  66H    basis set group =>   3
Atom  67H    basis set group =>   3
Atom  68H    basis set group =>   3
Atom  69H    basis set group =>   3
Atom  70H    basis set group =>   3
Atom  71H    basis set group =>   3
Atom  72H    basis set group =>   3
Atom  73H    basis set group =>   3
Atom  74H    basis set group =>   3
Atom  75H    basis set group =>   3
Atom  76H    basis set group =>   3
Atom  77H    basis set group =>   3
Atom  78H    basis set group =>   3
Atom  79H    basis set group =>   3
Atom  80H    basis set group =>   3
Atom  81H    basis set group =>   3
Atom  82H    basis set group =>   3
Atom  83H    basis set group =>   3
Atom  84H    basis set group =>   3
Atom  85H    basis set group =>   3
Atom  86H    basis set group =>   3
Atom  87H    basis set group =>   3
Atom  88H    basis set group =>   3
Atom  89H    basis set group =>   3


           ************************************************************
           *        Program running with 16 parallel MPI-processes    *
           *              working on a common directory               *
           ************************************************************
------------------------------------------------------------------------------
                           ORCA GTO INTEGRAL CALCULATION
------------------------------------------------------------------------------
------------------------------------------------------------------------------
                   ___                                                        
                  /   \      - P O W E R E D   B Y -                         
                 /     \                                                     
                 |  |  |   _    _      __       _____    __    __             
                 |  |  |  | |  | |    /  \     |  _  \  |  |  /  |          
                  \  \/   | |  | |   /    \    | | | |  |  | /  /          
                 / \  \   | |__| |  /  /\  \   | |_| |  |  |/  /          
                |  |  |   |  __  | /  /__\  \  |    /   |      \           
                |  |  |   | |  | | |   __   |  |    \   |  |\   \          
                \     /   | |  | | |  |  |  |  | |\  \  |  | \   \       
                 \___/    |_|  |_| |__|  |__|  |_| \__\ |__|  \__/        
                                                                              
                      - O R C A' S   B I G   F R I E N D -                    
                                      &                                       
                       - I N T E G R A L  F E E D E R -                       
                                                                              
 v1 FN, 2020, v2 2021                                                         
------------------------------------------------------------------------------


Reading SHARK input file /scratch/allen/tmpyp4_amber_gaff2/conf1/conf1/Conf164.orca.SHARKINP.tmp ... ok
----------------------
SHARK INTEGRAL PACKAGE
----------------------

Number of atoms                             ...     90
Number of basis functions                   ...   1230
Number of shells                            ...    738
Maximum angular momentum                    ...      2
Integral batch strategy                     ... SHARK/LIBINT Hybrid
RI-J (if used) integral strategy            ... SPLIT-RIJ (Revised 2003 algorithm where possible)
Printlevel                                  ...      1
Contraction scheme used                     ... PARTIAL GENERAL contraction
Coulomb Range Separation                    ... NOT USED
Exchange Range Separation                   ... NOT USED
Finite Nucleus Model                        ... NOT USED
Auxiliary Coulomb fitting basis             ... NOT available
Auxiliary J/K fitting basis                 ... NOT available
Auxiliary Correlation fitting basis         ... NOT available
Auxiliary 'external' fitting basis          ... NOT available
Integral threshold                          ...     2.500000e-11
Primitive cut-off                           ...     2.500000e-12
Primitive pair pre-selection threshold      ...     2.500000e-12

Calculating pre-screening integrals         ... done (  0.1 sec) Dimension = 738
Calculating pre-screening integrals (ORCA)  ... done (  0.3 sec) Dimension = 426
Organizing shell pair data                  ... done (  0.7 sec)
Shell pair information
Total number of shell pairs                 ...    272691
Shell pairs after pre-screening             ...     71707
Total number of primitive shell pairs       ...    422091
Primitive shell pairs kept                  ...     92617
          la=0 lb=0:  29433 shell pairs
          la=1 lb=0:  26028 shell pairs
          la=1 lb=1:   4702 shell pairs
          la=2 lb=0:   7891 shell pairs
          la=2 lb=1:   3124 shell pairs
          la=2 lb=2:    529 shell pairs

Calculating one electron integrals          ... done (  0.2 sec)
Calculating Nuclear repulsion               ... done (  0.0 sec) ENN=   6234.009635460749 Eh

SHARK setup successfully completed in   2.5 seconds

Maximum memory used throughout the entire GTOINT-calculation: 99.1 MB


           ************************************************************
           *        Program running with 16 parallel MPI-processes    *
           *              working on a common directory               *
           ************************************************************
-------------------------------------------------------------------------------
                                 ORCA SCF
-------------------------------------------------------------------------------

------------
SCF SETTINGS
------------
Hamiltonian:
 Ab initio Hamiltonian  Method          .... Hartree-Fock(GTOs)


General Settings:
 Integral files         IntName         .... /scratch/allen/tmpyp4_amber_gaff2/conf1/conf1/Conf164.orca
 Hartree-Fock type      HFTyp           .... RHF
 Total Charge           Charge          ....    0
 Multiplicity           Mult            ....    1
 Number of Electrons    NEL             ....  358
 Basis Dimension        Dim             ....  918
 Nuclear Repulsion      ENuc            ....   6234.0096354607 Eh

Convergence Acceleration:
 DIIS                   CNVDIIS         .... on
   Start iteration      DIISMaxIt       ....    12
   Startup error        DIISStart       ....  0.200000
   # of expansion vecs  DIISMaxEq       ....     5
   Bias factor          DIISBfac        ....   1.050
   Max. coefficient     DIISMaxC        ....  10.000
 Trust-Rad. Augm. Hess. CNVTRAH         .... auto
   Auto Start mean grad. ratio tolernc. ....  1.125000
   Auto Start start iteration           ....    20
   Auto Start num. interpolation iter.  ....    10
   Max. Number of Micro iterations      ....    16
   Max. Number of Macro iterations      .... Maxiter - #DIIS iter
   Number of Davidson start vectors     ....     2
   Converg. threshold I  (grad. norm)   ....   1.000e-05
   Converg. threshold II (energy diff.) ....   1.000e-08
   Grad. Scal. Fac. for Micro threshold ....   0.100
   Minimum threshold for Micro iter.    ....   0.010
   NR start threshold (gradient norm)   ....   0.001
   Initial trust radius                 ....   0.400
   Minimum AH scaling param. (alpha)    ....   1.000
   Maximum AH scaling param. (alpha)    .... 1000.000
   Orbital update algorithm             .... Taylor
   White noise on init. David. guess    .... on
   Maximum white noise                  ....   0.010
   Quad. conv. algorithm                .... NR
 SOSCF                  CNVSOSCF        .... on
   Start iteration      SOSCFMaxIt      ....   150
   Startup grad/error   SOSCFStart      ....  0.003300
 Level Shifting         CNVShift        .... on
   Level shift para.    LevelShift      ....    0.2500
   Turn off err/grad.   ShiftErr        ....    0.0010
 Zerner damping         CNVZerner       .... off
 Static damping         CNVDamp         .... on
   Fraction old density DampFac         ....    0.7000
   Max. Damping (<1)    DampMax         ....    0.9800
   Min. Damping (>=0)   DampMin         ....    0.0000
   Turn off err/grad.   DampErr         ....    0.1000
 Fernandez-Rico         CNVRico         .... off

SCF Procedure:
 Maximum # iterations   MaxIter         ....   125
 SCF integral mode      SCFMode         .... Direct
   Integral package                     .... SHARK and LIBINT hybrid scheme
 Reset frequency        DirectResetFreq ....    20
 Integral Threshold     Thresh          ....  2.500e-11 Eh
 Primitive CutOff       TCut            ....  2.500e-12 Eh

Convergence Tolerance:
 Convergence Check Mode ConvCheckMode   .... Total+1el-Energy
 Convergence forced     ConvForced      .... 1
 Energy Change          TolE            ....  1.000e-08 Eh
 1-El. energy change                    ....  1.000e-05 Eh
 Orbital Gradient       TolG            ....  1.000e-05
 Orbital Rotation angle TolX            ....  1.000e-05
 DIIS Error             TolErr          ....  5.000e-07


Diagonalization of the overlap matrix:
Smallest eigenvalue                        ... 1.881e-04
Time for diagonalization                   ...    0.433 sec
Threshold for overlap eigenvalues          ... 1.000e-08
Number of eigenvalues below threshold      ... 0
Time for construction of square roots      ...    0.268 sec
Total time needed                          ...    0.708 sec

Time for model grid setup =    1.297 sec

------------------------------
INITIAL GUESS: MODEL POTENTIAL
------------------------------
Loading Hartree-Fock densities                     ... done
Calculating cut-offs                               ... done
Initializing the effective Hamiltonian             ... done
Setting up the integral package (SHARK)            ... done
Starting the Coulomb interaction                   ... done (   1.5 sec)
Reading the grid                                   ... done
Mapping shells                                     ... done
Starting the XC term evaluation                    ... done (   0.2 sec)
Transforming the Hamiltonian                       ... done (   0.3 sec)
Diagonalizing the Hamiltonian                      ... done (   0.4 sec)
Back transforming the eigenvectors                 ... done (   0.1 sec)
Now organizing SCF variables                       ... done
                      ------------------
                      INITIAL GUESS DONE (   3.8 sec)
                      ------------------
--------------
SCF ITERATIONS
--------------
ITER       Energy         Delta-E        Max-DP      RMS-DP      [F,P]     Damp
               ***  Starting incremental Fock matrix formation  ***
  0  -2121.6485938096   0.000000000000 0.08285656  0.00124953  0.2313698 0.7000
  1  -2122.2944495729  -0.645855763327 0.06260017  0.00101721  0.1435360 0.7000
                               ***Turning on DIIS***
  2  -2122.6970054375  -0.402555864566 0.14552426  0.00231172  0.0802937 0.0000
  3  -2118.0317320837   4.665273353767 0.04737348  0.00068334  0.0435160 0.0000
  4  -2123.3876893342  -5.355957250476 0.01446727  0.00022841  0.0090851 0.0000
  5  -2123.5268795203  -0.139190186059 0.00690969  0.00013271  0.0048784 0.0000
  6  -2123.5112561041   0.015623416191 0.00410857  0.00008502  0.0021890 0.0000
  7  -2123.6046171356  -0.093361031522 0.00317555  0.00006707  0.0016214 0.0000
  8  -2123.6121616528  -0.007544517177 0.00334793  0.00006404  0.0015156 0.0000
  9  -2123.5845664738   0.027595178961 0.00267983  0.00004553  0.0012187 0.0000
 10  -2123.5926407894  -0.008074315541 0.00540420  0.00009580  0.0009516 0.0000
                      *** Initiating the SOSCF procedure ***
                           *** Shutting down DIIS ***
                      *** Re-Reading the Fockian *** 
                      *** Removing any level shift *** 
ITER      Energy       Delta-E        Grad      Rot      Max-DP    RMS-DP
 11  -2123.48654310   0.1060976927  0.000178  0.000178  0.000239  0.000005
               *** Restarting incremental Fock matrix formation ***
 12  -2123.55210869  -0.0655655930  0.000886  0.006453  0.001488  0.000035
 13  -2123.55222036  -0.0001116733  0.001100  0.031662  0.006818  0.000139
 14  -2123.55240664  -0.0001862742  0.000383  0.001818  0.000591  0.000012
 15  -2123.55242165  -0.0000150122  0.000150  0.001815  0.000527  0.000013
 16  -2123.55242838  -0.0000067325  0.000144  0.002241  0.000479  0.000008
 17  -2123.55243074  -0.0000023559  0.000108  0.001676  0.000275  0.000006
 18  -2123.55243174  -0.0000010060  0.000056  0.000490  0.000215  0.000003
 19  -2123.55243224  -0.0000004995  0.000039  0.000731  0.000182  0.000003
 20  -2123.55243248  -0.0000002395  0.000019  0.000444  0.000090  0.000002
 21  -2123.55243258  -0.0000000994  0.000021  0.000597  0.000105  0.000002
 22  -2123.55243267  -0.0000000900  0.000016  0.000632  0.000107  0.000002
 23  -2123.55243273  -0.0000000625  0.000011  0.000376  0.000066  0.000001
 24  -2123.55243277  -0.0000000342  0.000006  0.000335  0.000050  0.000001
 25  -2123.55243280  -0.0000000262  0.000007  0.000149  0.000029  0.000001
 26  -2123.55243281  -0.0000000157  0.000004  0.000107  0.000026  0.000000
 27  -2123.55243282  -0.0000000099  0.000003  0.000090  0.000019  0.000000
                 **** Energy Check signals convergence ****
              ***Rediagonalizing the Fockian in SOSCF/NRSCF***

               *****************************************************
               *                     SUCCESS                       *
               *           SCF CONVERGED AFTER  28 CYCLES          *
               *****************************************************


----------------
TOTAL SCF ENERGY
----------------

Total Energy       :        -2123.55243283 Eh          -57784.79942 eV

Components:
Nuclear Repulsion  :         6234.00963546 Eh          169636.02631 eV
Electronic Energy  :        -8357.56206829 Eh         -227420.82573 eV
One Electron Energy:       -15308.63834075 Eh         -416569.22722 eV
Two Electron Energy:         6951.07627247 Eh          189148.40149 eV

Virial components:
Potential Energy   :        -4245.94868637 Eh         -115538.13760 eV
Kinetic Energy     :         2122.39625354 Eh           57753.33818 eV
Virial Ratio       :            2.00054475


---------------
SCF CONVERGENCE
---------------

  Last Energy change         ...   -4.6130e-09  Tolerance :   1.0000e-08
  Last MAX-Density change    ...    1.0708e-05  Tolerance :   1.0000e-07
  Last RMS-Density change    ...    2.1555e-07  Tolerance :   5.0000e-09
  Last Orbital Gradient      ...    1.8529e-06  Tolerance :   1.0000e-05
  Last Orbital Rotation      ...    5.9238e-05  Tolerance :   1.0000e-05

             **** THE GBW FILE WAS UPDATED (/scratch/allen/tmpyp4_amber_gaff2/conf1/conf1/Conf164.orca.gbw) ****
             **** DENSITY /scratch/allen/tmpyp4_amber_gaff2/conf1/conf1/Conf164.orca.scfp WAS UPDATED ****
             **** ENERGY FILE WAS UPDATED (/scratch/allen/tmpyp4_amber_gaff2/conf1/conf1/Conf164.orca.en.tmp) ****
             **** THE GBW FILE WAS UPDATED (/scratch/allen/tmpyp4_amber_gaff2/conf1/conf1/Conf164.orca.gbw) ****
             **** DENSITY /scratch/allen/tmpyp4_amber_gaff2/conf1/conf1/Conf164.orca.scfp WAS UPDATED ****
----------------
ORBITAL ENERGIES
----------------

  NO   OCC          E(Eh)            E(eV) 
   0   2.0000     -15.679229      -426.6535 
   1   2.0000     -15.635952      -425.4759 
   2   2.0000     -15.630016      -425.3144 
   3   2.0000     -15.587239      -424.1503 
   4   2.0000     -15.525676      -422.4751 
   5   2.0000     -15.515489      -422.1979 
   6   2.0000     -15.453279      -420.5051 
   7   2.0000     -15.440891      -420.1680 
   8   2.0000     -11.329209      -308.2834 
   9   2.0000     -11.327609      -308.2399 
  10   2.0000     -11.327575      -308.2390 
  11   2.0000     -11.300550      -307.5036 
  12   2.0000     -11.297229      -307.4132 
  13   2.0000     -11.294614      -307.3421 
  14   2.0000     -11.289628      -307.2064 
  15   2.0000     -11.288375      -307.1723 
  16   2.0000     -11.285039      -307.0815 
  17   2.0000     -11.281539      -306.9863 
  18   2.0000     -11.269880      -306.6690 
  19   2.0000     -11.262998      -306.4818 
  20   2.0000     -11.262023      -306.4552 
  21   2.0000     -11.251491      -306.1686 
  22   2.0000     -11.249851      -306.1240 
  23   2.0000     -11.239665      -305.8468 
  24   2.0000     -11.234869      -305.7163 
  25   2.0000     -11.232653      -305.6560 
  26   2.0000     -11.232017      -305.6387 
  27   2.0000     -11.228401      -305.5403 
  28   2.0000     -11.228083      -305.5317 
  29   2.0000     -11.211846      -305.0898 
  30   2.0000     -11.210347      -305.0490 
  31   2.0000     -11.194352      -304.6138 
  32   2.0000     -11.191377      -304.5329 
  33   2.0000     -11.190250      -304.5022 
  34   2.0000     -11.188040      -304.4421 
  35   2.0000     -11.187383      -304.4242 
  36   2.0000     -11.186076      -304.3886 
  37   2.0000     -11.179557      -304.2112 
  38   2.0000     -11.178797      -304.1905 
  39   2.0000     -11.175231      -304.0935 
  40   2.0000     -11.173707      -304.0520 
  41   2.0000     -11.169450      -303.9362 
  42   2.0000     -11.169381      -303.9343 
  43   2.0000     -11.160992      -303.7060 
  44   2.0000     -11.160379      -303.6894 
  45   2.0000     -11.157702      -303.6165 
  46   2.0000     -11.155471      -303.5558 
  47   2.0000     -11.154212      -303.5215 
  48   2.0000     -11.145937      -303.2964 
  49   2.0000     -11.135130      -303.0023 
  50   2.0000     -11.130703      -302.8818 
  51   2.0000     -11.118729      -302.5560 
  52   2.0000      -1.359898       -37.0047 
  53   2.0000      -1.322929       -35.9987 
  54   2.0000      -1.318059       -35.8662 
  55   2.0000      -1.280305       -34.8389 
  56   2.0000      -1.226819       -33.3834 
  57   2.0000      -1.209922       -32.9236 
  58   2.0000      -1.172740       -31.9119 
  59   2.0000      -1.151395       -31.3311 
  60   2.0000      -1.143236       -31.1090 
  61   2.0000      -1.111582       -30.2477 
  62   2.0000      -1.107754       -30.1435 
  63   2.0000      -1.081632       -29.4327 
  64   2.0000      -1.077266       -29.3139 
  65   2.0000      -1.047046       -28.4916 
  66   2.0000      -1.042788       -28.3757 
  67   2.0000      -1.040945       -28.3256 
  68   2.0000      -1.015317       -27.6282 
  69   2.0000      -1.012142       -27.5418 
  70   2.0000      -1.008643       -27.4466 
  71   2.0000      -0.994185       -27.0531 
  72   2.0000      -0.985529       -26.8176 
  73   2.0000      -0.981788       -26.7158 
  74   2.0000      -0.972342       -26.4588 
  75   2.0000      -0.961359       -26.1599 
  76   2.0000      -0.954054       -25.9611 
  77   2.0000      -0.945589       -25.7308 
  78   2.0000      -0.935611       -25.4593 
  79   2.0000      -0.917343       -24.9622 
  80   2.0000      -0.910112       -24.7654 
  81   2.0000      -0.896084       -24.3837 
  82   2.0000      -0.876333       -23.8462 
  83   2.0000      -0.873601       -23.7719 
  84   2.0000      -0.869189       -23.6518 
  85   2.0000      -0.858377       -23.3576 
  86   2.0000      -0.839771       -22.8513 
  87   2.0000      -0.836706       -22.7679 
  88   2.0000      -0.826018       -22.4771 
  89   2.0000      -0.796878       -21.6842 
  90   2.0000      -0.789345       -21.4792 
  91   2.0000      -0.755681       -20.5631 
  92   2.0000      -0.751461       -20.4483 
  93   2.0000      -0.734012       -19.9735 
  94   2.0000      -0.726135       -19.7592 
  95   2.0000      -0.723493       -19.6873 
  96   2.0000      -0.717794       -19.5322 
  97   2.0000      -0.715500       -19.4697 
  98   2.0000      -0.709862       -19.3163 
  99   2.0000      -0.698364       -19.0035 
 100   2.0000      -0.696511       -18.9530 
 101   2.0000      -0.686604       -18.6834 
 102   2.0000      -0.684053       -18.6140 
 103   2.0000      -0.683763       -18.6061 
 104   2.0000      -0.679434       -18.4883 
 105   2.0000      -0.673607       -18.3298 
 106   2.0000      -0.671624       -18.2758 
 107   2.0000      -0.660516       -17.9736 
 108   2.0000      -0.656609       -17.8673 
 109   2.0000      -0.654148       -17.8003 
 110   2.0000      -0.650524       -17.7017 
 111   2.0000      -0.645737       -17.5714 
 112   2.0000      -0.644818       -17.5464 
 113   2.0000      -0.637938       -17.3592 
 114   2.0000      -0.636522       -17.3206 
 115   2.0000      -0.627193       -17.0668 
 116   2.0000      -0.621622       -16.9152 
 117   2.0000      -0.620423       -16.8826 
 118   2.0000      -0.614027       -16.7085 
 119   2.0000      -0.613251       -16.6874 
 120   2.0000      -0.611102       -16.6289 
 121   2.0000      -0.610052       -16.6004 
 122   2.0000      -0.599903       -16.3242 
 123   2.0000      -0.587393       -15.9838 
 124   2.0000      -0.582793       -15.8586 
 125   2.0000      -0.580617       -15.7994 
 126   2.0000      -0.579280       -15.7630 
 127   2.0000      -0.571939       -15.5633 
 128   2.0000      -0.569208       -15.4889 
 129   2.0000      -0.559442       -15.2232 
 130   2.0000      -0.552689       -15.0394 
 131   2.0000      -0.547952       -14.9105 
 132   2.0000      -0.543020       -14.7763 
 133   2.0000      -0.542250       -14.7554 
 134   2.0000      -0.539515       -14.6809 
 135   2.0000      -0.534963       -14.5571 
 136   2.0000      -0.530042       -14.4232 
 137   2.0000      -0.518956       -14.1215 
 138   2.0000      -0.518395       -14.1063 
 139   2.0000      -0.514290       -13.9945 
 140   2.0000      -0.511770       -13.9260 
 141   2.0000      -0.510753       -13.8983 
 142   2.0000      -0.509783       -13.8719 
 143   2.0000      -0.504454       -13.7269 
 144   2.0000      -0.500858       -13.6290 
 145   2.0000      -0.495586       -13.4856 
 146   2.0000      -0.491166       -13.3653 
 147   2.0000      -0.481802       -13.1105 
 148   2.0000      -0.477315       -12.9884 
 149   2.0000      -0.467525       -12.7220 
 150   2.0000      -0.466076       -12.6826 
 151   2.0000      -0.456763       -12.4291 
 152   2.0000      -0.450908       -12.2698 
 153   2.0000      -0.445506       -12.1228 
 154   2.0000      -0.439643       -11.9633 
 155   2.0000      -0.427587       -11.6352 
 156   2.0000      -0.409671       -11.1477 
 157   2.0000      -0.407696       -11.0940 
 158   2.0000      -0.400991       -10.9115 
 159   2.0000      -0.387285       -10.5386 
 160   2.0000      -0.386609       -10.5202 
 161   2.0000      -0.377820       -10.2810 
 162   2.0000      -0.371305       -10.1037 
 163   2.0000      -0.358017        -9.7421 
 164   2.0000      -0.354627        -9.6499 
 165   2.0000      -0.341268        -9.2864 
 166   2.0000      -0.337896        -9.1946 
 167   2.0000      -0.325713        -8.8631 
 168   2.0000      -0.320680        -8.7261 
 169   2.0000      -0.306049        -8.3280 
 170   2.0000      -0.299254        -8.1431 
 171   2.0000      -0.285004        -7.7553 
 172   2.0000      -0.279226        -7.5981 
 173   2.0000      -0.263030        -7.1574 
 174   2.0000      -0.241824        -6.5804 
 175   2.0000      -0.190122        -5.1735 
 176   2.0000      -0.180900        -4.9225 
 177   2.0000      -0.079213        -2.1555 
 178   2.0000      -0.059425        -1.6170 
 179   0.0000       0.028170         0.7665 
 180   0.0000       0.065220         1.7747 
 181   0.0000       0.090494         2.4625 
 182   0.0000       0.106573         2.9000 
 183   0.0000       0.114111         3.1051 
 184   0.0000       0.135838         3.6963 
 185   0.0000       0.140424         3.8211 
 186   0.0000       0.141246         3.8435 
 187   0.0000       0.163905         4.4601 
 188   0.0000       0.164635         4.4799 
 189   0.0000       0.166620         4.5340 
 190   0.0000       0.173293         4.7155 
 191   0.0000       0.180647         4.9157 
 192   0.0000       0.184074         5.0089 
 193   0.0000       0.189317         5.1516 
 194   0.0000       0.203762         5.5447 
 195   0.0000       0.206545         5.6204 
 196   0.0000       0.207120         5.6360 
 197   0.0000       0.209712         5.7065 
 198   0.0000       0.216795         5.8993 
 199   0.0000       0.229091         6.2339 
 200   0.0000       0.233766         6.3611 
 201   0.0000       0.234128         6.3710 
 202   0.0000       0.238262         6.4834 
 203   0.0000       0.240463         6.5433 
 204   0.0000       0.246158         6.6983 
 205   0.0000       0.254951         6.9376 
 206   0.0000       0.255952         6.9648 
 207   0.0000       0.257709         7.0126 
 208   0.0000       0.259608         7.0643 
 209   0.0000       0.260164         7.0794 
 210   0.0000       0.264029         7.1846 
 211   0.0000       0.266587         7.2542 
 212   0.0000       0.269126         7.3233 
 213   0.0000       0.270937         7.3726 
 214   0.0000       0.272684         7.4201 
 215   0.0000       0.276706         7.5296 
 216   0.0000       0.278705         7.5840 
 217   0.0000       0.280646         7.6368 
 218   0.0000       0.285246         7.7619 
 219   0.0000       0.288116         7.8400 
 220   0.0000       0.289124         7.8675 
 221   0.0000       0.292281         7.9534 
 222   0.0000       0.294302         8.0084 
 223   0.0000       0.295609         8.0439 
 224   0.0000       0.298497         8.1225 
 225   0.0000       0.300671         8.1817 
 226   0.0000       0.304255         8.2792 
 227   0.0000       0.309028         8.4091 
 228   0.0000       0.311578         8.4785 
 229   0.0000       0.324319         8.8252 
 230   0.0000       0.327838         8.9209 
 231   0.0000       0.333922         9.0865 
 232   0.0000       0.343248         9.3402 
 233   0.0000       0.353041         9.6067 
 234   0.0000       0.354637         9.6502 
 235   0.0000       0.360757         9.8167 
 236   0.0000       0.375473        10.2172 
 237   0.0000       0.390950        10.6383 
 238   0.0000       0.395147        10.7525 
 239   0.0000       0.396889        10.7999 
 240   0.0000       0.403878        10.9901 
 241   0.0000       0.408727        11.1220 
 242   0.0000       0.411628        11.2010 
 243   0.0000       0.419263        11.4087 
 244   0.0000       0.427942        11.6449 
 245   0.0000       0.434416        11.8211 
 246   0.0000       0.436914        11.8890 
 247   0.0000       0.439929        11.9711 
 248   0.0000       0.442306        12.0358 
 249   0.0000       0.448042        12.1918 
 250   0.0000       0.458815        12.4850 
 251   0.0000       0.466073        12.6825 
 252   0.0000       0.469363        12.7720 
 253   0.0000       0.470586        12.8053 
 254   0.0000       0.472193        12.8490 
 255   0.0000       0.474716        12.9177 
 256   0.0000       0.478575        13.0227 
 257   0.0000       0.479198        13.0396 
 258   0.0000       0.488651        13.2969 
 259   0.0000       0.495568        13.4851 
 260   0.0000       0.504208        13.7202 
 261   0.0000       0.504404        13.7255 
 262   0.0000       0.507112        13.7992 
 263   0.0000       0.511035        13.9060 
 264   0.0000       0.516226        14.0472 
 265   0.0000       0.519371        14.1328 
 266   0.0000       0.525428        14.2976 
 267   0.0000       0.527206        14.3460 
 268   0.0000       0.532990        14.5034 
 269   0.0000       0.536738        14.6054 
 270   0.0000       0.542408        14.7597 
 271   0.0000       0.545179        14.8351 
 272   0.0000       0.558106        15.1868 
 273   0.0000       0.559017        15.2116 
 274   0.0000       0.560721        15.2580 
 275   0.0000       0.566228        15.4079 
 276   0.0000       0.570760        15.5312 
 277   0.0000       0.573125        15.5955 
 278   0.0000       0.578830        15.7508 
 279   0.0000       0.586218        15.9518 
 280   0.0000       0.590610        16.0713 
 281   0.0000       0.593025        16.1370 
 282   0.0000       0.594932        16.1889 
 283   0.0000       0.595704        16.2099 
 284   0.0000       0.597258        16.2522 
 285   0.0000       0.598666        16.2905 
 286   0.0000       0.606366        16.5001 
 287   0.0000       0.610860        16.6224 
 288   0.0000       0.618631        16.8338 
 289   0.0000       0.624534        16.9944 
 290   0.0000       0.625464        17.0198 
 291   0.0000       0.630543        17.1579 
 292   0.0000       0.634291        17.2599 
 293   0.0000       0.637932        17.3590 
 294   0.0000       0.644031        17.5250 
 295   0.0000       0.648828        17.6555 
 296   0.0000       0.652945        17.7675 
 297   0.0000       0.655427        17.8351 
 298   0.0000       0.661745        18.0070 
 299   0.0000       0.665222        18.1016 
 300   0.0000       0.671184        18.2639 
 301   0.0000       0.674903        18.3650 
 302   0.0000       0.677285        18.4299 
 303   0.0000       0.678426        18.4609 
 304   0.0000       0.680906        18.5284 
 305   0.0000       0.684396        18.6234 
 306   0.0000       0.689145        18.7526 
 307   0.0000       0.691988        18.8300 
 308   0.0000       0.695920        18.9369 
 309   0.0000       0.699544        19.0356 
 310   0.0000       0.701630        19.0923 
 311   0.0000       0.704585        19.1727 
 312   0.0000       0.707282        19.2461 
 313   0.0000       0.710508        19.3339 
 314   0.0000       0.711365        19.3572 
 315   0.0000       0.714468        19.4417 
 316   0.0000       0.716480        19.4964 
 317   0.0000       0.719133        19.5686 
 318   0.0000       0.722722        19.6663 
 319   0.0000       0.726287        19.7633 
 320   0.0000       0.729129        19.8406 
 321   0.0000       0.729807        19.8591 
 322   0.0000       0.731586        19.9075 
 323   0.0000       0.733274        19.9534 
 324   0.0000       0.735192        20.0056 
 325   0.0000       0.740889        20.1606 
 326   0.0000       0.744816        20.2675 
 327   0.0000       0.748093        20.3567 
 328   0.0000       0.750392        20.4192 
 329   0.0000       0.753134        20.4938 
 330   0.0000       0.759575        20.6691 
 331   0.0000       0.760302        20.6889 
 332   0.0000       0.765007        20.8169 
 333   0.0000       0.766818        20.8662 
 334   0.0000       0.768877        20.9222 
 335   0.0000       0.773268        21.0417 
 336   0.0000       0.776833        21.1387 
 337   0.0000       0.782249        21.2861 
 338   0.0000       0.786169        21.3927 
 339   0.0000       0.789316        21.4784 
 340   0.0000       0.793362        21.5885 
 341   0.0000       0.795418        21.6444 
 342   0.0000       0.797714        21.7069 
 343   0.0000       0.803352        21.8603 
 344   0.0000       0.805835        21.9279 
 345   0.0000       0.806404        21.9434 
 346   0.0000       0.808187        21.9919 
 347   0.0000       0.812031        22.0965 
 348   0.0000       0.816281        22.2121 
 349   0.0000       0.816834        22.2272 
 350   0.0000       0.818582        22.2748 
 351   0.0000       0.821026        22.3413 
 352   0.0000       0.822591        22.3838 
 353   0.0000       0.825697        22.4684 
 354   0.0000       0.829108        22.5612 
 355   0.0000       0.832364        22.6498 
 356   0.0000       0.835935        22.7470 
 357   0.0000       0.836314        22.7573 
 358   0.0000       0.838007        22.8033 
 359   0.0000       0.839614        22.8471 
 360   0.0000       0.842628        22.9291 
 361   0.0000       0.844293        22.9744 
 362   0.0000       0.845488        23.0069 
 363   0.0000       0.847493        23.0615 
 364   0.0000       0.849459        23.1150 
 365   0.0000       0.853236        23.2177 
 366   0.0000       0.858678        23.3658 
 367   0.0000       0.864212        23.5164 
 368   0.0000       0.864513        23.5246 
 369   0.0000       0.866064        23.5668 
 370   0.0000       0.870048        23.6752 
 371   0.0000       0.871624        23.7181 
 372   0.0000       0.875869        23.8336 
 373   0.0000       0.878467        23.9043 
 374   0.0000       0.878875        23.9154 
 375   0.0000       0.883170        24.0323 
 376   0.0000       0.886941        24.1349 
 377   0.0000       0.890279        24.2257 
 378   0.0000       0.892161        24.2769 
 379   0.0000       0.894099        24.3297 
 380   0.0000       0.895750        24.3746 
 381   0.0000       0.898940        24.4614 
 382   0.0000       0.899133        24.4667 
 383   0.0000       0.901410        24.5286 
 384   0.0000       0.905562        24.6416 
 385   0.0000       0.906156        24.6577 
 386   0.0000       0.909659        24.7531 
 387   0.0000       0.909782        24.7564 
 388   0.0000       0.913935        24.8694 
 389   0.0000       0.915903        24.9230 
 390   0.0000       0.920533        25.0490 
 391   0.0000       0.926156        25.2020 
 392   0.0000       0.926913        25.2226 
 393   0.0000       0.927913        25.2498 
 394   0.0000       0.929113        25.2824 
 395   0.0000       0.932962        25.3872 
 396   0.0000       0.934248        25.4222 
 397   0.0000       0.937864        25.5206 
 398   0.0000       0.942388        25.6437 
 399   0.0000       0.945345        25.7241 
 400   0.0000       0.947530        25.7836 
 401   0.0000       0.952199        25.9107 
 402   0.0000       0.954172        25.9643 
 403   0.0000       0.955804        26.0088 
 404   0.0000       0.960457        26.1354 
 405   0.0000       0.965142        26.2628 
 406   0.0000       0.968066        26.3424 
 407   0.0000       0.978613        26.6294 
 408   0.0000       0.979911        26.6647 
 409   0.0000       0.982535        26.7361 
 410   0.0000       0.986088        26.8328 
 411   0.0000       0.987274        26.8651 
 412   0.0000       0.994892        27.0724 
 413   0.0000       1.002349        27.2753 
 414   0.0000       1.006700        27.3937 
 415   0.0000       1.010968        27.5098 
 416   0.0000       1.014173        27.5970 
 417   0.0000       1.018755        27.7217 
 418   0.0000       1.020757        27.7762 
 419   0.0000       1.027963        27.9723 
 420   0.0000       1.033661        28.1274 
 421   0.0000       1.036491        28.2043 
 422   0.0000       1.048495        28.5310 
 423   0.0000       1.049612        28.5614 
 424   0.0000       1.052837        28.6492 
 425   0.0000       1.070956        29.1422 
 426   0.0000       1.072417        29.1820 
 427   0.0000       1.075540        29.2669 
 428   0.0000       1.080633        29.4055 
 429   0.0000       1.081296        29.4236 
 430   0.0000       1.084902        29.5217 
 431   0.0000       1.086716        29.5711 
 432   0.0000       1.093914        29.7669 
 433   0.0000       1.099355        29.9150 
 434   0.0000       1.105072        30.0705 
 435   0.0000       1.106276        30.1033 
 436   0.0000       1.108543        30.1650 
 437   0.0000       1.112246        30.2658 
 438   0.0000       1.119177        30.4543 
 439   0.0000       1.120734        30.4967 
 440   0.0000       1.122077        30.5333 
 441   0.0000       1.126116        30.6432 
 442   0.0000       1.127036        30.6682 
 443   0.0000       1.131847        30.7991 
 444   0.0000       1.134343        30.8670 
 445   0.0000       1.136107        30.9150 
 446   0.0000       1.142126        31.0788 
 447   0.0000       1.149967        31.2922 
 448   0.0000       1.150415        31.3044 
 449   0.0000       1.154537        31.4165 
 450   0.0000       1.158187        31.5159 
 451   0.0000       1.160619        31.5821 
 452   0.0000       1.163398        31.6577 
 453   0.0000       1.166928        31.7537 
 454   0.0000       1.169161        31.8145 
 455   0.0000       1.173324        31.9278 
 456   0.0000       1.177619        32.0446 
 457   0.0000       1.184661        32.2363 
 458   0.0000       1.189276        32.3618 
 459   0.0000       1.196508        32.5586 
 460   0.0000       1.200358        32.6634 
 461   0.0000       1.201154        32.6851 
 462   0.0000       1.203097        32.7379 
 463   0.0000       1.205259        32.7968 
 464   0.0000       1.208345        32.8807 
 465   0.0000       1.214523        33.0489 
 466   0.0000       1.216224        33.0951 
 467   0.0000       1.219322        33.1794 
 468   0.0000       1.224998        33.3339 
 469   0.0000       1.229266        33.4500 
 470   0.0000       1.235370        33.6161 
 471   0.0000       1.236705        33.6525 
 472   0.0000       1.237341        33.6698 
 473   0.0000       1.238427        33.6993 
 474   0.0000       1.241669        33.7875 
 475   0.0000       1.243756        33.8443 
 476   0.0000       1.247915        33.9575 
 477   0.0000       1.253128        34.0993 
 478   0.0000       1.254947        34.1488 
 479   0.0000       1.255251        34.1571 
 480   0.0000       1.261384        34.3240 
 481   0.0000       1.267329        34.4858 
 482   0.0000       1.270763        34.5792 
 483   0.0000       1.273219        34.6461 
 484   0.0000       1.274461        34.6799 
 485   0.0000       1.280685        34.8492 
 486   0.0000       1.284331        34.9484 
 487   0.0000       1.285662        34.9846 
 488   0.0000       1.290652        35.1204 
 489   0.0000       1.296792        35.2875 
 490   0.0000       1.297733        35.3131 
 491   0.0000       1.300832        35.3974 
 492   0.0000       1.303150        35.4605 
 493   0.0000       1.308204        35.5980 
 494   0.0000       1.312782        35.7226 
 495   0.0000       1.317742        35.8576 
 496   0.0000       1.318618        35.8814 
 497   0.0000       1.319979        35.9185 
 498   0.0000       1.326783        36.1036 
 499   0.0000       1.327012        36.1098 
 500   0.0000       1.329505        36.1777 
 501   0.0000       1.336635        36.3717 
 502   0.0000       1.340572        36.4788 
 503   0.0000       1.343493        36.5583 
 504   0.0000       1.348333        36.6900 
 505   0.0000       1.350291        36.7433 
 506   0.0000       1.353320        36.8257 
 507   0.0000       1.355314        36.8800 
 508   0.0000       1.357229        36.9321 
 509   0.0000       1.363094        37.0917 
[...]
      pz      :     0.022118  p :     0.079786
      px      :     0.043618
      py      :     0.014050
 77 H s       :     0.884529  s :     0.884529
      pz      :     0.047982  p :     0.079293
      px      :     0.015024
      py      :     0.016288
 78 H s       :     0.884917  s :     0.884917
      pz      :     0.025883  p :     0.079256
      px      :     0.020454
      py      :     0.032919
 79 H s       :     0.910553  s :     0.910553
      pz      :     0.021796  p :     0.086325
      px      :     0.021661
      py      :     0.042868
 80 H s       :     0.864503  s :     0.864503
      pz      :     0.039390  p :     0.084841
      px      :     0.030296
      py      :     0.015156
 81 H s       :     0.886975  s :     0.886975
      pz      :     0.037813  p :     0.084114
      px      :     0.016191
      py      :     0.030110
 82 H s       :     0.916214  s :     0.916214
      pz      :     0.021967  p :     0.086717
      px      :     0.031645
      py      :     0.033105
 83 H s       :     0.873730  s :     0.873730
      pz      :     0.039245  p :     0.084065
      px      :     0.015283
      py      :     0.029537
 84 H s       :     0.886978  s :     0.886978
      pz      :     0.035749  p :     0.083434
      px      :     0.031685
      py      :     0.015999
 85 H s       :     0.893087  s :     0.893087
      pz      :     0.022484  p :     0.079773
      px      :     0.014079
      py      :     0.043210
 86 H s       :     0.891189  s :     0.891189
      pz      :     0.024723  p :     0.078811
      px      :     0.032967
      py      :     0.021121
 87 H s       :     0.889993  s :     0.889993
      pz      :     0.048005  p :     0.078727
      px      :     0.015585
      py      :     0.015137
 88 H s       :     0.910568  s :     0.910568
      pz      :     0.021657  p :     0.087040
      px      :     0.042924
      py      :     0.022458
 89 H s       :     0.871159  s :     0.871159
      pz      :     0.037951  p :     0.083840
      px      :     0.030488
      py      :     0.015400


                      *****************************
                      * MAYER POPULATION ANALYSIS *
                      *****************************

  NA   - Mulliken gross atomic population
  ZA   - Total nuclear charge
  QA   - Mulliken gross atomic charge
  VA   - Mayer's total valence
  BVA  - Mayer's bonded valence
  FA   - Mayer's free valence

  ATOM       NA         ZA         QA         VA         BVA        FA
  0 C      5.7864     6.0000     0.2136     3.8435     3.8435     0.0000
  1 N      7.4576     7.0000    -0.4576     3.3360     3.3360    -0.0000
  2 C      6.0761     6.0000    -0.0761     3.9240     3.9240    -0.0000
  3 N      7.3402     7.0000    -0.3402     3.4580     3.4580    -0.0000
  4 C      6.0612     6.0000    -0.0612     4.0910     4.0910    -0.0000
  5 N      7.5660     7.0000    -0.5660     3.0963     3.0963     0.0000
  6 C      6.1229     6.0000    -0.1229     3.9601     3.9601     0.0000
  7 N      7.3409     7.0000    -0.3409     3.4324     3.4324    -0.0000
  8 C      5.7840     6.0000     0.2160     3.8484     3.8484    -0.0000
  9 N      7.5626     7.0000    -0.5626     3.0773     3.0773     0.0000
 10 C      5.8806     6.0000     0.1194     3.9099     3.9099     0.0000
 11 N      7.4380     7.0000    -0.4380     3.3803     3.3803    -0.0000
 12 C      6.0627     6.0000    -0.0627     3.8603     3.8603    -0.0000
 13 N      7.4295     7.0000    -0.4295     3.4278     3.4278     0.0000
 14 C      5.7876     6.0000     0.2124     3.7904     3.7904    -0.0000
 15 N      7.4413     7.0000    -0.4413     3.3705     3.3705    -0.0000
 16 C      5.7673     6.0000     0.2327     3.7767     3.7767    -0.0000
 17 C      6.1199     6.0000    -0.1199     3.9605     3.9605     0.0000
 18 C      6.1552     6.0000    -0.1552     3.7504     3.7504    -0.0000
 19 C      5.7974     6.0000     0.2026     3.8670     3.8670    -0.0000
 20 C      5.7854     6.0000     0.2146     3.8287     3.8287     0.0000
 21 C      6.0782     6.0000    -0.0782     3.8624     3.8624    -0.0000
 22 C      6.0892     6.0000    -0.0892     3.9820     3.9820     0.0000
 23 C      6.0398     6.0000    -0.0398     3.9924     3.9924     0.0000
 24 C      5.8054     6.0000     0.1946     3.8211     3.8211    -0.0000
 25 C      5.8857     6.0000     0.1143     3.8908     3.8908    -0.0000
 26 C      6.0881     6.0000    -0.0881     3.9092     3.9092    -0.0000
 27 C      5.7863     6.0000     0.2137     3.8610     3.8610    -0.0000
 28 C      6.0614     6.0000    -0.0614     3.9888     3.9888     0.0000
 29 C      6.1825     6.0000    -0.1825     3.7468     3.7468     0.0000
 30 C      5.7540     6.0000     0.2460     3.7990     3.7990    -0.0000
 31 C      5.7692     6.0000     0.2308     3.8174     3.8174    -0.0000
 32 C      6.0613     6.0000    -0.0613     3.9236     3.9236    -0.0000
 33 C      6.0605     6.0000    -0.0605     3.9713     3.9713     0.0000
 34 C      6.0503     6.0000    -0.0503     3.9837     3.9837     0.0000
 35 C      5.7726     6.0000     0.2274     3.8164     3.8164    -0.0000
 36 C      5.8917     6.0000     0.1083     3.8749     3.8749     0.0000
 37 C      6.0643     6.0000    -0.0643     3.9177     3.9177     0.0000
 38 C      5.7681     6.0000     0.2319     3.8019     3.8019    -0.0000
 39 C      6.0584     6.0000    -0.0584     3.9831     3.9831     0.0000
 40 C      6.1809     6.0000    -0.1809     3.7267     3.7267     0.0000
 41 C      5.7751     6.0000     0.2249     3.8869     3.8869    -0.0000
 42 C      5.8030     6.0000     0.1970     3.8259     3.8259    -0.0000
 43 C      6.0726     6.0000    -0.0726     3.8999     3.8999    -0.0000
 44 C      6.0906     6.0000    -0.0906     3.9859     3.9859     0.0000
 45 C      6.0616     6.0000    -0.0616     3.9920     3.9920    -0.0000
 46 C      5.7893     6.0000     0.2107     3.8288     3.8288    -0.0000
 47 C      5.8844     6.0000     0.1156     3.8935     3.8935    -0.0000
 48 C      6.0671     6.0000    -0.0671     3.9092     3.9092     0.0000
 49 C      5.7617     6.0000     0.2383     3.8957     3.8957     0.0000
 50 C      6.0463     6.0000    -0.0463     3.9904     3.9904    -0.0000
 51 C      6.1952     6.0000    -0.1952     3.7371     3.7371     0.0000
 52 H      0.9634     1.0000     0.0366     0.9860     0.9860    -0.0000
 53 H      1.0178     1.0000    -0.0178     0.9990     0.9990     0.0000
 54 H      0.9526     1.0000     0.0474     1.0186     1.0186     0.0000
 55 H      0.9652     1.0000     0.0348     0.9866     0.9866     0.0000
 56 H      0.9510     1.0000     0.0490     0.9695     0.9695     0.0000
 57 H      0.9526     1.0000     0.0474     0.9823     0.9823     0.0000
 58 H      0.9536     1.0000     0.0464     0.9849     0.9849     0.0000
 59 H      1.0048     1.0000    -0.0048     1.0009     1.0009    -0.0000
 60 H      0.9490     1.0000     0.0510     1.0242     1.0242     0.0000
 61 H      0.8290     1.0000     0.1710     1.0421     1.0421    -0.0000
 62 H      0.8243     1.0000     0.1757     1.0436     1.0436    -0.0000
 63 H      0.9440     1.0000     0.0560     0.9852     0.9852     0.0000
 64 H      1.0095     1.0000    -0.0095     0.9946     0.9946    -0.0000
 65 H      0.9528     1.0000     0.0472     1.0100     1.0100    -0.0000
 66 H      0.9438     1.0000     0.0562     0.9854     0.9854     0.0000
 67 H      0.9369     1.0000     0.0631     0.9720     0.9720    -0.0000
 68 H      0.9425     1.0000     0.0575     0.9868     0.9868    -0.0000
 69 H      0.9432     1.0000     0.0568     0.9828     0.9828     0.0000
 70 H      1.0297     1.0000    -0.0297     0.9937     0.9937     0.0000
 71 H      0.9545     1.0000     0.0455     1.0059     1.0059    -0.0000
 72 H      0.9287     1.0000     0.0713     0.9835     0.9835    -0.0000
 73 H      1.0079     1.0000    -0.0079     1.0009     1.0009    -0.0000
 74 H      0.9396     1.0000     0.0604     1.0101     1.0101     0.0000
 75 H      0.9293     1.0000     0.0707     0.9839     0.9839    -0.0000
 76 H      0.9250     1.0000     0.0750     0.9721     0.9721    -0.0000
 77 H      0.9320     1.0000     0.0680     0.9855     0.9855    -0.0000
 78 H      0.9328     1.0000     0.0672     0.9854     0.9854    -0.0000
 79 H      1.0163     1.0000    -0.0163     0.9976     0.9976    -0.0000
 80 H      0.9388     1.0000     0.0612     1.0072     1.0072     0.0000
 81 H      0.9460     1.0000     0.0540     0.9857     0.9857    -0.0000
 82 H      1.0253     1.0000    -0.0253     0.9933     0.9933    -0.0000
 83 H      0.9588     1.0000     0.0412     1.0083     1.0083    -0.0000
 84 H      0.9464     1.0000     0.0536     0.9853     0.9853    -0.0000
 85 H      0.9396     1.0000     0.0604     0.9716     0.9716    -0.0000
 86 H      0.9448     1.0000     0.0552     0.9839     0.9839     0.0000
 87 H      0.9431     1.0000     0.0569     0.9856     0.9856    -0.0000
 88 H      1.0145     1.0000    -0.0145     0.9968     0.9968     0.0000
 89 H      0.9531     1.0000     0.0469     1.0073     1.0073    -0.0000

  Mayer bond orders larger than 0.100000
B(  0-C ,  1-N ) :   1.0894 B(  0-C , 17-C ) :   1.7180 B(  0-C , 52-H ) :   0.9637 
B(  1-N ,  8-C ) :   1.0935 B(  1-N , 10-C ) :   0.9782 B(  2-C , 12-C ) :   1.4910 
B(  2-C , 16-C ) :   1.3691 B(  2-C , 53-H ) :   0.9741 B(  3-N , 14-C ) :   1.2202 
B(  3-N , 16-C ) :   1.1852 B(  3-N , 61-H ) :   0.8991 B(  4-C ,  6-C ) :   1.2133 
B(  4-C , 17-C ) :   1.2136 B(  4-C , 18-C ) :   1.4665 B(  5-N , 19-C ) :   1.4565 
B(  5-N , 27-C ) :   1.3737 B(  6-C ,  8-C ) :   1.7157 B(  6-C , 54-H ) :   0.9196 
B(  7-N , 30-C ) :   1.1945 B(  7-N , 38-C ) :   1.1905 B(  7-N , 62-H ) :   0.8966 
B(  8-C , 55-H ) :   0.9646 B(  9-N , 41-C ) :   1.3923 B(  9-N , 49-C ) :   1.4276 
B( 10-C , 56-H ) :   0.9774 B( 10-C , 57-H ) :   0.9832 B( 10-C , 58-H ) :   0.9834 
B( 11-N , 20-C ) :   1.1325 B( 11-N , 24-C ) :   1.1085 B( 11-N , 25-C ) :   0.9594 
B( 12-C , 14-C ) :   1.3591 B( 12-C , 59-H ) :   0.9529 B( 13-N , 31-C ) :   1.1622 
B( 13-N , 35-C ) :   1.1589 B( 13-N , 36-C ) :   0.9415 B( 14-C , 18-C ) :   1.1184 
B( 15-N , 42-C ) :   1.1067 B( 15-N , 46-C ) :   1.1230 B( 15-N , 47-C ) :   0.9619 
B( 16-C , 51-C ) :   1.1671 B( 17-C , 60-H ) :   0.9234 B( 18-C , 19-C ) :   1.1190 
B( 19-C , 21-C ) :   1.2505 B( 20-C , 28-C ) :   1.6269 B( 20-C , 63-H ) :   0.9702 
B( 21-C , 26-C ) :   1.5930 B( 21-C , 64-H ) :   0.9550 B( 22-C , 23-C ) :   1.2910 
B( 22-C , 28-C ) :   1.2655 B( 22-C , 29-C ) :   1.2227 B( 23-C , 24-C ) :   1.6183 
B( 23-C , 65-H ) :   0.9703 B( 24-C , 66-H ) :   0.9695 B( 25-C , 67-H ) :   0.9760 
B( 25-C , 68-H ) :   0.9828 B( 25-C , 69-H ) :   0.9823 B( 26-C , 27-C ) :   1.2524 
B( 26-C , 70-H ) :   0.9682 B( 27-C , 29-C ) :   1.2082 B( 28-C , 71-H ) :   0.9719 
B( 29-C , 30-C ) :   1.2475 B( 30-C , 32-C ) :   1.2777 B( 31-C , 39-C ) :   1.5882 
B( 31-C , 72-H ) :   0.9681 B( 32-C , 37-C ) :   1.5815 B( 32-C , 73-H ) :   0.9785 
B( 33-C , 34-C ) :   1.3079 B( 33-C , 39-C ) :   1.3031 B( 33-C , 40-C ) :   1.1754 
B( 34-C , 35-C ) :   1.5852 B( 34-C , 74-H ) :   0.9696 B( 35-C , 75-H ) :   0.9681 
B( 36-C , 76-H ) :   0.9767 B( 36-C , 77-H ) :   0.9815 B( 36-C , 78-H ) :   0.9823 
B( 37-C , 38-C ) :   1.2831 B( 37-C , 79-H ) :   0.9765 B( 38-C , 40-C ) :   1.2352 
B( 39-C , 80-H ) :   0.9705 B( 40-C , 41-C ) :   1.2503 B( 41-C , 43-C ) :   1.1860 
B( 42-C , 50-C ) :   1.6350 B( 42-C , 81-H ) :   0.9697 B( 43-C , 48-C ) :   1.6664 
B( 43-C , 82-H ) :   0.9721 B( 44-C , 45-C ) :   1.2622 B( 44-C , 50-C ) :   1.2706 
B( 44-C , 51-C ) :   1.2645 B( 45-C , 46-C ) :   1.6362 B( 45-C , 83-H ) :   0.9719 
B( 46-C , 84-H ) :   0.9701 B( 47-C , 85-H ) :   0.9762 B( 47-C , 86-H ) :   0.9829 
B( 47-C , 87-H ) :   0.9825 B( 48-C , 49-C ) :   1.1896 B( 48-C , 88-H ) :   0.9749 
B( 49-C , 51-C ) :   1.2422 B( 50-C , 89-H ) :   0.9708 

-------
TIMINGS
-------

Total SCF time: 0 days 0 hours 28 min 28 sec 

Total time                  ....    1708.785 sec
Sum of individual times     ....    1704.039 sec  ( 99.7%)

Fock matrix formation       ....    1676.204 sec  ( 98.1%)
Diagonalization             ....       8.795 sec  (  0.5%)
Density matrix formation    ....       0.534 sec  (  0.0%)
Population analysis         ....       0.587 sec  (  0.0%)
Initial guess               ....       2.527 sec  (  0.1%)
Orbital Transformation      ....       0.000 sec  (  0.0%)
Orbital Orthonormalization  ....       0.000 sec  (  0.0%)
DIIS solution               ....       3.974 sec  (  0.2%)
SOSCF solution              ....      10.121 sec  (  0.6%)

Maximum memory used throughout the entire SCF-calculation: 302.7 MB


           ************************************************************
           *        Program running with 16 parallel MPI-processes    *
           *              working on a common directory               *
           ************************************************************

------------------------------------------------------------------------------
                                ORCA  MP2 
------------------------------------------------------------------------------

Freezing NCore=104 chemical core electrons

----------
MP2 ENERGY (disk based algorithm)
----------

Dimension of the basis                    ...  918
Memory devoted to MP2                     ... 2000 MB   
Data format for buffers                   ... DOUBLE
Compression type for matrix containers    ... UNCOMPRESSED

-------------------------------
PARTIAL EXCHANGE TRANSFORMATION
-------------------------------

Transformation type                        ... one-operator
Generation of integrals (i,mue|j,nue)      ... ON
Generation of integrals (mue,kappa|nue,tau)... OFF
Generation of integrals (i,mue|a,nue)      ... OFF
Dimension of the basis                     ...  918
Number of internal MOs                     ...  127 (  52- 178)
Pair cutoff                                ... 2.500e-12 Eh
Number of AO pairs in the trafo            ... 421821
Total Number of distinct AO pairs          ... 421821
Memory devoted for trafo                   ... 2000.0 MB 
Max. Number of MO pairs treated together   ...  311      
Number Format for Storage                  ... Double (8 Byte)
Integral package used                      ... LIBINT

Starting integral evaluation:
    ... done with AO integral generation
Closing buffer AOK     (38.30 GB; CompressionRatio= 1.32)
Collecting buffer AOK 
Number of MO pairs included in the trafo   ... 8128
------------------------
SORTING OF (i,mue|j,nue)
------------------------

IBATCH = 1 of  2
IBATCH = 2 of  2
Closing buffer KAO     (51.03 GB; CompressionRatio= 1.00)
Collecting buffer KAO 
N(AO-Batches) Done                         ...  86114183 
N(AO-Batches) Skipped                      ...  82273061 
N(IJ)-pairs Skipped                        ...         0 
TOTAL TIME for half transformation         ...  3164.822 sec
AO-integral generation                     ...   211.829 sec
Half transformation                        ...   423.028 sec
K-integral sorting                         ...  2308.509 sec

Finished integral transformation - now doing MP2 part

OPERATOR COMBINATION   0   0: ij=( 52..178, 52..178)
Process 13:   Internal MO 156
Process  4:   Internal MO  84
Process  7:   Internal MO 108
Process 10:   Internal MO 132
Process  1:   Internal MO  60
Process  0:   Internal MO  54
Process  2:   Internal MO  69
Process  0:   Internal MO  57
Process  1:   Internal MO  63
Process  3:   Internal MO  78
Process  1:   Internal MO  66
Process  2:   Internal MO  72
Process  8:   Internal MO 117
Process  6:   Internal MO 102
Process 11:   Internal MO 141
Process 14:   Internal MO 165
Process  2:   Internal MO  75
Process  9:   Internal MO 126
Process  3:   Internal MO  81
Process  4:   Internal MO  87
Process  7:   Internal MO 111
Process  5:   Internal MO  93
Process 12:   Internal MO 150
Process  6:   Internal MO 105
Process 15:   Internal MO 174
Process 10:   Internal MO 135
Process  4:   Internal MO  90
Process  5:   Internal MO  96
Process  8:   Internal MO 120
Process  9:   Internal MO 129
Process  7:   Internal MO 114
Process  5:   Internal MO  99
Process 11:   Internal MO 144
Process 13:   Internal MO 159
Process 14:   Internal MO 168
Process 10:   Internal MO 138
Process 12:   Internal MO 153
Process  8:   Internal MO 123
Process 15:   Internal MO 177
Process 11:   Internal MO 147
Process 13:   Internal MO 162
Process 14:   Internal MO 171
-----------------------------------------------
 MP2 CORRELATION ENERGY   :     -7.285174595 Eh
-----------------------------------------------


-------
TIMINGS
-------
Total time                : 3487.973 sec
Integral trafo            : 3168.431 sec ( 90.8%)
K(i,j)                    :   10.149 sec (  0.3%)
T(i,j)                    :    0.111 sec (  0.0%)

---------------------------------------
MP2 TOTAL ENERGY:    -2130.837607420 Eh
---------------------------------------

Maximum memory used throughout the entire MP2-calculation: 2275.3 MB

-------------------------   --------------------
FINAL SINGLE POINT ENERGY     -2130.837607420322
-------------------------   --------------------


                            ***************************************
                            *     ORCA property calculations      *
                            ***************************************


  WARNING: The energy has been calculated at the MP2 level but the densities
           used in the property calculations are still SCF densities
           MP2 response densities have not been calculated 
           use %mp2 Density relaxed end
           or  %mp2 Density unrelaxed end

                                    ---------------------
                                    Active property flags
                                    ---------------------
   (+) Dipole Moment


------------------------------------------------------------------------------
                       ORCA ELECTRIC PROPERTIES CALCULATION
------------------------------------------------------------------------------

Dipole Moment Calculation                       ... on
Quadrupole Moment Calculation                   ... off
Polarizability Calculation                      ... off
GBWName                                         ... /scratch/allen/tmpyp4_amber_gaff2/conf1/conf1/Conf164.orca.gbw
Electron density                                ... /scratch/allen/tmpyp4_amber_gaff2/conf1/conf1/Conf164.orca.scfp
The origin for moment calculation is the CENTER OF MASS  = ( 0.003435, -0.001782  0.001184)

-------------
DIPOLE MOMENT
-------------
                                X             Y             Z
Electronic contribution:      2.58290      -4.44205      -0.21793
Nuclear contribution   :      0.04973       0.22022       0.21497
                        -----------------------------------------
Total Dipole Moment    :      2.63263      -4.22183      -0.00295
                        -----------------------------------------
Magnitude (a.u.)       :      4.97540
Magnitude (Debye)      :     12.64646



--------------------
Rotational spectrum 
--------------------
 
Rotational constants in cm-1:     0.001501     0.001479     0.000760 
Rotational constants in MHz :    44.999272    44.343396    22.788645 

 Dipole components along the rotational axes: 
x,y,z [a.u.] :     3.393973    -3.638070     0.000269 
x,y,z [Debye]:     8.626793    -9.247238     0.000684 

 

Timings for individual modules:

Sum of individual times         ...     5243.833 sec (=  87.397 min)
GTO integral calculation        ...        3.646 sec (=   0.061 min)   0.1 %
SCF iterations                  ...     1709.973 sec (=  28.500 min)  32.6 %
MP2 module                      ...     3530.215 sec (=  58.837 min)  67.3 %
                             ****ORCA TERMINATED NORMALLY****
TOTAL RUN TIME: 0 days 1 hours 27 minutes 27 seconds 541 msec
# of primitive gaussian functions

