
                                 *****************
                                 * O   R   C   A *
                                 *****************

                                            #,                                       
                                            ###                                      
                                            ####                                     
                                            #####                                    
                                            ######                                   
                                           ########,                                 
                                     ,,################,,,,,                         
                               ,,#################################,,                 
                          ,,##########################################,,             
                       ,#########################################, ''#####,          
                    ,#############################################,,   '####,        
                  ,##################################################,,,,####,       
                ,###########''''           ''''###############################       
              ,#####''   ,,,,##########,,,,          '''####'''          '####       
            ,##' ,,,,###########################,,,                        '##       
           ' ,,###''''                  '''############,,,                           
         ,,##''                                '''############,,,,        ,,,,,,###''
      ,#''                                            '''#######################'''  
     '                                                          ''''####''''         
             ,#######,   #######,   ,#######,      ##                                
            ,#'     '#,  ##    ##  ,#'     '#,    #''#        ######   ,####,        
            ##       ##  ##   ,#'  ##            #'  '#       #        #'  '#        
            ##       ##  #######   ##           ,######,      #####,   #    #        
            '#,     ,#'  ##    ##  '#,     ,#' ,#      #,         ##   #,  ,#        
             '#######'   ##     ##  '#######'  #'      '#     #####' # '####'        



                  #######################################################
                  #                        -***-                        #
                  #          Department of theory and spectroscopy      #
                  #    Directorship and core code : Frank Neese         #
                  #        Max Planck Institute fuer Kohlenforschung    #
                  #                Kaiser Wilhelm Platz 1               #
                  #                 D-45470 Muelheim/Ruhr               #
                  #                      Germany                        #
                  #                                                     #
                  #                  All rights reserved                #
                  #                        -***-                        #
                  #######################################################


                         Program Version 5.0.4 -  RELEASE  -


 With contributions from (in alphabetic order):
   Daniel Aravena         : Magnetic Suceptibility
   Michael Atanasov       : Ab Initio Ligand Field Theory (pilot matlab implementation)
   Alexander A. Auer      : GIAO ZORA, VPT2 properties, NMR spectrum
   Ute Becker             : Parallelization
   Giovanni Bistoni       : ED, misc. LED, open-shell LED, HFLD
   Martin Brehm           : Molecular dynamics
   Dmytro Bykov           : SCF Hessian
   Vijay G. Chilkuri      : MRCI spin determinant printing, contributions to CSF-ICE
   Dipayan Datta          : RHF DLPNO-CCSD density
   Achintya Kumar Dutta   : EOM-CC, STEOM-CC
   Dmitry Ganyushin       : Spin-Orbit,Spin-Spin,Magnetic field MRCI
   Miquel Garcia          : C-PCM and meta-GGA Hessian, CC/C-PCM, Gaussian charge scheme
   Yang Guo               : DLPNO-NEVPT2, F12-NEVPT2, CIM, IAO-localization
   Andreas Hansen         : Spin unrestricted coupled pair/coupled cluster methods
   Benjamin Helmich-Paris : MC-RPA, TRAH-SCF, COSX integrals
   Lee Huntington         : MR-EOM, pCC
   Robert Izsak           : Overlap fitted RIJCOSX, COSX-SCS-MP3, EOM
   Marcus Kettner         : VPT2
   Christian Kollmar      : KDIIS, OOCD, Brueckner-CCSD(T), CCSD density, CASPT2, CASPT2-K
   Simone Kossmann        : Meta GGA functionals, TD-DFT gradient, OOMP2, MP2 Hessian
   Martin Krupicka        : Initial AUTO-CI
   Lucas Lang             : DCDCAS
   Marvin Lechner         : AUTO-CI (C++ implementation), FIC-MRCC
   Dagmar Lenk            : GEPOL surface, SMD
   Dimitrios Liakos       : Extrapolation schemes; Compound Job, initial MDCI parallelization
   Dimitrios Manganas     : Further ROCIS development; embedding schemes
   Dimitrios Pantazis     : SARC Basis sets
   Anastasios Papadopoulos: AUTO-CI, single reference methods and gradients
   Taras Petrenko         : DFT Hessian,TD-DFT gradient, ASA, ECA, R-Raman, ABS, FL, XAS/XES, NRVS
   Peter Pinski           : DLPNO-MP2, DLPNO-MP2 Gradient
   Christoph Reimann      : Effective Core Potentials
   Marius Retegan         : Local ZFS, SOC
   Christoph Riplinger    : Optimizer, TS searches, QM/MM, DLPNO-CCSD(T), (RO)-DLPNO pert. Triples
   Tobias Risthaus        : Range-separated hybrids, TD-DFT gradient, RPA, STAB
   Michael Roemelt        : Original ROCIS implementation
   Masaaki Saitow         : Open-shell DLPNO-CCSD energy and density
   Barbara Sandhoefer     : DKH picture change effects
   Avijit Sen             : IP-ROCIS
   Kantharuban Sivalingam : CASSCF convergence, NEVPT2, FIC-MRCI
   Bernardo de Souza      : ESD, SOC TD-DFT
   Georgi Stoychev        : AutoAux, RI-MP2 NMR, DLPNO-MP2 response
   Willem Van den Heuvel  : Paramagnetic NMR
   Boris Wezisla          : Elementary symmetry handling
   Frank Wennmohs         : Technical directorship


 We gratefully acknowledge several colleagues who have allowed us to
 interface, adapt or use parts of their codes:
   Stefan Grimme, W. Hujo, H. Kruse, P. Pracht,  : VdW corrections, initial TS optimization,
                  C. Bannwarth, S. Ehlert          DFT functionals, gCP, sTDA/sTD-DF
   Ed Valeev, F. Pavosevic, A. Kumar             : LibInt (2-el integral package), F12 methods
   Garnet Chan, S. Sharma, J. Yang, R. Olivares  : DMRG
   Ulf Ekstrom                                   : XCFun DFT Library
   Mihaly Kallay                                 : mrcc  (arbitrary order and MRCC methods)
   Jiri Pittner, Ondrej Demel                    : Mk-CCSD
   Frank Weinhold                                : gennbo (NPA and NBO analysis)
   Christopher J. Cramer and Donald G. Truhlar   : smd solvation model
   Lars Goerigk                                  : TD-DFT with DH, B97 family of functionals
   V. Asgeirsson, H. Jonsson                     : NEB implementation
   FAccTs GmbH                                   : IRC, NEB, NEB-TS, DLPNO-Multilevel, CI-OPT
                                                   MM, QMMM, 2- and 3-layer-ONIOM, Crystal-QMMM,
                                                   LR-CPCM, SF, NACMEs, symmetry and pop. for TD-DFT,
                                                   nearIR, NL-DFT gradient (VV10), updates on ESD,
                                                   ML-optimized integration grids
   S Lehtola, MJT Oliveira, MAL Marques          : LibXC Library
   Liviu Ungur et al                             : ANISO software


 Your calculation uses the libint2 library for the computation of 2-el integrals
 For citations please refer to: http://libint.valeyev.net

 Your ORCA version has been built with support for libXC version: 5.1.0
 For citations please refer to: https://tddft.org/programs/libxc/

 This ORCA versions uses:
   CBLAS   interface :  Fast vector & matrix operations
   LAPACKE interface :  Fast linear algebra routines
   SCALAPACK package :  Parallel linear algebra routines
   Shared memory     :  Shared parallel matrices
   BLAS/LAPACK       :  OpenBLAS 0.3.15  USE64BITINT DYNAMIC_ARCH NO_AFFINITY Sandybridge SINGLE_THREADED
        Core in use  :  Sandybridge
   Copyright (c) 2011-2014, The OpenBLAS Project


================================================================================

----- Orbital basis set information -----
Your calculation utilizes the basis: cc-pVDZ 
       H, B-Ne : Obtained from the ccRepo (grant-hill.group.shef.ac.uk/ccrepo) Feb. 2017
                 T. H. Dunning, Jr., J. Chem. Phys. 90, 1007 (1989)
            He : Obtained from the ccRepo (grant-hill.group.shef.ac.uk/ccrepo) Feb. 2017
                 D. E. Woon, T. H. Dunning, Jr., J. Chem. Phys. 100, 2975 (1994)
  Li-Be, Na-Mg : Obtained from the ccRepo (grant-hill.group.shef.ac.uk/ccrepo) Feb. 2017
                 B. P. Prascher, D. E. Woon, K. A. Peterson, T. H. Dunning, Jr., A. K. Wilson, Theor. Chem. Acc. 128, 69 (2011)
         Al-Ar : Obtained from the ccRepo (grant-hill.group.shef.ac.uk/ccrepo) Feb. 2017
                 D. E. Woon, T. H. Dunning, Jr., J. Chem. Phys. 98, 1358 (1993)
            Ca : Obtained from the Peterson Research Group Website (tyr0.chem.wsu.edu/~kipeters) Feb. 2017
                 J. Koput, K. A. Peterson, J. Phys. Chem. 106, 9595 (2002)
         Sc-Zn : Obtained from the ccRepo (grant-hill.group.shef.ac.uk/ccrepo) Feb. 2017
                 N. B. Balabanov, K. A. Peterson, J. Chem. Phys. 123, 064107 (2005)
                 N. B. Balabanov, K. A. Peterson, J. Chem. Phys. 125, 074110 (2006)
         Ga-Kr : Obtained from the ccRepo (grant-hill.group.shef.ac.uk/ccrepo) Feb. 2017
                 A. K. Wilson, D. E. Woon, K. A. Peterson, T. H. Dunning, Jr., J. Chem. Phys. 110, 7667 (1999)

================================================================================
                                        WARNINGS
                       Please study these warnings very carefully!
================================================================================


WARNING: No MP2 level density has been requested!
         To caclulate MP2 level properties use
         %mp2 Density relaxed end
         or
         %mp2 Density unrelaxed end

WARNING: Post HF methods need fully converged wavefunctions
  ===> : Setting SCFConvForced true
         You can overwrite this default with %scf ConvForced false 


INFO   : the flag for use of the SHARK integral package has been found!

================================================================================
                                       INPUT FILE
================================================================================
NAME = /scratch/allen/tmpyp4_amber_gaff2/2.Mdgx/conf11/conf11/Conf129.orca
|  1> ! PAL2
|  2> ! mp2 cc-pvdz TightSCF  NoKeepInts
|  3> 
|  4> %scf
|  5>   MaxCore 2000
|  6> end
|  7> %mp2
|  8>   MaxCore 2000
|  9> end
| 10> * xyz 0 1
| 11>    C       -4.57500         5.46000        -0.85100
| 12>    C        1.47400         4.04100         0.05700
| 13>    C       -2.80200         4.09300         0.04900
| 14>    C       -2.59700         5.08700         1.01900
| 15>    C       -3.38200         6.22200         1.02400
| 16>    C       -5.20100         7.61000         0.15300
| 17>    C        0.13200         4.30700         0.06100
| 18>    C       -0.56900         3.05600         0.04700
| 19>    C        1.64900         2.61800         0.02300
| 20>    C       -3.82000         4.30500        -0.89400
| 21>    N       -4.35200         6.39900         0.09700
| 22>    N        0.38800         2.06700         0.02500
| 23>    N       -2.01000         0.39500        -0.07500
| 24>    N       -0.38800        -2.07400        -0.02700
| 25>    N        2.01000        -0.40100         0.06500
| 26>    C       -1.96000         2.86100         0.02400
| 27>    C       -2.62300         1.61500        -0.01800
| 28>    C       -5.57300        -4.32900         1.06600
| 29>    C       -4.07300         1.47100         0.05600
| 30>    C       -4.10600        -2.75600        -0.02600
| 31>    C       -4.99500        -2.75700        -1.11100
| 32>    C       -6.13200        -3.54200        -1.07600
| 33>    C       -7.65100        -5.11300         0.04000
| 34>    C       -4.32400         0.14100         0.03700
| 35>    C       -3.02500        -0.52000        -0.04800
| 36>    C       -4.42200        -3.56600         1.07500
| 37>    N       -6.40700        -4.31300         0.00100
| 38>    C       -2.86700        -1.92200        -0.04000
| 39>    C       -1.65000        -2.62400        -0.02700
| 40>    C        3.56800        -6.14200        -1.04000
| 41>    C       -1.47600        -4.04900        -0.03400
| 42>    C        2.80300        -4.09900        -0.00800
| 43>    C        3.65700        -4.38400         1.06900
| 44>    C        4.42700        -5.53000         1.05900
| 45>    C        5.24500        -7.58800         0.01400
| 46>    C       -0.13400        -4.31500        -0.02200
| 47>    C        0.56800        -3.06400        -0.02700
| 48>    C        2.77500        -5.01200        -1.07400
| 49>    N        4.37600        -6.39100         0.01700
| 50>    C        1.95900        -2.86900        -0.00900
| 51>    C        2.62100        -1.62200         0.00900
| 52>    C        5.54300         4.33900        -1.13000
| 53>    C        4.07000        -1.47900        -0.09400
| 54>    C        4.10400         2.75100        -0.02100
| 55>    C        5.02700         2.72900         1.03600
| 56>    C        6.16600         3.50900         0.97800
| 57>    C        7.61900         5.15300        -0.11500
| 58>    C        4.32100        -0.14800        -0.09200
| 59>    C        3.02500         0.51400         0.01500
| 60>    C        4.38700         3.58200        -1.11500
| 61>    C        2.86600         1.91600         0.01300
| 62>    N        6.41300         4.29600        -0.09500
| 63>    H       -5.36200         5.67100        -1.56500
| 64>    H        2.27400         4.76600         0.08100
| 65>    H       -1.83400         4.97700         1.77900
| 66>    H       -3.26800         7.01100         1.75600
| 67>    H       -6.03300         7.42900         0.83700
| 68>    H       -4.59800         8.44500         0.50800
| 69>    H       -5.57800         7.82000        -0.84800
| 70>    H       -0.33200         5.28200         0.06900
| 71>    H       -4.01800         3.58100        -1.67600
| 72>    H        0.18200         1.07200         0.00500
| 73>    H       -0.18300        -1.08000        -0.02100
| 74>    H       -5.86400        -4.96200         1.89500
| 75>    H       -4.79400         2.27200         0.13900
| 76>    H       -4.80000        -2.16000        -1.99400
| 77>    H       -6.84100        -3.58200        -1.89300
| 78>    H       -8.42800        -4.53600         0.54600
| 79>    H       -7.95600        -5.33700        -0.98100
| 80>    H       -7.45600        -6.03700         0.58400
| 81>    H       -5.28700        -0.34400         0.10000
| 82>    H       -3.78000        -3.60100         1.94700
| 83>    H        3.58700        -6.86800        -1.84300
| 84>    H       -2.27600        -4.77400        -0.05000
| 85>    H        3.71400        -3.72400         1.92600
| 86>    H        5.09200        -5.79500         1.87100
| 87>    H        6.20500        -7.32900        -0.43900
| 88>    H        5.39300        -7.91700         1.04200
| 89>    H        4.75900        -8.37300        -0.56400
| 90>    H        0.32900        -5.29000        -0.00800
| 91>    H        2.14600        -4.84200        -1.94000
| 92>    H        5.80800         4.98600        -1.95600
| 93>    H        4.78800        -2.28100        -0.18500
| 94>    H        4.86000         2.11400         1.91200
| 95>    H        6.90100         3.53100         1.77200
| 96>    H        7.38300         6.10900         0.35600
| 97>    H        8.41400         4.65200         0.43500
| 98>    H        7.92100         5.31000        -1.15000
| 99>    H        5.28300         0.33600        -0.17900
|100>    H        3.72000         3.63200        -1.96700
|101> *
|102> 
|103>                          ****END OF INPUT****
================================================================================

                       ****************************
                       * Single Point Calculation *
                       ****************************

---------------------------------
CARTESIAN COORDINATES (ANGSTROEM)
---------------------------------
  C     -4.575000    5.460000   -0.851000
  C      1.474000    4.041000    0.057000
  C     -2.802000    4.093000    0.049000
  C     -2.597000    5.087000    1.019000
  C     -3.382000    6.222000    1.024000
  C     -5.201000    7.610000    0.153000
  C      0.132000    4.307000    0.061000
  C     -0.569000    3.056000    0.047000
  C      1.649000    2.618000    0.023000
  C     -3.820000    4.305000   -0.894000
  N     -4.352000    6.399000    0.097000
  N      0.388000    2.067000    0.025000
  N     -2.010000    0.395000   -0.075000
  N     -0.388000   -2.074000   -0.027000
  N      2.010000   -0.401000    0.065000
  C     -1.960000    2.861000    0.024000
  C     -2.623000    1.615000   -0.018000
  C     -5.573000   -4.329000    1.066000
  C     -4.073000    1.471000    0.056000
  C     -4.106000   -2.756000   -0.026000
  C     -4.995000   -2.757000   -1.111000
  C     -6.132000   -3.542000   -1.076000
  C     -7.651000   -5.113000    0.040000
  C     -4.324000    0.141000    0.037000
  C     -3.025000   -0.520000   -0.048000
  C     -4.422000   -3.566000    1.075000
  N     -6.407000   -4.313000    0.001000
  C     -2.867000   -1.922000   -0.040000
  C     -1.650000   -2.624000   -0.027000
  C      3.568000   -6.142000   -1.040000
  C     -1.476000   -4.049000   -0.034000
  C      2.803000   -4.099000   -0.008000
  C      3.657000   -4.384000    1.069000
  C      4.427000   -5.530000    1.059000
  C      5.245000   -7.588000    0.014000
  C     -0.134000   -4.315000   -0.022000
  C      0.568000   -3.064000   -0.027000
  C      2.775000   -5.012000   -1.074000
  N      4.376000   -6.391000    0.017000
  C      1.959000   -2.869000   -0.009000
  C      2.621000   -1.622000    0.009000
  C      5.543000    4.339000   -1.130000
  C      4.070000   -1.479000   -0.094000
  C      4.104000    2.751000   -0.021000
  C      5.027000    2.729000    1.036000
  C      6.166000    3.509000    0.978000
  C      7.619000    5.153000   -0.115000
  C      4.321000   -0.148000   -0.092000
  C      3.025000    0.514000    0.015000
  C      4.387000    3.582000   -1.115000
  C      2.866000    1.916000    0.013000
  N      6.413000    4.296000   -0.095000
  H     -5.362000    5.671000   -1.565000
  H      2.274000    4.766000    0.081000
  H     -1.834000    4.977000    1.779000
  H     -3.268000    7.011000    1.756000
  H     -6.033000    7.429000    0.837000
  H     -4.598000    8.445000    0.508000
  H     -5.578000    7.820000   -0.848000
  H     -0.332000    5.282000    0.069000
  H     -4.018000    3.581000   -1.676000
  H      0.182000    1.072000    0.005000
  H     -0.183000   -1.080000   -0.021000
  H     -5.864000   -4.962000    1.895000
  H     -4.794000    2.272000    0.139000
  H     -4.800000   -2.160000   -1.994000
  H     -6.841000   -3.582000   -1.893000
  H     -8.428000   -4.536000    0.546000
  H     -7.956000   -5.337000   -0.981000
  H     -7.456000   -6.037000    0.584000
  H     -5.287000   -0.344000    0.100000
  H     -3.780000   -3.601000    1.947000
  H      3.587000   -6.868000   -1.843000
  H     -2.276000   -4.774000   -0.050000
  H      3.714000   -3.724000    1.926000
  H      5.092000   -5.795000    1.871000
  H      6.205000   -7.329000   -0.439000
  H      5.393000   -7.917000    1.042000
  H      4.759000   -8.373000   -0.564000
  H      0.329000   -5.290000   -0.008000
  H      2.146000   -4.842000   -1.940000
  H      5.808000    4.986000   -1.956000
  H      4.788000   -2.281000   -0.185000
  H      4.860000    2.114000    1.912000
  H      6.901000    3.531000    1.772000
  H      7.383000    6.109000    0.356000
  H      8.414000    4.652000    0.435000
  H      7.921000    5.310000   -1.150000
  H      5.283000    0.336000   -0.179000
  H      3.720000    3.632000   -1.967000

----------------------------
CARTESIAN COORDINATES (A.U.)
----------------------------
  NO LB      ZA    FRAG     MASS         X           Y           Z
   0 C     6.0000    0    12.011   -8.645497   10.317905   -1.608157
   1 C     6.0000    0    12.011    2.785456    7.636383    0.107714
   2 C     6.0000    0    12.011   -5.295013    7.734649    0.092597
   3 C     6.0000    0    12.011   -4.907619    9.613037    1.925631
   4 C     6.0000    0    12.011   -6.391054   11.757876    1.935080
   5 C     6.0000    0    12.011   -9.828466   14.380816    0.289128
   6 C     6.0000    0    12.011    0.249444    8.139050    0.115273
   7 C     6.0000    0    12.011   -1.075254    5.775003    0.088817
   8 C     6.0000    0    12.011    3.116158    4.947303    0.043464
   9 C     6.0000    0    12.011   -7.218754    8.135271   -1.689415
  10 N     7.0000    0    14.007   -8.224088   12.092358    0.183303
  11 N     7.0000    0    14.007    0.733214    3.906064    0.047243
  12 N     7.0000    0    14.007   -3.798350    0.746442   -0.141729
  13 N     7.0000    0    14.007   -0.733214   -3.919292   -0.051023
  14 N     7.0000    0    14.007    3.798350   -0.757780    0.122832
  15 C     6.0000    0    12.011   -3.703863    5.406506    0.045353
  16 C     6.0000    0    12.011   -4.956752    3.051908   -0.034015
  17 C     6.0000    0    12.011  -10.531444   -8.180624    2.014448
  18 C     6.0000    0    12.011   -7.696855    2.779787    0.105825
  19 C     6.0000    0    12.011   -7.759216   -5.208085   -0.049133
  20 C     6.0000    0    12.011   -9.439182   -5.209975   -2.099486
  21 C     6.0000    0    12.011  -11.587801   -6.693410   -2.033345
  22 C     6.0000    0    12.011  -14.458295   -9.662170    0.075589
  23 C     6.0000    0    12.011   -8.171176    0.266451    0.069920
  24 C     6.0000    0    12.011   -5.716422   -0.982658   -0.090707
  25 C     6.0000    0    12.011   -8.356369   -6.738763    2.031456
  26 N     7.0000    0    14.007  -12.107475   -8.150389    0.001890
  27 C     6.0000    0    12.011   -5.417845   -3.632054   -0.075589
  28 C     6.0000    0    12.011   -3.118048   -4.958641   -0.051023
  29 C     6.0000    0    12.011    6.742543  -11.606698   -1.965315
  30 C     6.0000    0    12.011   -2.789236   -7.651501   -0.064251
  31 C     6.0000    0    12.011    5.296902   -7.745987   -0.015118
  32 C     6.0000    0    12.011    6.910728   -8.284559    2.020117
  33 C     6.0000    0    12.011    8.365818  -10.450186    2.001220
  34 C     6.0000    0    12.011    9.911614  -14.339242    0.026456
  35 C     6.0000    0    12.011   -0.253223   -8.154168   -0.041574
  36 C     6.0000    0    12.011    1.073364   -5.790121   -0.051023
  37 C     6.0000    0    12.011    5.243990   -9.471307   -2.029566
  38 N     7.0000    0    14.007    8.269442  -12.077240    0.032125
  39 C     6.0000    0    12.011    3.701973   -5.421624   -0.017008
  40 C     6.0000    0    12.011    4.952972   -3.065136    0.017008
  41 C     6.0000    0    12.011   10.474752    8.199522   -2.135391
  42 C     6.0000    0    12.011    7.691185   -2.794905   -0.177634
  43 C     6.0000    0    12.011    7.755436    5.198637   -0.039684
  44 C     6.0000    0    12.011    9.499653    5.157063    1.957756
  45 C     6.0000    0    12.011   11.652051    6.631049    1.848152
  46 C     6.0000    0    12.011   14.397823    9.737759   -0.217319
  47 C     6.0000    0    12.011    8.165507   -0.279679   -0.173855
  48 C     6.0000    0    12.011    5.716422    0.971319    0.028346
  49 C     6.0000    0    12.011    8.290229    6.768999   -2.107045
  50 C     6.0000    0    12.011    5.415955    3.620715    0.024566
  51 N     7.0000    0    14.007   12.118814    8.118263   -0.179524
  52 H     1.0000    0     1.008  -10.132712   10.716637   -2.957421
  53 H     1.0000    0     1.008    4.297237    9.006435    0.153068
  54 H     1.0000    0     1.008   -3.465758    9.405167    3.361823
  55 H     1.0000    0     1.008   -6.175625   13.248870    3.318359
  56 H     1.0000    0     1.008  -11.400718   14.038775    1.581701
  57 H     1.0000    0     1.008   -8.688961   15.958737    0.959981
  58 H     1.0000    0     1.008  -10.540892   14.777658   -1.602488
  59 H     1.0000    0     1.008   -0.627389    9.981533    0.130391
  60 H     1.0000    0     1.008   -7.592920    6.767109   -3.167181
  61 H     1.0000    0     1.008    0.343930    2.025786    0.009449
  62 H     1.0000    0     1.008   -0.345820   -2.040904   -0.039684
  63 H     1.0000    0     1.008  -11.081354   -9.376821    3.581031
  64 H     1.0000    0     1.008   -9.059347    4.293458    0.262672
  65 H     1.0000    0     1.008   -9.070685   -4.081808   -3.768114
  66 H     1.0000    0     1.008  -12.927616   -6.768999   -3.577252
  67 H     1.0000    0     1.008  -15.926612   -8.571798    1.031790
  68 H     1.0000    0     1.008  -15.034661  -10.085468   -1.853821
  69 H     1.0000    0     1.008  -14.089798  -11.408277    1.103600
  70 H     1.0000    0     1.008   -9.990982   -0.650066    0.188973
  71 H     1.0000    0     1.008   -7.143165   -6.804904    3.679297
  72 H     1.0000    0     1.008    6.778448  -12.978639   -3.482765
  73 H     1.0000    0     1.008   -4.301017   -9.021553   -0.094486
  74 H     1.0000    0     1.008    7.018443   -7.037340    3.639613
  75 H     1.0000    0     1.008    9.622485  -10.950963    3.535678
  76 H     1.0000    0     1.008   11.725751  -13.849803   -0.829590
  77 H     1.0000    0     1.008   10.191293  -14.960962    1.969095
  78 H     1.0000    0     1.008    8.993207  -15.822677   -1.065806
  79 H     1.0000    0     1.008    0.621720   -9.996651   -0.015118
  80 H     1.0000    0     1.008    4.055352   -9.150054   -3.666069
  81 H     1.0000    0     1.008   10.975529    9.422175   -3.696304
  82 H     1.0000    0     1.008    9.048009   -4.310465   -0.349599
  83 H     1.0000    0     1.008    9.184069    3.994881    3.613156
  84 H     1.0000    0     1.008   13.041000    6.672623    3.348595
  85 H     1.0000    0     1.008   13.951848   11.544337    0.672743
  86 H     1.0000    0     1.008   15.900156    8.791006    0.822031
  87 H     1.0000    0     1.008   14.968521   10.034446   -2.173185
  88 H     1.0000    0     1.008    9.983423    0.634948   -0.338261
  89 H     1.0000    0     1.008    7.029781    6.863485   -3.717091

--------------------------------
INTERNAL COORDINATES (ANGSTROEM)
--------------------------------
 C      0   0   0     0.000000000000     0.00000000     0.00000000
 C      1   0   0     6.279205841506     0.00000000     0.00000000
 C      1   2   0     2.412927267864    27.14978078     0.00000000
 C      3   1   2     1.403909185097    87.93044271    75.69042683
 C      4   3   1     1.380027173646   120.11612301     0.15311205
 C      5   4   3     2.448253663328   152.57483152     1.60646516
 C      2   1   3     1.368114030335     8.71076945   316.01794923
 C      7   2   3     1.434084376876   108.05010202     0.84668783
 C      2   1   3     1.434123425651   109.77668598    37.23278473
 C      1   2   7     1.380543009109    44.65131578   272.14767986
 N      1   2   7     1.352831844687    84.07235231    59.08606910
 N      9   2   1     1.376127174356   106.58526707   350.17159018
 N     12   9   2     2.925062050624   168.53581413   171.12065651
 N     13  12   9     2.954513327098    91.55032014    11.12112580
 N     14  13  12     2.925371258490    88.43092389   359.84326247
 C      8   7   2     1.404790019896   127.24786865   181.11170171
 C     13  12   9     1.366535034311    81.72106996   188.00453233
 C     14  13  12     5.758810554272    80.56209567   166.76250791
 C     17  13  12     1.459010623676   111.08861209   183.82872609
 C     18  14  13     2.412235892279    27.27532823    36.33507194
 C     20  18  14     1.402692767501    87.95206320   148.94598259
 C     21  20  18     1.382106725257   120.14573887   359.70382047
 C     18  14  13     2.446510985056   144.15733107    82.80075377
 C     19  17  13     1.353610726908   106.29293361   359.75308708
 C     13  12   9     1.366813447402   172.21332906    33.46711076
 C     18  14  13     1.380960173213    15.08449437   309.23336894
 N     22  21  20     1.352773077792   120.73759875     0.27865223
 C     25  13  17     1.410897586645   125.60330303   182.37774668
 C     14  13  12     1.376642291955    80.24689249   177.85461986
 C     14  13  12     5.764089607215   164.51507311   312.20821879
 C     29  14  13     1.435600919476   106.58649366   178.76395472
 C     30  14  13     2.413316804732    27.10625047    82.12560436
 C     32  30  14     1.403734305344    87.90059683   149.76154742
 C     33  32  30     1.380694028378   120.14881443   359.74174632
 C     34  33  32     2.448777858443   152.49203239     2.45173620
 C     31  29  14     1.368160809262   108.16950133     0.70383075
 C     14  13  12     1.376239804685   169.26375223   353.09862627
 C     30  14  13     1.380907310430    14.68948582   353.70041132
 N     34  33  32     1.352658863128   120.85575621     0.19603406
 C     37  14  29     1.404717053360   126.01551127   180.90772073
 C     15  14  13     1.366491126938    81.61824056   183.09049352
 C      2   1   3     4.249062720177   150.02803553   157.82041999
 C     41  15  14     1.459677704153   111.05201287   175.08990246
 C     42   2   1     2.412953791518    41.78584867   210.57457375
 C     44  42   2     1.403446472082    87.95153797   233.97558675
 C     45  44  42     1.381696421071   120.11137308     0.19721020
 C     42   2   1     2.450019795838   135.97209175   120.88942285
 C     43  41  15     1.354461516618   106.26758155     0.30894352
 C     15  14  13     1.367461151185   171.87382904   332.35056460
 C     42   2   1     1.381886391857    32.59078432   259.42985294
 C      9   2   1     1.404988612053   126.98745415   171.17592771
 N     42   2   1     1.352765315936   113.57249190   148.62601204
 H      1   2   7     1.083367896885   147.04747651   190.76114461
 H      2   1   3     1.079907866440   124.41225059   208.57896991
 H      4   3   1     1.082528983446   121.06750857   179.50812841
 H      5   4   3     1.082285082591   122.82733745   179.43777052
 H      6   5   4     1.092172605406   104.43186417   100.08077720
 H      6   5   4     1.089430585214    84.68466199   209.55685002
 H      6   5   4     1.090059631396   133.85839259   322.40900908
 H      7   2  54     1.079807853278   126.66122480     1.30600390
 H     10   1   2     1.083929887031   118.77615070   220.01054964
 H     12   9   2     1.016297692608   125.29023241   180.00180175
 H     14  13  12     1.014936943854    44.97226959   359.42596618
 H     18  14  13     1.082871645210   128.03556573   234.20482432
 H     19  17  13     1.080893611786   126.41830519   178.11313280
 H     21  20  18     1.083569563987   121.05669627   180.67006309
 H     22  21  20     1.082483256222   122.73097286   180.59748951
 H     23  18  14     1.092105306278   103.92715769   234.93429879
 H     23  18  14     1.088871893291   134.19244188    12.25587044
 H     23  18  14     1.089833473518    84.85857450   125.45241208
 H     24  19  17     1.080075460327   127.28078426   178.44613241
 H     26  18  14     1.083408048706   118.76995697   244.94906660
 H     30  14  13     1.082703098730   127.99711412   279.66882698
 H     31  29  14     1.079759695488   125.22293469   180.92530585
 H     33  32  30     1.083188810873   121.01964473   180.74284758
 H     34  33  32     1.082494341787   122.70821597   180.59516895
 H     35  34  33     1.092652735319   105.73575241    97.19771933
 H     35  34  33     1.089462711615    84.05943581   206.43036958
 H     35  34  33     1.089268102902   133.08365142   318.50306270
 H     36  31  29     1.079439669458   126.61599965   178.98859863
 H     38  30  73     1.083742127999   118.77264435   359.90091293
 H     42   2   1     1.082178358682   119.31790784     5.25754250
 H     43  41  15     1.080281907652   126.36969097   182.06329380
 H     45  44  42     1.083277434455   121.10105945   179.58025624
 H     46  45  44     1.082194529648   122.72144639   179.46906377
 H     47  42   2     1.091546151109   106.65128841   315.16475048
 H     47  42   2     1.088818625851   132.46019523    94.52397119
 H     47  42   2     1.089531091801    83.63838232   206.04504406
 H     48  43  41     1.080402239909   127.23657387   181.62955349
 H     50  42   2     1.083186502870   118.77001737    94.71359229

---------------------------
INTERNAL COORDINATES (A.U.)
---------------------------
 C      0   0   0     0.000000000000     0.00000000     0.00000000
 C      1   0   0    11.865979378964     0.00000000     0.00000000
 C      1   2   0     4.559771717333    27.14978078     0.00000000
 C      3   1   2     2.653003876730    87.93044271    75.69042683
 C      4   3   1     2.607873415559   120.11612301     0.15311205
 C      5   4   3     4.626528930060   152.57483152     1.60646516
 C      2   1   3     2.585360837309     8.71076945   316.01794923
 C      7   2   3     2.710026725231   108.05010202     0.84668783
 C      2   1   3     2.710100516721   109.77668598    37.23278473
 C      1   2   7     2.608848203316    44.65131578   272.14767986
 N      1   2   7     2.556481691706    84.07235231    59.08606910
 N      9   2   1     2.600503484979   106.58526707   350.17159018
 N     12   9   2     5.527566200405   168.53581413   171.12065651
 N     13  12   9     5.583221047236    91.55032014    11.12112580
 N     14  13  12     5.528150518591    88.43092389   359.84326247
 C      8   7   2     2.654668413270   127.24786865   181.11170171
 C     13  12   9     2.582376967257    81.72106996   188.00453233
 C     14  13  12    10.882574804710    80.56209567   166.76250791
 C     17  13  12     2.757130505230   111.08861209   183.82872609
 C     18  14  13     4.558465206823    27.27532823    36.33507194
 C     20  18  14     2.650705180609    87.95206320   148.94598259
 C     21  20  18     2.611803198586   120.14573887   359.70382047
 C     18  14  13     4.623235745386   144.15733107    82.80075377
 C     19  17  13     2.557953565794   106.29293361   359.75308708
 C     13  12   9     2.582903091751   172.21332906    33.46711076
 C     18  14  13     2.609636529225    15.08449437   309.23336894
 N     22  21  20     2.556370638369   120.73759875     0.27865223
 C     25  13  17     2.666210041769   125.60330303   182.37774668
 C     14  13  12     2.601476916169    80.24689249   177.85461986
 C     14  13  12    10.892550769017   164.51507311   312.20821879
 C     29  14  13     2.712892575415   106.58649366   178.76395472
 C     30  14  13     4.560507835333    27.10625047    82.12560436
 C     32  30  14     2.652673401891    87.90059683   149.76154742
 C     33  32  30     2.609133588376   120.14881443   359.74174632
 C     34  33  32     4.627519515267   152.49203239     2.45173620
 C     31  29  14     2.585449236669   108.16950133     0.70383075
 C     14  13  12     2.600716325456   169.26375223   353.09862627
 C     30  14  13     2.609536633043    14.68948582   353.70041132
 N     34  33  32     2.556154803934   120.85575621     0.19603406
 C     37  14  29     2.654530526499   126.01551127   180.90772073
 C     15  14  13     2.582293994346    81.61824056   183.09049352
 C      2   1   3     8.029564866989   150.02803553   157.82041999
 C     41  15  14     2.758391104639   111.05201287   175.08990246
 C     42   2   1     4.559821839776    41.78584867   210.57457375
 C     44  42   2     2.652129475853    87.95153797   233.97558675
 C     45  44  42     2.611027836043   120.11137308     0.19721020
 C     42   2   1     4.629866436820   135.97209175   120.88942285
 C     43  41  15     2.559561325344   106.26758155     0.30894352
 C     15  14  13     2.584127074516   171.87382904   332.35056460
 C     42   2   1     2.611386828803    32.59078432   259.42985294
 C      9   2   1     2.655043698059   126.98745415   171.17592771
 N     42   2   1     2.556355970587   113.57249190   148.62601204
 H      1   2   7     2.047268627394   147.04747651   190.76114461
 H      2   1   3     2.040730117440   124.41225059   208.57896991
 H      4   3   1     2.045683310745   121.06750857   179.50812841
 H      5   4   3     2.045222404926   122.82733745   179.43777052
 H      6   5   4     2.063907115189   104.43186417   100.08077720
 H      6   5   4     2.058725447972    84.68466199   209.55685002
 H      6   5   4     2.059914172982   133.85839259   322.40900908
 H      7   2  54     2.040541119952   126.66122480     1.30600390
 H     10   1   2     2.048330634862   118.77615070   220.01054964
 H     12   9   2     1.920524309565   125.29023241   180.00180175
 H     14  13  12     1.917952867083    44.97226959   359.42596618
 H     18  14  13     2.046330847636   128.03556573   234.20482432
 H     19  17  13     2.042592906181   126.41830519   178.11313280
 H     21  20  18     2.047649722989   121.05669627   180.67006309
 H     22  21  20     2.045596898814   122.73097286   180.59748951
 H     23  18  14     2.063779938267   103.92715769   234.93429879
 H     23  18  14     2.057669673245   134.19244188    12.25587044
 H     23  18  14     2.059486796529    84.85857450   125.45241208
 H     24  19  17     2.041046823986   127.28078426   178.44613241
 H     26  18  14     2.047344503340   118.76995697   244.94906660
 H     30  14  13     2.046012340948   127.99711412   279.66882698
 H     31  29  14     2.040450114918   125.22293469   180.92530585
 H     33  32  30     2.046930203877   121.01964473   180.74284758
 H     34  33  32     2.045617847496   122.70821597   180.59516895
 H     35  34  33     2.064814429233   105.73575241    97.19771933
 H     35  34  33     2.058786158072    84.05943581   206.43036958
 H     35  34  33     2.058418400901   133.08365142   318.50306270
 H     36  31  29     2.039845353366   126.61599965   178.98859863
 H     38  30  73     2.047975821711   118.77264435   359.90091293
 H     42   2   1     2.045020725966   119.31790784     5.25754250
 H     43  41  15     2.041436952892   126.36969097   182.06329380
 H     45  44  42     2.047097678177   121.10105945   179.58025624
 H     46  45  44     2.045051284662   122.72144639   179.46906377
 H     47  42   2     2.062723288131   106.65128841   315.16475048
 H     47  42   2     2.057569012371   132.46019523    94.52397119
 H     47  42   2     2.058915377895    83.63838232   206.04504406
 H     48  43  41     2.041664347903   127.23657387   181.62955349
 H     50  42   2     2.046925842384   118.77001737    94.71359229

---------------------
BASIS SET INFORMATION
---------------------
There are 3 groups of distinct atoms

 Group   1 Type C   : 17s4p1d contracted to 3s2p1d pattern {881/31/1}
 Group   2 Type N   : 17s4p1d contracted to 3s2p1d pattern {881/31/1}
 Group   3 Type H   : 4s1p contracted to 2s1p pattern {31/1}

Atom   0C    basis set group =>   1
Atom   1N    basis set group =>   2
Atom   2C    basis set group =>   1
Atom   3N    basis set group =>   2
Atom   4C    basis set group =>   1
Atom   5N    basis set group =>   2
Atom   6C    basis set group =>   1
Atom   7N    basis set group =>   2
Atom   8C    basis set group =>   1
Atom   9N    basis set group =>   2
Atom  10C    basis set group =>   1
Atom  11N    basis set group =>   2
Atom  12C    basis set group =>   1
Atom  13N    basis set group =>   2
Atom  14C    basis set group =>   1
Atom  15N    basis set group =>   2
Atom  16C    basis set group =>   1
Atom  17C    basis set group =>   1
Atom  18C    basis set group =>   1
Atom  19C    basis set group =>   1
Atom  20C    basis set group =>   1
Atom  21C    basis set group =>   1
Atom  22C    basis set group =>   1
Atom  23C    basis set group =>   1
Atom  24C    basis set group =>   1
Atom  25C    basis set group =>   1
Atom  26C    basis set group =>   1
Atom  27C    basis set group =>   1
Atom  28C    basis set group =>   1
Atom  29C    basis set group =>   1
Atom  30C    basis set group =>   1
Atom  31C    basis set group =>   1
Atom  32C    basis set group =>   1
Atom  33C    basis set group =>   1
Atom  34C    basis set group =>   1
Atom  35C    basis set group =>   1
Atom  36C    basis set group =>   1
Atom  37C    basis set group =>   1
Atom  38C    basis set group =>   1
Atom  39C    basis set group =>   1
Atom  40C    basis set group =>   1
Atom  41C    basis set group =>   1
Atom  42C    basis set group =>   1
Atom  43C    basis set group =>   1
Atom  44C    basis set group =>   1
Atom  45C    basis set group =>   1
Atom  46C    basis set group =>   1
Atom  47C    basis set group =>   1
Atom  48C    basis set group =>   1
Atom  49C    basis set group =>   1
Atom  50C    basis set group =>   1
Atom  51C    basis set group =>   1
Atom  52H    basis set group =>   3
Atom  53H    basis set group =>   3
Atom  54H    basis set group =>   3
Atom  55H    basis set group =>   3
Atom  56H    basis set group =>   3
Atom  57H    basis set group =>   3
Atom  58H    basis set group =>   3
Atom  59H    basis set group =>   3
Atom  60H    basis set group =>   3
Atom  61H    basis set group =>   3
Atom  62H    basis set group =>   3
Atom  63H    basis set group =>   3
Atom  64H    basis set group =>   3
Atom  65H    basis set group =>   3
Atom  66H    basis set group =>   3
Atom  67H    basis set group =>   3
Atom  68H    basis set group =>   3
Atom  69H    basis set group =>   3
Atom  70H    basis set group =>   3
Atom  71H    basis set group =>   3
Atom  72H    basis set group =>   3
Atom  73H    basis set group =>   3
Atom  74H    basis set group =>   3
Atom  75H    basis set group =>   3
Atom  76H    basis set group =>   3
Atom  77H    basis set group =>   3
Atom  78H    basis set group =>   3
Atom  79H    basis set group =>   3
Atom  80H    basis set group =>   3
Atom  81H    basis set group =>   3
Atom  82H    basis set group =>   3
Atom  83H    basis set group =>   3
Atom  84H    basis set group =>   3
Atom  85H    basis set group =>   3
Atom  86H    basis set group =>   3
Atom  87H    basis set group =>   3
Atom  88H    basis set group =>   3
Atom  89H    basis set group =>   3


           ************************************************************
           *        Program running with 16 parallel MPI-processes    *
           *              working on a common directory               *
           ************************************************************
------------------------------------------------------------------------------
                           ORCA GTO INTEGRAL CALCULATION
------------------------------------------------------------------------------
------------------------------------------------------------------------------
                   ___                                                        
                  /   \      - P O W E R E D   B Y -                         
                 /     \                                                     
                 |  |  |   _    _      __       _____    __    __             
                 |  |  |  | |  | |    /  \     |  _  \  |  |  /  |          
                  \  \/   | |  | |   /    \    | | | |  |  | /  /          
                 / \  \   | |__| |  /  /\  \   | |_| |  |  |/  /          
                |  |  |   |  __  | /  /__\  \  |    /   |      \           
                |  |  |   | |  | | |   __   |  |    \   |  |\   \          
                \     /   | |  | | |  |  |  |  | |\  \  |  | \   \       
                 \___/    |_|  |_| |__|  |__|  |_| \__\ |__|  \__/        
                                                                              
                      - O R C A' S   B I G   F R I E N D -                    
                                      &                                       
                       - I N T E G R A L  F E E D E R -                       
                                                                              
 v1 FN, 2020, v2 2021                                                         
------------------------------------------------------------------------------


Reading SHARK input file /scratch/allen/tmpyp4_amber_gaff2/conf1/conf1/Conf129.orca.SHARKINP.tmp ... ok
----------------------
SHARK INTEGRAL PACKAGE
----------------------

Number of atoms                             ...     90
Number of basis functions                   ...   1230
Number of shells                            ...    738
Maximum angular momentum                    ...      2
Integral batch strategy                     ... SHARK/LIBINT Hybrid
RI-J (if used) integral strategy            ... SPLIT-RIJ (Revised 2003 algorithm where possible)
Printlevel                                  ...      1
Contraction scheme used                     ... PARTIAL GENERAL contraction
Coulomb Range Separation                    ... NOT USED
Exchange Range Separation                   ... NOT USED
Finite Nucleus Model                        ... NOT USED
Auxiliary Coulomb fitting basis             ... NOT available
Auxiliary J/K fitting basis                 ... NOT available
Auxiliary Correlation fitting basis         ... NOT available
Auxiliary 'external' fitting basis          ... NOT available
Integral threshold                          ...     2.500000e-11
Primitive cut-off                           ...     2.500000e-12
Primitive pair pre-selection threshold      ...     2.500000e-12

Calculating pre-screening integrals         ... done (  0.1 sec) Dimension = 738
Calculating pre-screening integrals (ORCA)  ... done (  0.3 sec) Dimension = 426
Organizing shell pair data                  ... done (  0.8 sec)
Shell pair information
Total number of shell pairs                 ...    272691
Shell pairs after pre-screening             ...     71604
Total number of primitive shell pairs       ...    422091
Primitive shell pairs kept                  ...     92382
          la=0 lb=0:  29412 shell pairs
          la=1 lb=0:  25967 shell pairs
          la=1 lb=1:   4701 shell pairs
          la=2 lb=0:   7869 shell pairs
          la=2 lb=1:   3124 shell pairs
          la=2 lb=2:    531 shell pairs

Calculating one electron integrals          ... done (  0.3 sec)
Calculating Nuclear repulsion               ... done (  0.0 sec) ENN=   6226.165705162530 Eh

SHARK setup successfully completed in   2.2 seconds

Maximum memory used throughout the entire GTOINT-calculation: 98.9 MB


           ************************************************************
           *        Program running with 16 parallel MPI-processes    *
           *              working on a common directory               *
           ************************************************************
-------------------------------------------------------------------------------
                                 ORCA SCF
-------------------------------------------------------------------------------

------------
SCF SETTINGS
------------
Hamiltonian:
 Ab initio Hamiltonian  Method          .... Hartree-Fock(GTOs)


General Settings:
 Integral files         IntName         .... /scratch/allen/tmpyp4_amber_gaff2/conf1/conf1/Conf129.orca
 Hartree-Fock type      HFTyp           .... RHF
 Total Charge           Charge          ....    0
 Multiplicity           Mult            ....    1
 Number of Electrons    NEL             ....  358
 Basis Dimension        Dim             ....  918
 Nuclear Repulsion      ENuc            ....   6226.1657051625 Eh

Convergence Acceleration:
 DIIS                   CNVDIIS         .... on
   Start iteration      DIISMaxIt       ....    12
   Startup error        DIISStart       ....  0.200000
   # of expansion vecs  DIISMaxEq       ....     5
   Bias factor          DIISBfac        ....   1.050
   Max. coefficient     DIISMaxC        ....  10.000
 Trust-Rad. Augm. Hess. CNVTRAH         .... auto
   Auto Start mean grad. ratio tolernc. ....  1.125000
   Auto Start start iteration           ....    20
   Auto Start num. interpolation iter.  ....    10
   Max. Number of Micro iterations      ....    16
   Max. Number of Macro iterations      .... Maxiter - #DIIS iter
   Number of Davidson start vectors     ....     2
   Converg. threshold I  (grad. norm)   ....   1.000e-05
   Converg. threshold II (energy diff.) ....   1.000e-08
   Grad. Scal. Fac. for Micro threshold ....   0.100
   Minimum threshold for Micro iter.    ....   0.010
   NR start threshold (gradient norm)   ....   0.001
   Initial trust radius                 ....   0.400
   Minimum AH scaling param. (alpha)    ....   1.000
   Maximum AH scaling param. (alpha)    .... 1000.000
   Orbital update algorithm             .... Taylor
   White noise on init. David. guess    .... on
   Maximum white noise                  ....   0.010
   Quad. conv. algorithm                .... NR
 SOSCF                  CNVSOSCF        .... on
   Start iteration      SOSCFMaxIt      ....   150
   Startup grad/error   SOSCFStart      ....  0.003300
 Level Shifting         CNVShift        .... on
   Level shift para.    LevelShift      ....    0.2500
   Turn off err/grad.   ShiftErr        ....    0.0010
 Zerner damping         CNVZerner       .... off
 Static damping         CNVDamp         .... on
   Fraction old density DampFac         ....    0.7000
   Max. Damping (<1)    DampMax         ....    0.9800
   Min. Damping (>=0)   DampMin         ....    0.0000
   Turn off err/grad.   DampErr         ....    0.1000
 Fernandez-Rico         CNVRico         .... off

SCF Procedure:
 Maximum # iterations   MaxIter         ....   125
 SCF integral mode      SCFMode         .... Direct
   Integral package                     .... SHARK and LIBINT hybrid scheme
 Reset frequency        DirectResetFreq ....    20
 Integral Threshold     Thresh          ....  2.500e-11 Eh
 Primitive CutOff       TCut            ....  2.500e-12 Eh

Convergence Tolerance:
 Convergence Check Mode ConvCheckMode   .... Total+1el-Energy
 Convergence forced     ConvForced      .... 1
 Energy Change          TolE            ....  1.000e-08 Eh
 1-El. energy change                    ....  1.000e-05 Eh
 Orbital Gradient       TolG            ....  1.000e-05
 Orbital Rotation angle TolX            ....  1.000e-05
 DIIS Error             TolErr          ....  5.000e-07


Diagonalization of the overlap matrix:
Smallest eigenvalue                        ... 2.249e-04
Time for diagonalization                   ...    0.365 sec
Threshold for overlap eigenvalues          ... 1.000e-08
Number of eigenvalues below threshold      ... 0
Time for construction of square roots      ...    0.247 sec
Total time needed                          ...    0.618 sec

Time for model grid setup =    1.048 sec

------------------------------
INITIAL GUESS: MODEL POTENTIAL
------------------------------
Loading Hartree-Fock densities                     ... done
Calculating cut-offs                               ... done
Initializing the effective Hamiltonian             ... done
Setting up the integral package (SHARK)            ... done
Starting the Coulomb interaction                   ... done (   1.2 sec)
Reading the grid                                   ... done
Mapping shells                                     ... done
Starting the XC term evaluation                    ... done (   0.2 sec)
Transforming the Hamiltonian                       ... done (   0.2 sec)
Diagonalizing the Hamiltonian                      ... done (   0.3 sec)
Back transforming the eigenvectors                 ... done (   0.1 sec)
Now organizing SCF variables                       ... done
                      ------------------
                      INITIAL GUESS DONE (   3.1 sec)
                      ------------------
--------------
SCF ITERATIONS
--------------
ITER       Energy         Delta-E        Max-DP      RMS-DP      [F,P]     Damp
               ***  Starting incremental Fock matrix formation  ***
  0  -2121.6848292425   0.000000000000 0.06887867  0.00120745  0.2327676 0.7000
  1  -2122.3474895445  -0.662660301954 0.05223591  0.00097991  0.1440621 0.7000
                               ***Turning on DIIS***
  2  -2122.7590153067  -0.411525762245 0.11629567  0.00222130  0.0802433 0.0000
  3  -2117.7897160422   4.969299264561 0.03016480  0.00067673  0.0441842 0.0000
  4  -2123.4244962653  -5.634780223112 0.00878798  0.00022699  0.0071772 0.0000
  5  -2123.5984639488  -0.173967683520 0.00510005  0.00013396  0.0049665 0.0000
  6  -2123.5809906003   0.017473348506 0.00340549  0.00008669  0.0019332 0.0000
  7  -2123.6840076566  -0.103017056321 0.00287940  0.00006828  0.0015145 0.0000
  8  -2123.6999484433  -0.015940786667 0.00296047  0.00006400  0.0014074 0.0000
  9  -2123.6656538631   0.034294580222 0.00238583  0.00004383  0.0011110 0.0000
 10  -2123.6781622121  -0.012508349037 0.00491768  0.00008680  0.0008482 0.0000
                      *** Initiating the SOSCF procedure ***
                           *** Shutting down DIIS ***
                      *** Re-Reading the Fockian *** 
                      *** Removing any level shift *** 
ITER      Energy       Delta-E        Grad      Rot      Max-DP    RMS-DP
 11  -2123.56467936   0.1134828565  0.000274  0.000274  0.000280  0.000006
               *** Restarting incremental Fock matrix formation ***
 12  -2123.62881208  -0.0641327292  0.000870  0.005869  0.001123  0.000028
 13  -2123.62888111  -0.0000690292  0.000953  0.025352  0.005195  0.000099
 14  -2123.62897781  -0.0000966953  0.000448  0.002079  0.000519  0.000011
 15  -2123.62899106  -0.0000132549  0.000181  0.003106  0.000792  0.000014
 16  -2123.62899831  -0.0000072488  0.000127  0.004308  0.000776  0.000016
 17  -2123.62900254  -0.0000042247  0.000143  0.003390  0.000481  0.000010
 18  -2123.62900462  -0.0000020805  0.000066  0.001589  0.000223  0.000005
 19  -2123.62900569  -0.0000010748  0.000061  0.000556  0.000168  0.000003
 20  -2123.62900603  -0.0000003399  0.000028  0.000521  0.000135  0.000002
 21  -2123.62900617  -0.0000001399  0.000019  0.000168  0.000060  0.000001
 22  -2123.62900626  -0.0000000833  0.000016  0.000397  0.000097  0.000002
 23  -2123.62900632  -0.0000000616  0.000010  0.000148  0.000049  0.000001
 24  -2123.62900633  -0.0000000170  0.000005  0.000076  0.000026  0.000000
 25  -2123.62900634  -0.0000000084  0.000003  0.000025  0.000015  0.000000
                  ***Gradient check signals convergence***
              ***Rediagonalizing the Fockian in SOSCF/NRSCF***

               *****************************************************
               *                     SUCCESS                       *
               *           SCF CONVERGED AFTER  26 CYCLES          *
               *****************************************************


----------------
TOTAL SCF ENERGY
----------------

Total Energy       :        -2123.62900635 Eh          -57786.88309 eV

Components:
Nuclear Repulsion  :         6226.16570516 Eh          169422.58212 eV
Electronic Energy  :        -8349.79471151 Eh         -227209.46521 eV
One Electron Energy:       -15293.39862071 Eh         -416154.53336 eV
Two Electron Energy:         6943.60390920 Eh          188945.06815 eV

Virial components:
Potential Energy   :        -4245.64182247 Eh         -115529.78741 eV
Kinetic Energy     :         2122.01281612 Eh           57742.90432 eV
Virial Ratio       :            2.00076163


---------------
SCF CONVERGENCE
---------------

  Last Energy change         ...   -4.1946e-09  Tolerance :   1.0000e-08
  Last MAX-Density change    ...    8.6160e-06  Tolerance :   1.0000e-07
  Last RMS-Density change    ...    1.2893e-07  Tolerance :   5.0000e-09
  Last Orbital Gradient      ...    1.6624e-06  Tolerance :   1.0000e-05
  Last Orbital Rotation      ...    2.1485e-05  Tolerance :   1.0000e-05

             **** THE GBW FILE WAS UPDATED (/scratch/allen/tmpyp4_amber_gaff2/conf1/conf1/Conf129.orca.gbw) ****
             **** DENSITY /scratch/allen/tmpyp4_amber_gaff2/conf1/conf1/Conf129.orca.scfp WAS UPDATED ****
             **** ENERGY FILE WAS UPDATED (/scratch/allen/tmpyp4_amber_gaff2/conf1/conf1/Conf129.orca.en.tmp) ****
             **** THE GBW FILE WAS UPDATED (/scratch/allen/tmpyp4_amber_gaff2/conf1/conf1/Conf129.orca.gbw) ****
             **** DENSITY /scratch/allen/tmpyp4_amber_gaff2/conf1/conf1/Conf129.orca.scfp WAS UPDATED ****
----------------
ORBITAL ENERGIES
----------------

  NO   OCC          E(Eh)            E(eV) 
   0   2.0000     -15.651754      -425.9059 
   1   2.0000     -15.639436      -425.5707 
   2   2.0000     -15.628523      -425.2737 
   3   2.0000     -15.609905      -424.7671 
   4   2.0000     -15.521434      -422.3597 
   5   2.0000     -15.515609      -422.2012 
   6   2.0000     -15.446842      -420.3299 
   7   2.0000     -15.443786      -420.2468 
   8   2.0000     -11.310547      -307.7756 
   9   2.0000     -11.306561      -307.6672 
  10   2.0000     -11.304013      -307.5978 
  11   2.0000     -11.302643      -307.5605 
  12   2.0000     -11.295999      -307.3797 
  13   2.0000     -11.295795      -307.3742 
  14   2.0000     -11.293104      -307.3010 
  15   2.0000     -11.286587      -307.1237 
  16   2.0000     -11.285320      -307.0892 
  17   2.0000     -11.284750      -307.0737 
  18   2.0000     -11.271724      -306.7192 
  19   2.0000     -11.271353      -306.7091 
  20   2.0000     -11.255556      -306.2792 
  21   2.0000     -11.243468      -305.9503 
  22   2.0000     -11.242865      -305.9339 
  23   2.0000     -11.242574      -305.9260 
  24   2.0000     -11.234840      -305.7155 
  25   2.0000     -11.234237      -305.6991 
  26   2.0000     -11.233028      -305.6662 
  27   2.0000     -11.226742      -305.4952 
  28   2.0000     -11.226569      -305.4905 
  29   2.0000     -11.218532      -305.2718 
  30   2.0000     -11.213158      -305.1255 
  31   2.0000     -11.212607      -305.1106 
  32   2.0000     -11.204524      -304.8906 
  33   2.0000     -11.203694      -304.8680 
  34   2.0000     -11.192131      -304.5534 
  35   2.0000     -11.191694      -304.5415 
  36   2.0000     -11.178295      -304.1769 
  37   2.0000     -11.175939      -304.1128 
  38   2.0000     -11.175675      -304.1056 
  39   2.0000     -11.173424      -304.0443 
  40   2.0000     -11.167183      -303.8745 
  41   2.0000     -11.167179      -303.8744 
  42   2.0000     -11.166531      -303.8568 
  43   2.0000     -11.164877      -303.8117 
  44   2.0000     -11.163549      -303.7756 
  45   2.0000     -11.163012      -303.7610 
  46   2.0000     -11.150670      -303.4252 
  47   2.0000     -11.148352      -303.3621 
  48   2.0000     -11.147810      -303.3473 
  49   2.0000     -11.145315      -303.2795 
  50   2.0000     -11.139218      -303.1135 
  51   2.0000     -11.135298      -303.0069 
  52   2.0000      -1.336464       -36.3670 
  53   2.0000      -1.325869       -36.0787 
  54   2.0000      -1.316524       -35.8245 
  55   2.0000      -1.301377       -35.4123 
  56   2.0000      -1.220902       -33.2224 
  57   2.0000      -1.211543       -32.9678 
  58   2.0000      -1.163967       -31.6731 
  59   2.0000      -1.156298       -31.4645 
  60   2.0000      -1.123362       -30.5682 
  61   2.0000      -1.113872       -30.3100 
  62   2.0000      -1.105856       -30.0919 
  63   2.0000      -1.093837       -29.7648 
  64   2.0000      -1.059806       -28.8388 
  65   2.0000      -1.049735       -28.5647 
  66   2.0000      -1.041177       -28.3319 
  67   2.0000      -1.029415       -28.0118 
  68   2.0000      -1.027928       -27.9713 
  69   2.0000      -1.012091       -27.5404 
  70   2.0000      -1.009305       -27.4646 
  71   2.0000      -0.995134       -27.0790 
  72   2.0000      -0.985301       -26.8114 
  73   2.0000      -0.974357       -26.5136 
  74   2.0000      -0.972355       -26.4591 
  75   2.0000      -0.958786       -26.0899 
  76   2.0000      -0.951702       -25.8971 
  77   2.0000      -0.945494       -25.7282 
  78   2.0000      -0.938539       -25.5389 
  79   2.0000      -0.922766       -25.1097 
  80   2.0000      -0.895153       -24.3583 
  81   2.0000      -0.884854       -24.0781 
  82   2.0000      -0.876483       -23.8503 
  83   2.0000      -0.868841       -23.6424 
  84   2.0000      -0.862282       -23.4639 
  85   2.0000      -0.855422       -23.2772 
  86   2.0000      -0.848581       -23.0911 
  87   2.0000      -0.841264       -22.8920 
  88   2.0000      -0.821767       -22.3614 
  89   2.0000      -0.798734       -21.7347 
  90   2.0000      -0.796756       -21.6808 
  91   2.0000      -0.740767       -20.1573 
  92   2.0000      -0.733541       -19.9607 
  93   2.0000      -0.730398       -19.8751 
  94   2.0000      -0.722133       -19.6502 
  95   2.0000      -0.719475       -19.5779 
  96   2.0000      -0.712655       -19.3923 
  97   2.0000      -0.706208       -19.2169 
  98   2.0000      -0.699940       -19.0463 
  99   2.0000      -0.694684       -18.9033 
 100   2.0000      -0.689004       -18.7487 
 101   2.0000      -0.681301       -18.5391 
 102   2.0000      -0.678888       -18.4735 
 103   2.0000      -0.673415       -18.3245 
 104   2.0000      -0.669885       -18.2285 
 105   2.0000      -0.665996       -18.1227 
 106   2.0000      -0.664524       -18.0826 
 107   2.0000      -0.659531       -17.9467 
 108   2.0000      -0.658042       -17.9062 
 109   2.0000      -0.657195       -17.8832 
 110   2.0000      -0.651522       -17.7288 
 111   2.0000      -0.649078       -17.6623 
 112   2.0000      -0.644935       -17.5496 
 113   2.0000      -0.638455       -17.3732 
 114   2.0000      -0.634663       -17.2701 
 115   2.0000      -0.625659       -17.0250 
 116   2.0000      -0.622736       -16.9455 
 117   2.0000      -0.616484       -16.7754 
 118   2.0000      -0.611962       -16.6523 
 119   2.0000      -0.610433       -16.6107 
 120   2.0000      -0.608389       -16.5551 
 121   2.0000      -0.602937       -16.4068 
 122   2.0000      -0.595656       -16.2086 
 123   2.0000      -0.593397       -16.1472 
 124   2.0000      -0.591363       -16.0918 
 125   2.0000      -0.585109       -15.9216 
 126   2.0000      -0.578274       -15.7356 
 127   2.0000      -0.574639       -15.6367 
 128   2.0000      -0.566935       -15.4271 
 129   2.0000      -0.559232       -15.2175 
 130   2.0000      -0.553864       -15.0714 
 131   2.0000      -0.548069       -14.9137 
 132   2.0000      -0.541928       -14.7466 
 133   2.0000      -0.536769       -14.6062 
 134   2.0000      -0.534055       -14.5324 
 135   2.0000      -0.528957       -14.3937 
 136   2.0000      -0.525562       -14.3013 
 137   2.0000      -0.522534       -14.2189 
 138   2.0000      -0.519624       -14.1397 
 139   2.0000      -0.517338       -14.0775 
 140   2.0000      -0.509555       -13.8657 
 141   2.0000      -0.507042       -13.7973 
 142   2.0000      -0.506350       -13.7785 
 143   2.0000      -0.501091       -13.6354 
 144   2.0000      -0.500121       -13.6090 
 145   2.0000      -0.498286       -13.5591 
 146   2.0000      -0.494299       -13.4506 
 147   2.0000      -0.491267       -13.3681 
 148   2.0000      -0.489128       -13.3098 
 149   2.0000      -0.469343       -12.7715 
 150   2.0000      -0.461678       -12.5629 
 151   2.0000      -0.453207       -12.3324 
 152   2.0000      -0.448370       -12.2008 
 153   2.0000      -0.446270       -12.1436 
 154   2.0000      -0.446214       -12.1421 
 155   2.0000      -0.439203       -11.9513 
 156   2.0000      -0.435235       -11.8433 
 157   2.0000      -0.430710       -11.7202 
 158   2.0000      -0.394658       -10.7392 
 159   2.0000      -0.383650       -10.4397 
 160   2.0000      -0.379415       -10.3244 
 161   2.0000      -0.371554       -10.1105 
 162   2.0000      -0.368674       -10.0321 
 163   2.0000      -0.360093        -9.7986 
 164   2.0000      -0.352956        -9.6044 
 165   2.0000      -0.341045        -9.2803 
 166   2.0000      -0.337227        -9.1764 
 167   2.0000      -0.334292        -9.0965 
 168   2.0000      -0.329129        -8.9561 
 169   2.0000      -0.300125        -8.1668 
 170   2.0000      -0.298891        -8.1332 
 171   2.0000      -0.287956        -7.8357 
 172   2.0000      -0.286382        -7.7928 
 173   2.0000      -0.256608        -6.9827 
 174   2.0000      -0.247343        -6.7305 
 175   2.0000      -0.188701        -5.1348 
 176   2.0000      -0.178702        -4.8627 
 177   2.0000      -0.068674        -1.8687 
 178   2.0000      -0.055793        -1.5182 
 179   0.0000       0.030058         0.8179 
 180   0.0000       0.069692         1.8964 
 181   0.0000       0.092859         2.5268 
 182   0.0000       0.100384         2.7316 
 183   0.0000       0.125280         3.4090 
 184   0.0000       0.133768         3.6400 
 185   0.0000       0.141788         3.8583 
 186   0.0000       0.154760         4.2112 
 187   0.0000       0.155610         4.2344 
 188   0.0000       0.161925         4.4062 
 189   0.0000       0.162520         4.4224 
 190   0.0000       0.167820         4.5666 
 191   0.0000       0.176688         4.8079 
 192   0.0000       0.195298         5.3143 
 193   0.0000       0.198697         5.4068 
 194   0.0000       0.201938         5.4950 
 195   0.0000       0.205560         5.5936 
 196   0.0000       0.207939         5.6583 
 197   0.0000       0.210975         5.7409 
 198   0.0000       0.216477         5.8906 
 199   0.0000       0.221023         6.0143 
 200   0.0000       0.230225         6.2647 
 201   0.0000       0.237022         6.4497 
 202   0.0000       0.241915         6.5829 
 203   0.0000       0.247889         6.7454 
 204   0.0000       0.250470         6.8156 
 205   0.0000       0.253915         6.9094 
 206   0.0000       0.255663         6.9569 
 207   0.0000       0.259784         7.0691 
 208   0.0000       0.263150         7.1607 
 209   0.0000       0.264630         7.2009 
 210   0.0000       0.267330         7.2744 
 211   0.0000       0.269094         7.3224 
 212   0.0000       0.271312         7.3828 
 213   0.0000       0.274820         7.4782 
 214   0.0000       0.277709         7.5568 
 215   0.0000       0.279296         7.6000 
 216   0.0000       0.281527         7.6607 
 217   0.0000       0.282023         7.6742 
 218   0.0000       0.285345         7.7646 
 219   0.0000       0.288228         7.8431 
 220   0.0000       0.290152         7.8954 
 221   0.0000       0.291961         7.9447 
 222   0.0000       0.293536         7.9875 
 223   0.0000       0.295760         8.0480 
 224   0.0000       0.298832         8.1316 
 225   0.0000       0.300825         8.1859 
 226   0.0000       0.305255         8.3064 
 227   0.0000       0.307268         8.3612 
 228   0.0000       0.308524         8.3954 
 229   0.0000       0.311951         8.4886 
 230   0.0000       0.314895         8.5687 
 231   0.0000       0.320013         8.7080 
 232   0.0000       0.325032         8.8446 
 233   0.0000       0.329259         8.9596 
 234   0.0000       0.332445         9.0463 
 235   0.0000       0.339138         9.2284 
 236   0.0000       0.355453         9.6724 
 237   0.0000       0.385004        10.4765 
 238   0.0000       0.395088        10.7509 
 239   0.0000       0.399591        10.8734 
 240   0.0000       0.405084        11.0229 
 241   0.0000       0.413539        11.2530 
 242   0.0000       0.419815        11.4238 
 243   0.0000       0.424042        11.5388 
 244   0.0000       0.429071        11.6756 
 245   0.0000       0.431079        11.7303 
 246   0.0000       0.433892        11.8068 
 247   0.0000       0.438055        11.9201 
 248   0.0000       0.441193        12.0055 
 249   0.0000       0.444076        12.0839 
 250   0.0000       0.448496        12.2042 
 251   0.0000       0.456113        12.4115 
 252   0.0000       0.456780        12.4296 
 253   0.0000       0.463975        12.6254 
 254   0.0000       0.470112        12.7924 
 255   0.0000       0.474893        12.9225 
 256   0.0000       0.482930        13.1412 
 257   0.0000       0.485480        13.2106 
 258   0.0000       0.493451        13.4275 
 259   0.0000       0.495505        13.4834 
 260   0.0000       0.500678        13.6241 
 261   0.0000       0.502678        13.6786 
 262   0.0000       0.507156        13.8004 
 263   0.0000       0.510156        13.8821 
 264   0.0000       0.510881        13.9018 
 265   0.0000       0.515096        14.0165 
 266   0.0000       0.518657        14.1134 
 267   0.0000       0.522930        14.2296 
 268   0.0000       0.535828        14.5806 
 269   0.0000       0.537811        14.6346 
 270   0.0000       0.541906        14.7460 
 271   0.0000       0.545019        14.8307 
 272   0.0000       0.545776        14.8513 
 273   0.0000       0.553788        15.0693 
 274   0.0000       0.559578        15.2269 
 275   0.0000       0.563817        15.3423 
 276   0.0000       0.573993        15.6192 
 277   0.0000       0.577648        15.7186 
 278   0.0000       0.579813        15.7775 
 279   0.0000       0.584470        15.9042 
 280   0.0000       0.586190        15.9510 
 281   0.0000       0.590707        16.0739 
 282   0.0000       0.593606        16.1528 
 283   0.0000       0.597100        16.2479 
 284   0.0000       0.599483        16.3128 
 285   0.0000       0.600438        16.3387 
 286   0.0000       0.608124        16.5479 
 287   0.0000       0.609650        16.5894 
 288   0.0000       0.612377        16.6636 
 289   0.0000       0.616007        16.7624 
 290   0.0000       0.621747        16.9186 
 291   0.0000       0.627650        17.0792 
 292   0.0000       0.637275        17.3411 
 293   0.0000       0.637684        17.3523 
 294   0.0000       0.645121        17.5546 
 295   0.0000       0.650428        17.6990 
 296   0.0000       0.656064        17.8524 
 297   0.0000       0.658924        17.9302 
 298   0.0000       0.662196        18.0193 
 299   0.0000       0.665531        18.1100 
 300   0.0000       0.669818        18.2267 
 301   0.0000       0.672442        18.2981 
 302   0.0000       0.679166        18.4811 
 303   0.0000       0.681960        18.5571 
 304   0.0000       0.683608        18.6019 
 305   0.0000       0.688228        18.7276 
 306   0.0000       0.690100        18.7786 
 307   0.0000       0.690547        18.7907 
 308   0.0000       0.697094        18.9689 
 309   0.0000       0.698859        19.0169 
 310   0.0000       0.702856        19.1257 
 311   0.0000       0.705134        19.1877 
 312   0.0000       0.705971        19.2104 
 313   0.0000       0.709373        19.3030 
 314   0.0000       0.712101        19.3773 
 315   0.0000       0.713890        19.4259 
 316   0.0000       0.715551        19.4711 
 317   0.0000       0.717975        19.5371 
 318   0.0000       0.719738        19.5851 
 319   0.0000       0.723780        19.6951 
 320   0.0000       0.727289        19.7905 
 321   0.0000       0.730831        19.8869 
 322   0.0000       0.732581        19.9345 
 323   0.0000       0.735327        20.0093 
 324   0.0000       0.737466        20.0675 
 325   0.0000       0.741617        20.1804 
 326   0.0000       0.743227        20.2242 
 327   0.0000       0.745132        20.2761 
 328   0.0000       0.746275        20.3072 
 329   0.0000       0.749952        20.4072 
 330   0.0000       0.752752        20.4834 
 331   0.0000       0.753896        20.5146 
 332   0.0000       0.757088        20.6014 
 333   0.0000       0.763336        20.7714 
 334   0.0000       0.768503        20.9120 
 335   0.0000       0.774073        21.0636 
 336   0.0000       0.775584        21.1047 
 337   0.0000       0.780752        21.2453 
 338   0.0000       0.783132        21.3101 
 339   0.0000       0.787769        21.4363 
 340   0.0000       0.791226        21.5304 
 341   0.0000       0.792395        21.5622 
 342   0.0000       0.794967        21.6322 
 343   0.0000       0.800378        21.7794 
 344   0.0000       0.804475        21.8909 
 345   0.0000       0.806977        21.9590 
 346   0.0000       0.808008        21.9870 
 347   0.0000       0.810601        22.0576 
 348   0.0000       0.815288        22.1851 
 349   0.0000       0.816432        22.2162 
 350   0.0000       0.820713        22.3327 
 351   0.0000       0.824835        22.4449 
 352   0.0000       0.827151        22.5079 
 353   0.0000       0.827344        22.5132 
 354   0.0000       0.830535        22.6000 
 355   0.0000       0.830992        22.6124 
 356   0.0000       0.834355        22.7040 
 357   0.0000       0.834769        22.7152 
 358   0.0000       0.836422        22.7602 
 359   0.0000       0.839544        22.8452 
 360   0.0000       0.840050        22.8589 
 361   0.0000       0.841540        22.8995 
 362   0.0000       0.843573        22.9548 
 363   0.0000       0.844418        22.9778 
 364   0.0000       0.847262        23.0552 
 365   0.0000       0.850519        23.1438 
 366   0.0000       0.851275        23.1644 
 367   0.0000       0.854533        23.2530 
 368   0.0000       0.860001        23.4018 
 369   0.0000       0.862446        23.4683 
 370   0.0000       0.864685        23.5293 
 371   0.0000       0.869580        23.6625 
 372   0.0000       0.872895        23.7527 
 373   0.0000       0.875945        23.8357 
 374   0.0000       0.878931        23.9169 
 375   0.0000       0.883179        24.0325 
 376   0.0000       0.885464        24.0947 
 377   0.0000       0.890169        24.2227 
 378   0.0000       0.893014        24.3002 
 379   0.0000       0.893994        24.3268 
 380   0.0000       0.897602        24.4250 
 381   0.0000       0.899664        24.4811 
 382   0.0000       0.902075        24.5467 
 383   0.0000       0.903925        24.5971 
 384   0.0000       0.904771        24.6201 
 385   0.0000       0.905925        24.6515 
 386   0.0000       0.909430        24.7469 
 387   0.0000       0.911123        24.7929 
 388   0.0000       0.911230        24.7958 
 389   0.0000       0.913303        24.8522 
 390   0.0000       0.919100        25.0100 
 391   0.0000       0.920736        25.0545 
 392   0.0000       0.923074        25.1181 
 393   0.0000       0.924598        25.1596 
 394   0.0000       0.926590        25.2138 
 395   0.0000       0.930671        25.3248 
 396   0.0000       0.934157        25.4197 
 397   0.0000       0.936191        25.4750 
 398   0.0000       0.936923        25.4950 
 399   0.0000       0.942103        25.6359 
 400   0.0000       0.943022        25.6609 
 401   0.0000       0.946571        25.7575 
 402   0.0000       0.949867        25.8472 
 403   0.0000       0.953231        25.9387 
 404   0.0000       0.954764        25.9804 
 405   0.0000       0.958670        26.0867 
 406   0.0000       0.960732        26.1428 
 407   0.0000       0.963216        26.2104 
 408   0.0000       0.965137        26.2627 
 409   0.0000       0.971898        26.4467 
 410   0.0000       0.976088        26.5607 
 411   0.0000       0.976938        26.5838 
 412   0.0000       0.981244        26.7010 
 413   0.0000       0.985048        26.8045 
 414   0.0000       0.988322        26.8936 
 415   0.0000       0.990502        26.9529 
 416   0.0000       0.999960        27.2103 
 417   0.0000       1.001261        27.2457 
 418   0.0000       1.006432        27.3864 
 419   0.0000       1.014957        27.6184 
 420   0.0000       1.022665        27.8281 
 421   0.0000       1.026329        27.9278 
 422   0.0000       1.032083        28.0844 
 423   0.0000       1.040096        28.3025 
 424   0.0000       1.045800        28.4577 
 425   0.0000       1.048998        28.5447 
 426   0.0000       1.055574        28.7236 
 427   0.0000       1.062197        28.9039 
 428   0.0000       1.064555        28.9680 
 429   0.0000       1.070879        29.1401 
 430   0.0000       1.076722        29.2991 
 431   0.0000       1.081119        29.4187 
 432   0.0000       1.085081        29.5265 
 433   0.0000       1.089493        29.6466 
 434   0.0000       1.098975        29.9046 
 435   0.0000       1.102606        30.0034 
 436   0.0000       1.107619        30.1398 
 437   0.0000       1.109069        30.1793 
 438   0.0000       1.115750        30.3611 
 439   0.0000       1.117118        30.3983 
 440   0.0000       1.121121        30.5072 
 441   0.0000       1.124534        30.6001 
 442   0.0000       1.129106        30.7245 
 443   0.0000       1.130555        30.7640 
 444   0.0000       1.133453        30.8428 
 445   0.0000       1.133853        30.8537 
 446   0.0000       1.135226        30.8911 
 447   0.0000       1.141185        31.0532 
 448   0.0000       1.144701        31.1489 
 449   0.0000       1.146318        31.1929 
 450   0.0000       1.151475        31.3332 
 451   0.0000       1.153680        31.3932 
 452   0.0000       1.155356        31.4388 
 453   0.0000       1.156146        31.4603 
 454   0.0000       1.159484        31.5512 
 455   0.0000       1.168317        31.7915 
 456   0.0000       1.173548        31.9339 
 457   0.0000       1.177294        32.0358 
 458   0.0000       1.181216        32.1425 
 459   0.0000       1.185711        32.2648 
 460   0.0000       1.188205        32.3327 
 461   0.0000       1.190893        32.4058 
 462   0.0000       1.200694        32.6725 
 463   0.0000       1.203188        32.7404 
 464   0.0000       1.206829        32.8395 
 465   0.0000       1.208723        32.8910 
 466   0.0000       1.214281        33.0423 
 467   0.0000       1.215364        33.0717 
 468   0.0000       1.221554        33.2402 
 469   0.0000       1.229102        33.4456 
 470   0.0000       1.231379        33.5075 
 471   0.0000       1.233673        33.5700 
 472   0.0000       1.235240        33.6126 
 473   0.0000       1.238324        33.6965 
 474   0.0000       1.242090        33.7990 
 475   0.0000       1.247501        33.9462 
 476   0.0000       1.251369        34.0515 
 477   0.0000       1.253277        34.1034 
 478   0.0000       1.253783        34.1172 
 479   0.0000       1.255973        34.1768 
 480   0.0000       1.260742        34.3065 
 481   0.0000       1.264901        34.4197 
 482   0.0000       1.268694        34.5229 
 483   0.0000       1.270725        34.5782 
 484   0.0000       1.274811        34.6894 
 485   0.0000       1.276267        34.7290 
 486   0.0000       1.280957        34.8566 
 487   0.0000       1.284101        34.9422 
 488   0.0000       1.289093        35.0780 
 489   0.0000       1.291295        35.1379 
 490   0.0000       1.293620        35.2012 
 491   0.0000       1.300428        35.3864 
 492   0.0000       1.302046        35.4305 
 493   0.0000       1.310671        35.6652 
 494   0.0000       1.311596        35.6903 
 495   0.0000       1.314731        35.7757 
 496   0.0000       1.316293        35.8182 
 497   0.0000       1.321910        35.9710 
 498   0.0000       1.325136        36.0588 
 499   0.0000       1.329869        36.1876 
 500   0.0000       1.333880        36.2967 
 501   0.0000       1.337112        36.3847 
 502   0.0000       1.341823        36.5129 
 503   0.0000       1.346736        36.6466 
 504   0.0000       1.350666        36.7535 
 505   0.0000       1.352162        36.7942 
 506   0.0000       1.353958        36.8431 
 507   0.0000       1.357040        36.9269 
 508   0.0000       1.360586        37.0234 
 509   0.0000       1.361761        37.0554 
 510   0.0000       1.364437        37.1282 
 511   0.0000       1.367266        37.2052 
 512   0.0000       1.370376        37.2898 
[...]
      pz      :     0.022014  p :     0.079636
      px      :     0.043400
      py      :     0.014222
 77 H s       :     0.887721  s :     0.887721
      pz      :     0.047736  p :     0.079011
      px      :     0.015015
      py      :     0.016260
 78 H s       :     0.888142  s :     0.888142
      pz      :     0.025756  p :     0.078952
      px      :     0.020525
      py      :     0.032671
 79 H s       :     0.909374  s :     0.909374
      pz      :     0.022009  p :     0.086602
      px      :     0.021736
      py      :     0.042857
 80 H s       :     0.868934  s :     0.868934
      pz      :     0.039026  p :     0.084335
      px      :     0.030039
      py      :     0.015270
 81 H s       :     0.887184  s :     0.887184
      pz      :     0.037772  p :     0.083956
      px      :     0.016163
      py      :     0.030021
 82 H s       :     0.915599  s :     0.915599
      pz      :     0.022085  p :     0.086811
      px      :     0.031439
      py      :     0.033287
 83 H s       :     0.873149  s :     0.873149
      pz      :     0.039237  p :     0.084004
      px      :     0.015266
      py      :     0.029500
 84 H s       :     0.887194  s :     0.887194
      pz      :     0.035768  p :     0.083627
      px      :     0.031707
      py      :     0.016151
 85 H s       :     0.893610  s :     0.893610
      pz      :     0.022491  p :     0.079742
      px      :     0.014089
      py      :     0.043162
 86 H s       :     0.890962  s :     0.890962
      pz      :     0.024722  p :     0.078840
      px      :     0.032982
      py      :     0.021136
 87 H s       :     0.890143  s :     0.890143
      pz      :     0.047977  p :     0.078709
      px      :     0.015600
      py      :     0.015131
 88 H s       :     0.912858  s :     0.912858
      pz      :     0.021952  p :     0.086988
      px      :     0.042637
      py      :     0.022399
 89 H s       :     0.871850  s :     0.871850
      pz      :     0.037928  p :     0.083876
      px      :     0.030487
      py      :     0.015461


                      *****************************
                      * MAYER POPULATION ANALYSIS *
                      *****************************

  NA   - Mulliken gross atomic population
  ZA   - Total nuclear charge
  QA   - Mulliken gross atomic charge
  VA   - Mayer's total valence
  BVA  - Mayer's bonded valence
  FA   - Mayer's free valence

  ATOM       NA         ZA         QA         VA         BVA        FA
  0 C      5.7958     6.0000     0.2042     3.8341     3.8341    -0.0000
  1 N      7.4488     7.0000    -0.4488     3.3467     3.3467    -0.0000
  2 C      6.0643     6.0000    -0.0643     3.9194     3.9194     0.0000
  3 N      7.3366     7.0000    -0.3366     3.4514     3.4514     0.0000
  4 C      6.0651     6.0000    -0.0651     3.9846     3.9846     0.0000
  5 N      7.5612     7.0000    -0.5612     3.0899     3.0899    -0.0000
  6 C      6.0831     6.0000    -0.0831     4.0036     4.0036     0.0000
  7 N      7.3390     7.0000    -0.3390     3.4381     3.4381    -0.0000
  8 C      5.7967     6.0000     0.2033     3.8348     3.8348    -0.0000
  9 N      7.5628     7.0000    -0.5628     3.0820     3.0820     0.0000
 10 C      5.8830     6.0000     0.1170     3.9013     3.9013     0.0000
 11 N      7.4373     7.0000    -0.4373     3.3846     3.3846    -0.0000
 12 C      6.0742     6.0000    -0.0742     3.9178     3.9178     0.0000
 13 N      7.4360     7.0000    -0.4360     3.3975     3.3975    -0.0000
 14 C      5.7650     6.0000     0.2350     3.7857     3.7857     0.0000
 15 N      7.4411     7.0000    -0.4411     3.3706     3.3706    -0.0000
 16 C      5.7681     6.0000     0.2319     3.7854     3.7854     0.0000
 17 C      6.0817     6.0000    -0.0817     4.0035     4.0035     0.0000
 18 C      6.1922     6.0000    -0.1922     3.7632     3.7632     0.0000
 19 C      5.7771     6.0000     0.2229     3.8710     3.8710     0.0000
 20 C      5.7887     6.0000     0.2113     3.8263     3.8263     0.0000
 21 C      6.0818     6.0000    -0.0818     3.9088     3.9088     0.0000
 22 C      6.0868     6.0000    -0.0868     3.9827     3.9827    -0.0000
 23 C      6.0453     6.0000    -0.0453     3.9909     3.9909     0.0000
 24 C      5.7977     6.0000     0.2023     3.8224     3.8224     0.0000
 25 C      5.8862     6.0000     0.1138     3.8895     3.8895     0.0000
 26 C      6.0736     6.0000    -0.0736     3.9043     3.9043     0.0000
 27 C      5.7824     6.0000     0.2176     3.8754     3.8754     0.0000
 28 C      6.0555     6.0000    -0.0555     3.9881     3.9881    -0.0000
 29 C      6.1827     6.0000    -0.1827     3.7388     3.7388    -0.0000
 30 C      5.7606     6.0000     0.2394     3.7948     3.7948     0.0000
 31 C      5.7812     6.0000     0.2188     3.8239     3.8239     0.0000
 32 C      6.0635     6.0000    -0.0635     3.9201     3.9201    -0.0000
 33 C      6.0737     6.0000    -0.0737     3.9805     3.9805    -0.0000
 34 C      6.0496     6.0000    -0.0496     3.9891     3.9891    -0.0000
 35 C      5.7876     6.0000     0.2124     3.8220     3.8220    -0.0000
 36 C      5.8881     6.0000     0.1119     3.8853     3.8853     0.0000
 37 C      6.0657     6.0000    -0.0657     3.9176     3.9176    -0.0000
 38 C      5.7644     6.0000     0.2356     3.8006     3.8006    -0.0000
 39 C      6.0607     6.0000    -0.0607     3.9881     3.9881    -0.0000
 40 C      6.1856     6.0000    -0.1856     3.7358     3.7358    -0.0000
 41 C      5.7783     6.0000     0.2217     3.8828     3.8828     0.0000
 42 C      5.7996     6.0000     0.2004     3.8270     3.8270     0.0000
 43 C      6.0734     6.0000    -0.0734     3.9018     3.9018    -0.0000
 44 C      6.0900     6.0000    -0.0900     3.9855     3.9855     0.0000
 45 C      6.0563     6.0000    -0.0563     3.9924     3.9924     0.0000
 46 C      5.7941     6.0000     0.2059     3.8270     3.8270     0.0000
 47 C      5.8843     6.0000     0.1157     3.8939     3.8939     0.0000
 48 C      6.0722     6.0000    -0.0722     3.9060     3.9060     0.0000
 49 C      5.7695     6.0000     0.2305     3.8883     3.8883    -0.0000
 50 C      6.0503     6.0000    -0.0503     3.9905     3.9905     0.0000
 51 C      6.1913     6.0000    -0.1913     3.7370     3.7370     0.0000
 52 H      0.9522     1.0000     0.0478     0.9856     0.9856    -0.0000
 53 H      1.0151     1.0000    -0.0151     0.9987     0.9987     0.0000
 54 H      0.9537     1.0000     0.0463     1.0084     1.0084     0.0000
 55 H      0.9536     1.0000     0.0464     0.9862     0.9862    -0.0000
 56 H      0.9454     1.0000     0.0546     0.9707     0.9707    -0.0000
 57 H      0.9475     1.0000     0.0525     0.9827     0.9827    -0.0000
 58 H      0.9481     1.0000     0.0519     0.9858     0.9858    -0.0000
 59 H      1.0069     1.0000    -0.0069     1.0011     1.0011    -0.0000
 60 H      0.9555     1.0000     0.0445     1.0113     1.0113     0.0000
 61 H      0.8281     1.0000     0.1719     1.0422     1.0422     0.0000
 62 H      0.8260     1.0000     0.1740     1.0435     1.0435    -0.0000
 63 H      0.9429     1.0000     0.0571     0.9853     0.9853     0.0000
 64 H      1.0144     1.0000    -0.0144     0.9963     0.9963     0.0000
 65 H      0.9531     1.0000     0.0469     1.0095     1.0095    -0.0000
 66 H      0.9424     1.0000     0.0576     0.9851     0.9851     0.0000
 67 H      0.9365     1.0000     0.0635     0.9720     0.9720     0.0000
 68 H      0.9418     1.0000     0.0582     0.9868     0.9868     0.0000
 69 H      0.9415     1.0000     0.0585     0.9830     0.9830    -0.0000
 70 H      1.0261     1.0000    -0.0261     0.9933     0.9933     0.0000
 71 H      0.9523     1.0000     0.0477     1.0063     1.0063    -0.0000
 72 H      0.9380     1.0000     0.0620     0.9845     0.9845    -0.0000
 73 H      1.0118     1.0000    -0.0118     0.9994     0.9994    -0.0000
 74 H      0.9481     1.0000     0.0519     1.0101     1.0101    -0.0000
 75 H      0.9389     1.0000     0.0611     0.9850     0.9850    -0.0000
 76 H      0.9332     1.0000     0.0668     0.9718     0.9718     0.0000
 77 H      0.9382     1.0000     0.0618     0.9853     0.9853     0.0000
 78 H      0.9390     1.0000     0.0610     0.9850     0.9850     0.0000
 79 H      1.0145     1.0000    -0.0145     0.9989     0.9989     0.0000
 80 H      0.9477     1.0000     0.0523     1.0071     1.0071     0.0000
 81 H      0.9464     1.0000     0.0536     0.9856     0.9856     0.0000
 82 H      1.0245     1.0000    -0.0245     0.9938     0.9938    -0.0000
 83 H      0.9580     1.0000     0.0420     1.0089     1.0089     0.0000
 84 H      0.9470     1.0000     0.0530     0.9855     0.9855     0.0000
 85 H      0.9407     1.0000     0.0593     0.9716     0.9716    -0.0000
 86 H      0.9443     1.0000     0.0557     0.9839     0.9839    -0.0000
 87 H      0.9433     1.0000     0.0567     0.9856     0.9856    -0.0000
 88 H      1.0192     1.0000    -0.0192     0.9953     0.9953    -0.0000
 89 H      0.9544     1.0000     0.0456     1.0069     1.0069    -0.0000

  Mayer bond orders larger than 0.100000
B(  0-C ,  1-N ) :   1.1008 B(  0-C , 17-C ) :   1.6689 B(  0-C , 52-H ) :   0.9690 
B(  1-N ,  8-C ) :   1.0991 B(  1-N , 10-C ) :   0.9697 B(  2-C , 12-C ) :   1.5270 
B(  2-C , 16-C ) :   1.3347 B(  2-C , 53-H ) :   0.9773 B(  3-N , 14-C ) :   1.2101 
B(  3-N , 16-C ) :   1.1938 B(  3-N , 61-H ) :   0.8990 B(  4-C ,  6-C ) :   1.2369 
B(  4-C , 17-C ) :   1.2384 B(  4-C , 18-C ) :   1.3409 B(  5-N , 19-C ) :   1.4346 
B(  5-N , 27-C ) :   1.3939 B(  6-C ,  8-C ) :   1.6695 B(  6-C , 54-H ) :   0.9695 
B(  7-N , 30-C ) :   1.1931 B(  7-N , 38-C ) :   1.1980 B(  7-N , 62-H ) :   0.8976 
B(  8-C , 55-H ) :   0.9700 B(  9-N , 41-C ) :   1.4007 B(  9-N , 49-C ) :   1.4221 
B( 10-C , 56-H ) :   0.9764 B( 10-C , 57-H ) :   0.9828 B( 10-C , 58-H ) :   0.9833 
B( 11-N , 20-C ) :   1.1291 B( 11-N , 24-C ) :   1.1189 B( 11-N , 25-C ) :   0.9579 
B( 12-C , 14-C ) :   1.3374 B( 12-C , 59-H ) :   0.9759 B( 13-N , 31-C ) :   1.1385 
B( 13-N , 35-C ) :   1.1315 B( 13-N , 36-C ) :   0.9529 B( 14-C , 18-C ) :   1.1706 
B( 15-N , 42-C ) :   1.1115 B( 15-N , 46-C ) :   1.1173 B( 15-N , 47-C ) :   0.9624 
B( 16-C , 51-C ) :   1.1895 B( 17-C , 60-H ) :   0.9693 B( 18-C , 19-C ) :   1.1809 
B( 19-C , 21-C ) :   1.2253 B( 20-C , 28-C ) :   1.6229 B( 20-C , 63-H ) :   0.9702 
B( 21-C , 26-C ) :   1.6323 B( 21-C , 64-H ) :   0.9723 B( 22-C , 23-C ) :   1.2880 
B( 22-C , 28-C ) :   1.2727 B( 22-C , 29-C ) :   1.2227 B( 23-C , 24-C ) :   1.6163 
B( 23-C , 65-H ) :   0.9707 B( 24-C , 66-H ) :   0.9692 B( 25-C , 67-H ) :   0.9761 
B( 25-C , 68-H ) :   0.9828 B( 25-C , 69-H ) :   0.9822 B( 26-C , 27-C ) :   1.2203 
B( 26-C , 70-H ) :   0.9724 B( 27-C , 29-C ) :   1.2237 B( 28-C , 71-H ) :   0.9716 
B( 29-C , 30-C ) :   1.2254 B( 30-C , 32-C ) :   1.2984 B( 31-C , 39-C ) :   1.6148 
B( 31-C , 72-H ) :   0.9691 B( 32-C , 37-C ) :   1.5603 B( 32-C , 73-H ) :   0.9780 
B( 33-C , 34-C ) :   1.2880 B( 33-C , 39-C ) :   1.2807 B( 33-C , 40-C ) :   1.2203 
B( 34-C , 35-C ) :   1.6115 B( 34-C , 74-H ) :   0.9701 B( 35-C , 75-H ) :   0.9691 
B( 36-C , 76-H ) :   0.9764 B( 36-C , 77-H ) :   0.9819 B( 36-C , 78-H ) :   0.9828 
B( 37-C , 38-C ) :   1.3009 B( 37-C , 79-H ) :   0.9774 B( 38-C , 40-C ) :   1.2190 
B( 39-C , 80-H ) :   0.9712 B( 40-C , 41-C ) :   1.2301 B( 41-C , 43-C ) :   1.2049 
B( 42-C , 50-C ) :   1.6346 B( 42-C , 81-H ) :   0.9696 B( 43-C , 48-C ) :   1.6465 
B( 43-C , 82-H ) :   0.9730 B( 44-C , 45-C ) :   1.2666 B( 44-C , 50-C ) :   1.2681 
B( 44-C , 51-C ) :   1.2603 B( 45-C , 46-C ) :   1.6347 B( 45-C , 83-H ) :   0.9714 
B( 46-C , 84-H ) :   0.9702 B( 47-C , 85-H ) :   0.9761 B( 47-C , 86-H ) :   0.9829 
B( 47-C , 87-H ) :   0.9825 B( 48-C , 49-C ) :   1.2064 B( 48-C , 88-H ) :   0.9743 
B( 49-C , 51-C ) :   1.2242 B( 50-C , 89-H ) :   0.9712 

-------
TIMINGS
-------

Total SCF time: 0 days 0 hours 28 min 39 sec 

Total time                  ....    1719.527 sec
Sum of individual times     ....    1715.091 sec  ( 99.7%)

Fock matrix formation       ....    1692.943 sec  ( 98.5%)
Diagonalization             ....       6.853 sec  (  0.4%)
Density matrix formation    ....       0.646 sec  (  0.0%)
Population analysis         ....       0.519 sec  (  0.0%)
Initial guess               ....       2.057 sec  (  0.1%)
Orbital Transformation      ....       0.000 sec  (  0.0%)
Orbital Orthonormalization  ....       0.000 sec  (  0.0%)
DIIS solution               ....       3.503 sec  (  0.2%)
SOSCF solution              ....       7.521 sec  (  0.4%)

Maximum memory used throughout the entire SCF-calculation: 302.6 MB


           ************************************************************
           *        Program running with 16 parallel MPI-processes    *
           *              working on a common directory               *
           ************************************************************

------------------------------------------------------------------------------
                                ORCA  MP2 
------------------------------------------------------------------------------

Freezing NCore=104 chemical core electrons

----------
MP2 ENERGY (disk based algorithm)
----------

Dimension of the basis                    ...  918
Memory devoted to MP2                     ... 2000 MB   
Data format for buffers                   ... DOUBLE
Compression type for matrix containers    ... UNCOMPRESSED

-------------------------------
PARTIAL EXCHANGE TRANSFORMATION
-------------------------------

Transformation type                        ... one-operator
Generation of integrals (i,mue|j,nue)      ... ON
Generation of integrals (mue,kappa|nue,tau)... OFF
Generation of integrals (i,mue|a,nue)      ... OFF
Dimension of the basis                     ...  918
Number of internal MOs                     ...  127 (  52- 178)
Pair cutoff                                ... 2.500e-12 Eh
Number of AO pairs in the trafo            ... 421821
Total Number of distinct AO pairs          ... 421821
Memory devoted for trafo                   ... 2000.0 MB 
Max. Number of MO pairs treated together   ...  311      
Number Format for Storage                  ... Double (8 Byte)
Integral package used                      ... LIBINT

Starting integral evaluation:
    ... done with AO integral generation
Closing buffer AOK     (38.20 GB; CompressionRatio= 1.33)
Collecting buffer AOK 
Number of MO pairs included in the trafo   ... 8128
------------------------
SORTING OF (i,mue|j,nue)
------------------------

IBATCH = 1 of  2
IBATCH = 2 of  2
Closing buffer KAO     (51.03 GB; CompressionRatio= 1.00)
Collecting buffer KAO 
N(AO-Batches) Done                         ...  85544093 
N(AO-Batches) Skipped                      ...  82275484 
N(IJ)-pairs Skipped                        ...         0 
TOTAL TIME for half transformation         ...  3035.435 sec
AO-integral generation                     ...   210.903 sec
Half transformation                        ...   371.996 sec
K-integral sorting                         ...  2268.912 sec
Process 13:   Internal MO 156
Process  7:   Internal MO 108
Process 10:   Internal MO 132

Finished integral transformation - now doing MP2 part

OPERATOR COMBINATION   0   0: ij=( 52..178, 52..178)
Process  4:   Internal MO  84
Process  1:   Internal MO  60
Process  0:   Internal MO  54
Process  0:   Internal MO  57
Process  2:   Internal MO  69
Process  1:   Internal MO  63
Process  5:   Internal MO  93
Process  3:   Internal MO  78
Process  8:   Internal MO 117
Process  1:   Internal MO  66
Process  2:   Internal MO  72
Process 11:   Internal MO 141
Process  6:   Internal MO 102
Process  4:   Internal MO  87
Process 14:   Internal MO 165
Process  3:   Internal MO  81
Process  2:   Internal MO  75
Process  9:   Internal MO 126
Process  7:   Internal MO 111
Process  5:   Internal MO  96
Process 12:   Internal MO 150
Process  4:   Internal MO  90
Process 10:   Internal MO 135
Process 15:   Internal MO 174
Process  6:   Internal MO 105
Process  8:   Internal MO 120
Process 13:   Internal MO 159
Process  5:   Internal MO  99
Process  7:   Internal MO 114
Process 11:   Internal MO 144
Process  9:   Internal MO 129
Process  8:   Internal MO 123
Process 14:   Internal MO 168
Process 12:   Internal MO 153
Process 10:   Internal MO 138
Process 13:   Internal MO 162
Process 15:   Internal MO 177
Process 11:   Internal MO 147
Process 14:   Internal MO 171
-----------------------------------------------
 MP2 CORRELATION ENERGY   :     -7.286993305 Eh
-----------------------------------------------


-------
TIMINGS
-------
Total time                : 3572.288 sec
Integral trafo            : 3037.421 sec ( 85.0%)
K(i,j)                    :    6.736 sec (  0.2%)
T(i,j)                    :    0.116 sec (  0.0%)

---------------------------------------
MP2 TOTAL ENERGY:    -2130.915999653 Eh
---------------------------------------

Maximum memory used throughout the entire MP2-calculation: 2275.2 MB

-------------------------   --------------------
FINAL SINGLE POINT ENERGY     -2130.915999652532
-------------------------   --------------------


                            ***************************************
                            *     ORCA property calculations      *
                            ***************************************


  WARNING: The energy has been calculated at the MP2 level but the densities
           used in the property calculations are still SCF densities
           MP2 response densities have not been calculated 
           use %mp2 Density relaxed end
           or  %mp2 Density unrelaxed end

                                    ---------------------
                                    Active property flags
                                    ---------------------
   (+) Dipole Moment


------------------------------------------------------------------------------
                       ORCA ELECTRIC PROPERTIES CALCULATION
------------------------------------------------------------------------------

Dipole Moment Calculation                       ... on
Quadrupole Moment Calculation                   ... off
Polarizability Calculation                      ... off
GBWName                                         ... /scratch/allen/tmpyp4_amber_gaff2/conf1/conf1/Conf129.orca.gbw
Electron density                                ... /scratch/allen/tmpyp4_amber_gaff2/conf1/conf1/Conf129.orca.scfp
The origin for moment calculation is the CENTER OF MASS  = ( 0.003007, -0.002069  0.002895)

-------------
DIPOLE MOMENT
-------------
                                X             Y             Z
Electronic contribution:      0.76041      -2.25427      -0.21426
Nuclear contribution   :      0.00997       0.19283       0.22775
                        -----------------------------------------
Total Dipole Moment    :      0.77038      -2.06144       0.01349
                        -----------------------------------------
Magnitude (a.u.)       :      2.20072
Magnitude (Debye)      :      5.59379



--------------------
Rotational spectrum 
--------------------
 
Rotational constants in cm-1:     0.001499     0.001475     0.000762 
Rotational constants in MHz :    44.927715    44.231869    22.836461 

 Dipole components along the rotational axes: 
x,y,z [a.u.] :     1.389741    -1.706314     0.017226 
x,y,z [Debye]:     3.532440    -4.337106     0.043784 

 

Timings for individual modules:

Sum of individual times         ...     5319.701 sec (=  88.662 min)
GTO integral calculation        ...        3.289 sec (=   0.055 min)   0.1 %
SCF iterations                  ...     1720.600 sec (=  28.677 min)  32.3 %
MP2 module                      ...     3595.812 sec (=  59.930 min)  67.6 %
                             ****ORCA TERMINATED NORMALLY****
TOTAL RUN TIME: 0 days 1 hours 28 minutes 43 seconds 197 msec
# of primitive gaussian functions

