
                                 *****************
                                 * O   R   C   A *
                                 *****************

                                            #,                                       
                                            ###                                      
                                            ####                                     
                                            #####                                    
                                            ######                                   
                                           ########,                                 
                                     ,,################,,,,,                         
                               ,,#################################,,                 
                          ,,##########################################,,             
                       ,#########################################, ''#####,          
                    ,#############################################,,   '####,        
                  ,##################################################,,,,####,       
                ,###########''''           ''''###############################       
              ,#####''   ,,,,##########,,,,          '''####'''          '####       
            ,##' ,,,,###########################,,,                        '##       
           ' ,,###''''                  '''############,,,                           
         ,,##''                                '''############,,,,        ,,,,,,###''
      ,#''                                            '''#######################'''  
     '                                                          ''''####''''         
             ,#######,   #######,   ,#######,      ##                                
            ,#'     '#,  ##    ##  ,#'     '#,    #''#        ######   ,####,        
            ##       ##  ##   ,#'  ##            #'  '#       #        #'  '#        
            ##       ##  #######   ##           ,######,      #####,   #    #        
            '#,     ,#'  ##    ##  '#,     ,#' ,#      #,         ##   #,  ,#        
             '#######'   ##     ##  '#######'  #'      '#     #####' # '####'        



                  #######################################################
                  #                        -***-                        #
                  #          Department of theory and spectroscopy      #
                  #    Directorship and core code : Frank Neese         #
                  #        Max Planck Institute fuer Kohlenforschung    #
                  #                Kaiser Wilhelm Platz 1               #
                  #                 D-45470 Muelheim/Ruhr               #
                  #                      Germany                        #
                  #                                                     #
                  #                  All rights reserved                #
                  #                        -***-                        #
                  #######################################################


                         Program Version 5.0.4 -  RELEASE  -


 With contributions from (in alphabetic order):
   Daniel Aravena         : Magnetic Suceptibility
   Michael Atanasov       : Ab Initio Ligand Field Theory (pilot matlab implementation)
   Alexander A. Auer      : GIAO ZORA, VPT2 properties, NMR spectrum
   Ute Becker             : Parallelization
   Giovanni Bistoni       : ED, misc. LED, open-shell LED, HFLD
   Martin Brehm           : Molecular dynamics
   Dmytro Bykov           : SCF Hessian
   Vijay G. Chilkuri      : MRCI spin determinant printing, contributions to CSF-ICE
   Dipayan Datta          : RHF DLPNO-CCSD density
   Achintya Kumar Dutta   : EOM-CC, STEOM-CC
   Dmitry Ganyushin       : Spin-Orbit,Spin-Spin,Magnetic field MRCI
   Miquel Garcia          : C-PCM and meta-GGA Hessian, CC/C-PCM, Gaussian charge scheme
   Yang Guo               : DLPNO-NEVPT2, F12-NEVPT2, CIM, IAO-localization
   Andreas Hansen         : Spin unrestricted coupled pair/coupled cluster methods
   Benjamin Helmich-Paris : MC-RPA, TRAH-SCF, COSX integrals
   Lee Huntington         : MR-EOM, pCC
   Robert Izsak           : Overlap fitted RIJCOSX, COSX-SCS-MP3, EOM
   Marcus Kettner         : VPT2
   Christian Kollmar      : KDIIS, OOCD, Brueckner-CCSD(T), CCSD density, CASPT2, CASPT2-K
   Simone Kossmann        : Meta GGA functionals, TD-DFT gradient, OOMP2, MP2 Hessian
   Martin Krupicka        : Initial AUTO-CI
   Lucas Lang             : DCDCAS
   Marvin Lechner         : AUTO-CI (C++ implementation), FIC-MRCC
   Dagmar Lenk            : GEPOL surface, SMD
   Dimitrios Liakos       : Extrapolation schemes; Compound Job, initial MDCI parallelization
   Dimitrios Manganas     : Further ROCIS development; embedding schemes
   Dimitrios Pantazis     : SARC Basis sets
   Anastasios Papadopoulos: AUTO-CI, single reference methods and gradients
   Taras Petrenko         : DFT Hessian,TD-DFT gradient, ASA, ECA, R-Raman, ABS, FL, XAS/XES, NRVS
   Peter Pinski           : DLPNO-MP2, DLPNO-MP2 Gradient
   Christoph Reimann      : Effective Core Potentials
   Marius Retegan         : Local ZFS, SOC
   Christoph Riplinger    : Optimizer, TS searches, QM/MM, DLPNO-CCSD(T), (RO)-DLPNO pert. Triples
   Tobias Risthaus        : Range-separated hybrids, TD-DFT gradient, RPA, STAB
   Michael Roemelt        : Original ROCIS implementation
   Masaaki Saitow         : Open-shell DLPNO-CCSD energy and density
   Barbara Sandhoefer     : DKH picture change effects
   Avijit Sen             : IP-ROCIS
   Kantharuban Sivalingam : CASSCF convergence, NEVPT2, FIC-MRCI
   Bernardo de Souza      : ESD, SOC TD-DFT
   Georgi Stoychev        : AutoAux, RI-MP2 NMR, DLPNO-MP2 response
   Willem Van den Heuvel  : Paramagnetic NMR
   Boris Wezisla          : Elementary symmetry handling
   Frank Wennmohs         : Technical directorship


 We gratefully acknowledge several colleagues who have allowed us to
 interface, adapt or use parts of their codes:
   Stefan Grimme, W. Hujo, H. Kruse, P. Pracht,  : VdW corrections, initial TS optimization,
                  C. Bannwarth, S. Ehlert          DFT functionals, gCP, sTDA/sTD-DF
   Ed Valeev, F. Pavosevic, A. Kumar             : LibInt (2-el integral package), F12 methods
   Garnet Chan, S. Sharma, J. Yang, R. Olivares  : DMRG
   Ulf Ekstrom                                   : XCFun DFT Library
   Mihaly Kallay                                 : mrcc  (arbitrary order and MRCC methods)
   Jiri Pittner, Ondrej Demel                    : Mk-CCSD
   Frank Weinhold                                : gennbo (NPA and NBO analysis)
   Christopher J. Cramer and Donald G. Truhlar   : smd solvation model
   Lars Goerigk                                  : TD-DFT with DH, B97 family of functionals
   V. Asgeirsson, H. Jonsson                     : NEB implementation
   FAccTs GmbH                                   : IRC, NEB, NEB-TS, DLPNO-Multilevel, CI-OPT
                                                   MM, QMMM, 2- and 3-layer-ONIOM, Crystal-QMMM,
                                                   LR-CPCM, SF, NACMEs, symmetry and pop. for TD-DFT,
                                                   nearIR, NL-DFT gradient (VV10), updates on ESD,
                                                   ML-optimized integration grids
   S Lehtola, MJT Oliveira, MAL Marques          : LibXC Library
   Liviu Ungur et al                             : ANISO software


 Your calculation uses the libint2 library for the computation of 2-el integrals
 For citations please refer to: http://libint.valeyev.net

 Your ORCA version has been built with support for libXC version: 5.1.0
 For citations please refer to: https://tddft.org/programs/libxc/

 This ORCA versions uses:
   CBLAS   interface :  Fast vector & matrix operations
   LAPACKE interface :  Fast linear algebra routines
   SCALAPACK package :  Parallel linear algebra routines
   Shared memory     :  Shared parallel matrices
   BLAS/LAPACK       :  OpenBLAS 0.3.15  USE64BITINT DYNAMIC_ARCH NO_AFFINITY Sandybridge SINGLE_THREADED
        Core in use  :  Sandybridge
   Copyright (c) 2011-2014, The OpenBLAS Project


================================================================================

----- Orbital basis set information -----
Your calculation utilizes the basis: cc-pVDZ 
       H, B-Ne : Obtained from the ccRepo (grant-hill.group.shef.ac.uk/ccrepo) Feb. 2017
                 T. H. Dunning, Jr., J. Chem. Phys. 90, 1007 (1989)
            He : Obtained from the ccRepo (grant-hill.group.shef.ac.uk/ccrepo) Feb. 2017
                 D. E. Woon, T. H. Dunning, Jr., J. Chem. Phys. 100, 2975 (1994)
  Li-Be, Na-Mg : Obtained from the ccRepo (grant-hill.group.shef.ac.uk/ccrepo) Feb. 2017
                 B. P. Prascher, D. E. Woon, K. A. Peterson, T. H. Dunning, Jr., A. K. Wilson, Theor. Chem. Acc. 128, 69 (2011)
         Al-Ar : Obtained from the ccRepo (grant-hill.group.shef.ac.uk/ccrepo) Feb. 2017
                 D. E. Woon, T. H. Dunning, Jr., J. Chem. Phys. 98, 1358 (1993)
            Ca : Obtained from the Peterson Research Group Website (tyr0.chem.wsu.edu/~kipeters) Feb. 2017
                 J. Koput, K. A. Peterson, J. Phys. Chem. 106, 9595 (2002)
         Sc-Zn : Obtained from the ccRepo (grant-hill.group.shef.ac.uk/ccrepo) Feb. 2017
                 N. B. Balabanov, K. A. Peterson, J. Chem. Phys. 123, 064107 (2005)
                 N. B. Balabanov, K. A. Peterson, J. Chem. Phys. 125, 074110 (2006)
         Ga-Kr : Obtained from the ccRepo (grant-hill.group.shef.ac.uk/ccrepo) Feb. 2017
                 A. K. Wilson, D. E. Woon, K. A. Peterson, T. H. Dunning, Jr., J. Chem. Phys. 110, 7667 (1999)

================================================================================
                                        WARNINGS
                       Please study these warnings very carefully!
================================================================================


WARNING: No MP2 level density has been requested!
         To caclulate MP2 level properties use
         %mp2 Density relaxed end
         or
         %mp2 Density unrelaxed end

WARNING: Post HF methods need fully converged wavefunctions
  ===> : Setting SCFConvForced true
         You can overwrite this default with %scf ConvForced false 


INFO   : the flag for use of the SHARK integral package has been found!

================================================================================
                                       INPUT FILE
================================================================================
NAME = /scratch/allen/tmpyp4_amber_gaff2/2.Mdgx/conf11/conf11/Conf159.orca
|  1> ! PAL2
|  2> ! mp2 cc-pvdz TightSCF  NoKeepInts
|  3> 
|  4> %scf
|  5>   MaxCore 2000
|  6> end
|  7> %mp2
|  8>   MaxCore 2000
|  9> end
| 10> * xyz 0 1
| 11>    C       -4.88100         5.24200        -0.37900
| 12>    C        1.47400         4.04100         0.05700
| 13>    C       -2.80200         4.09300         0.04900
| 14>    C       -2.28700         5.30900         0.52500
| 15>    C       -3.07900         6.44000         0.53700
| 16>    C       -5.18800         7.61800         0.14600
| 17>    C        0.13200         4.30700         0.06100
| 18>    C       -0.56900         3.05600         0.04700
| 19>    C        1.64900         2.61800         0.02300
| 20>    C       -4.13000         4.08300        -0.40500
| 21>    N       -4.35400         6.39800         0.08600
| 22>    N        0.38800         2.06700         0.02500
| 23>    N       -2.01000         0.39500        -0.07500
| 24>    N       -0.38800        -2.07400        -0.02700
| 25>    N        2.01000        -0.40100         0.06500
| 26>    C       -1.96000         2.86100         0.02400
| 27>    C       -2.62300         1.61500        -0.01800
| 28>    C       -5.57300        -4.32900         1.06600
| 29>    C       -4.07300         1.47100         0.05600
| 30>    C       -4.10600        -2.75600        -0.02600
| 31>    C       -4.99500        -2.75700        -1.11100
| 32>    C       -6.13200        -3.54200        -1.07600
| 33>    C       -7.65100        -5.11300         0.04000
| 34>    C       -4.32400         0.14100         0.03700
| 35>    C       -3.02500        -0.52000        -0.04800
| 36>    C       -4.42200        -3.56600         1.07500
| 37>    N       -6.40700        -4.31300         0.00100
| 38>    C       -2.86700        -1.92200        -0.04000
| 39>    C       -1.65000        -2.62400        -0.02700
| 40>    C        3.56800        -6.14200        -1.04000
| 41>    C       -1.47600        -4.04900        -0.03400
| 42>    C        2.80300        -4.09900        -0.00800
| 43>    C        3.65700        -4.38400         1.06900
| 44>    C        4.42700        -5.53000         1.05900
| 45>    C        5.24500        -7.58800         0.01400
| 46>    C       -0.13400        -4.31500        -0.02200
| 47>    C        0.56800        -3.06400        -0.02700
| 48>    C        2.77500        -5.01200        -1.07400
| 49>    N        4.37600        -6.39100         0.01700
| 50>    C        1.95900        -2.86900        -0.00900
| 51>    C        2.62100        -1.62200         0.00900
| 52>    C        5.54300         4.33900        -1.13000
| 53>    C        4.07000        -1.47900        -0.09400
| 54>    C        4.10400         2.75100        -0.02100
| 55>    C        5.02700         2.72900         1.03600
| 56>    C        6.16600         3.50900         0.97800
| 57>    C        7.61900         5.15300        -0.11500
| 58>    C        4.32100        -0.14800        -0.09200
| 59>    C        3.02500         0.51400         0.01500
| 60>    C        4.38700         3.58200        -1.11500
| 61>    C        2.86600         1.91600         0.01300
| 62>    N        6.41300         4.29600        -0.09500
| 63>    H       -5.90400         5.28300        -0.73100
| 64>    H        2.27400         4.76600         0.08100
| 65>    H       -1.27300         5.37800         0.89800
| 66>    H       -2.72900         7.39700         0.90200
| 67>    H       -5.65000         7.68500         1.13400
| 68>    H       -4.55300         8.48700        -0.03000
| 69>    H       -5.95700         7.55600        -0.62300
| 70>    H       -0.33200         5.28200         0.06900
| 71>    H       -4.58000         3.17800        -0.79800
| 72>    H        0.18200         1.07200         0.00500
| 73>    H       -0.18300        -1.08000        -0.02100
| 74>    H       -5.86400        -4.96200         1.89500
| 75>    H       -4.79400         2.27200         0.13900
| 76>    H       -4.80000        -2.16000        -1.99400
| 77>    H       -6.84100        -3.58200        -1.89300
| 78>    H       -8.42800        -4.53600         0.54600
| 79>    H       -7.95600        -5.33700        -0.98100
| 80>    H       -7.45600        -6.03700         0.58400
| 81>    H       -5.28700        -0.34400         0.10000
| 82>    H       -3.78000        -3.60100         1.94700
| 83>    H        3.58700        -6.86800        -1.84300
| 84>    H       -2.27600        -4.77400        -0.05000
| 85>    H        3.71400        -3.72400         1.92600
| 86>    H        5.09200        -5.79500         1.87100
| 87>    H        6.20500        -7.32900        -0.43900
| 88>    H        5.39300        -7.91700         1.04200
| 89>    H        4.75900        -8.37300        -0.56400
| 90>    H        0.32900        -5.29000        -0.00800
| 91>    H        2.14600        -4.84200        -1.94000
| 92>    H        5.80800         4.98600        -1.95600
| 93>    H        4.78800        -2.28100        -0.18500
| 94>    H        4.86000         2.11400         1.91200
| 95>    H        6.90100         3.53100         1.77200
| 96>    H        7.38300         6.10900         0.35600
| 97>    H        8.41400         4.65200         0.43500
| 98>    H        7.92100         5.31000        -1.15000
| 99>    H        5.28300         0.33600        -0.17900
|100>    H        3.72000         3.63200        -1.96700
|101> *
|102> 
|103>                          ****END OF INPUT****
================================================================================

                       ****************************
                       * Single Point Calculation *
                       ****************************

---------------------------------
CARTESIAN COORDINATES (ANGSTROEM)
---------------------------------
  C     -4.881000    5.242000   -0.379000
  C      1.474000    4.041000    0.057000
  C     -2.802000    4.093000    0.049000
  C     -2.287000    5.309000    0.525000
  C     -3.079000    6.440000    0.537000
  C     -5.188000    7.618000    0.146000
  C      0.132000    4.307000    0.061000
  C     -0.569000    3.056000    0.047000
  C      1.649000    2.618000    0.023000
  C     -4.130000    4.083000   -0.405000
  N     -4.354000    6.398000    0.086000
  N      0.388000    2.067000    0.025000
  N     -2.010000    0.395000   -0.075000
  N     -0.388000   -2.074000   -0.027000
  N      2.010000   -0.401000    0.065000
  C     -1.960000    2.861000    0.024000
  C     -2.623000    1.615000   -0.018000
  C     -5.573000   -4.329000    1.066000
  C     -4.073000    1.471000    0.056000
  C     -4.106000   -2.756000   -0.026000
  C     -4.995000   -2.757000   -1.111000
  C     -6.132000   -3.542000   -1.076000
  C     -7.651000   -5.113000    0.040000
  C     -4.324000    0.141000    0.037000
  C     -3.025000   -0.520000   -0.048000
  C     -4.422000   -3.566000    1.075000
  N     -6.407000   -4.313000    0.001000
  C     -2.867000   -1.922000   -0.040000
  C     -1.650000   -2.624000   -0.027000
  C      3.568000   -6.142000   -1.040000
  C     -1.476000   -4.049000   -0.034000
  C      2.803000   -4.099000   -0.008000
  C      3.657000   -4.384000    1.069000
  C      4.427000   -5.530000    1.059000
  C      5.245000   -7.588000    0.014000
  C     -0.134000   -4.315000   -0.022000
  C      0.568000   -3.064000   -0.027000
  C      2.775000   -5.012000   -1.074000
  N      4.376000   -6.391000    0.017000
  C      1.959000   -2.869000   -0.009000
  C      2.621000   -1.622000    0.009000
  C      5.543000    4.339000   -1.130000
  C      4.070000   -1.479000   -0.094000
  C      4.104000    2.751000   -0.021000
  C      5.027000    2.729000    1.036000
  C      6.166000    3.509000    0.978000
  C      7.619000    5.153000   -0.115000
  C      4.321000   -0.148000   -0.092000
  C      3.025000    0.514000    0.015000
  C      4.387000    3.582000   -1.115000
  C      2.866000    1.916000    0.013000
  N      6.413000    4.296000   -0.095000
  H     -5.904000    5.283000   -0.731000
  H      2.274000    4.766000    0.081000
  H     -1.273000    5.378000    0.898000
  H     -2.729000    7.397000    0.902000
  H     -5.650000    7.685000    1.134000
  H     -4.553000    8.487000   -0.030000
  H     -5.957000    7.556000   -0.623000
  H     -0.332000    5.282000    0.069000
  H     -4.580000    3.178000   -0.798000
  H      0.182000    1.072000    0.005000
  H     -0.183000   -1.080000   -0.021000
  H     -5.864000   -4.962000    1.895000
  H     -4.794000    2.272000    0.139000
  H     -4.800000   -2.160000   -1.994000
  H     -6.841000   -3.582000   -1.893000
  H     -8.428000   -4.536000    0.546000
  H     -7.956000   -5.337000   -0.981000
  H     -7.456000   -6.037000    0.584000
  H     -5.287000   -0.344000    0.100000
  H     -3.780000   -3.601000    1.947000
  H      3.587000   -6.868000   -1.843000
  H     -2.276000   -4.774000   -0.050000
  H      3.714000   -3.724000    1.926000
  H      5.092000   -5.795000    1.871000
  H      6.205000   -7.329000   -0.439000
  H      5.393000   -7.917000    1.042000
  H      4.759000   -8.373000   -0.564000
  H      0.329000   -5.290000   -0.008000
  H      2.146000   -4.842000   -1.940000
  H      5.808000    4.986000   -1.956000
  H      4.788000   -2.281000   -0.185000
  H      4.860000    2.114000    1.912000
  H      6.901000    3.531000    1.772000
  H      7.383000    6.109000    0.356000
  H      8.414000    4.652000    0.435000
  H      7.921000    5.310000   -1.150000
  H      5.283000    0.336000   -0.179000
  H      3.720000    3.632000   -1.967000

----------------------------
CARTESIAN COORDINATES (A.U.)
----------------------------
  NO LB      ZA    FRAG     MASS         X           Y           Z
   0 C     6.0000    0    12.011   -9.223753    9.905944   -0.716206
   1 C     6.0000    0    12.011    2.785456    7.636383    0.107714
   2 C     6.0000    0    12.011   -5.295013    7.734649    0.092597
   3 C     6.0000    0    12.011   -4.321804   10.032556    0.992106
   4 C     6.0000    0    12.011   -5.818467   12.169836    1.014783
   5 C     6.0000    0    12.011   -9.803899   14.395934    0.275900
   6 C     6.0000    0    12.011    0.249444    8.139050    0.115273
   7 C     6.0000    0    12.011   -1.075254    5.775003    0.088817
   8 C     6.0000    0    12.011    3.116158    4.947303    0.043464
   9 C     6.0000    0    12.011   -7.804569    7.715752   -0.765339
  10 N     7.0000    0    14.007   -8.227868   12.090468    0.162516
  11 N     7.0000    0    14.007    0.733214    3.906064    0.047243
  12 N     7.0000    0    14.007   -3.798350    0.746442   -0.141729
  13 N     7.0000    0    14.007   -0.733214   -3.919292   -0.051023
  14 N     7.0000    0    14.007    3.798350   -0.757780    0.122832
  15 C     6.0000    0    12.011   -3.703863    5.406506    0.045353
  16 C     6.0000    0    12.011   -4.956752    3.051908   -0.034015
  17 C     6.0000    0    12.011  -10.531444   -8.180624    2.014448
  18 C     6.0000    0    12.011   -7.696855    2.779787    0.105825
  19 C     6.0000    0    12.011   -7.759216   -5.208085   -0.049133
  20 C     6.0000    0    12.011   -9.439182   -5.209975   -2.099486
  21 C     6.0000    0    12.011  -11.587801   -6.693410   -2.033345
  22 C     6.0000    0    12.011  -14.458295   -9.662170    0.075589
  23 C     6.0000    0    12.011   -8.171176    0.266451    0.069920
  24 C     6.0000    0    12.011   -5.716422   -0.982658   -0.090707
  25 C     6.0000    0    12.011   -8.356369   -6.738763    2.031456
  26 N     7.0000    0    14.007  -12.107475   -8.150389    0.001890
  27 C     6.0000    0    12.011   -5.417845   -3.632054   -0.075589
  28 C     6.0000    0    12.011   -3.118048   -4.958641   -0.051023
  29 C     6.0000    0    12.011    6.742543  -11.606698   -1.965315
  30 C     6.0000    0    12.011   -2.789236   -7.651501   -0.064251
  31 C     6.0000    0    12.011    5.296902   -7.745987   -0.015118
  32 C     6.0000    0    12.011    6.910728   -8.284559    2.020117
  33 C     6.0000    0    12.011    8.365818  -10.450186    2.001220
  34 C     6.0000    0    12.011    9.911614  -14.339242    0.026456
  35 C     6.0000    0    12.011   -0.253223   -8.154168   -0.041574
  36 C     6.0000    0    12.011    1.073364   -5.790121   -0.051023
  37 C     6.0000    0    12.011    5.243990   -9.471307   -2.029566
  38 N     7.0000    0    14.007    8.269442  -12.077240    0.032125
  39 C     6.0000    0    12.011    3.701973   -5.421624   -0.017008
  40 C     6.0000    0    12.011    4.952972   -3.065136    0.017008
  41 C     6.0000    0    12.011   10.474752    8.199522   -2.135391
  42 C     6.0000    0    12.011    7.691185   -2.794905   -0.177634
  43 C     6.0000    0    12.011    7.755436    5.198637   -0.039684
  44 C     6.0000    0    12.011    9.499653    5.157063    1.957756
  45 C     6.0000    0    12.011   11.652051    6.631049    1.848152
  46 C     6.0000    0    12.011   14.397823    9.737759   -0.217319
  47 C     6.0000    0    12.011    8.165507   -0.279679   -0.173855
  48 C     6.0000    0    12.011    5.716422    0.971319    0.028346
  49 C     6.0000    0    12.011    8.290229    6.768999   -2.107045
  50 C     6.0000    0    12.011    5.415955    3.620715    0.024566
  51 N     7.0000    0    14.007   12.118814    8.118263   -0.179524
  52 H     1.0000    0     1.008  -11.156943    9.983423   -1.381390
  53 H     1.0000    0     1.008    4.297237    9.006435    0.153068
  54 H     1.0000    0     1.008   -2.405621   10.162947    1.696974
  55 H     1.0000    0     1.008   -5.157063   13.978304    1.704533
  56 H     1.0000    0     1.008  -10.676953   14.522545    2.142949
  57 H     1.0000    0     1.008   -8.603923   16.038106   -0.056692
  58 H     1.0000    0     1.008  -11.257099   14.278771   -1.177299
  59 H     1.0000    0     1.008   -0.627389    9.981533    0.130391
  60 H     1.0000    0     1.008   -8.654946    6.005550   -1.508001
  61 H     1.0000    0     1.008    0.343930    2.025786    0.009449
  62 H     1.0000    0     1.008   -0.345820   -2.040904   -0.039684
  63 H     1.0000    0     1.008  -11.081354   -9.376821    3.581031
  64 H     1.0000    0     1.008   -9.059347    4.293458    0.262672
  65 H     1.0000    0     1.008   -9.070685   -4.081808   -3.768114
  66 H     1.0000    0     1.008  -12.927616   -6.768999   -3.577252
  67 H     1.0000    0     1.008  -15.926612   -8.571798    1.031790
  68 H     1.0000    0     1.008  -15.034661  -10.085468   -1.853821
  69 H     1.0000    0     1.008  -14.089798  -11.408277    1.103600
  70 H     1.0000    0     1.008   -9.990982   -0.650066    0.188973
  71 H     1.0000    0     1.008   -7.143165   -6.804904    3.679297
  72 H     1.0000    0     1.008    6.778448  -12.978639   -3.482765
  73 H     1.0000    0     1.008   -4.301017   -9.021553   -0.094486
  74 H     1.0000    0     1.008    7.018443   -7.037340    3.639613
  75 H     1.0000    0     1.008    9.622485  -10.950963    3.535678
  76 H     1.0000    0     1.008   11.725751  -13.849803   -0.829590
  77 H     1.0000    0     1.008   10.191293  -14.960962    1.969095
  78 H     1.0000    0     1.008    8.993207  -15.822677   -1.065806
  79 H     1.0000    0     1.008    0.621720   -9.996651   -0.015118
  80 H     1.0000    0     1.008    4.055352   -9.150054   -3.666069
  81 H     1.0000    0     1.008   10.975529    9.422175   -3.696304
  82 H     1.0000    0     1.008    9.048009   -4.310465   -0.349599
  83 H     1.0000    0     1.008    9.184069    3.994881    3.613156
  84 H     1.0000    0     1.008   13.041000    6.672623    3.348595
  85 H     1.0000    0     1.008   13.951848   11.544337    0.672743
  86 H     1.0000    0     1.008   15.900156    8.791006    0.822031
  87 H     1.0000    0     1.008   14.968521   10.034446   -2.173185
  88 H     1.0000    0     1.008    9.983423    0.634948   -0.338261
  89 H     1.0000    0     1.008    7.029781    6.863485   -3.717091

--------------------------------
INTERNAL COORDINATES (ANGSTROEM)
--------------------------------
 C      0   0   0     0.000000000000     0.00000000     0.00000000
 C      1   0   0     6.482169544219     0.00000000     0.00000000
 C      1   2   0     2.413633360724    19.16338255     0.00000000
 C      3   1   2     1.403729674831    87.92337187    38.64380512
 C      4   3   1     1.380785645928   120.13673484     0.18208326
 C      5   4   3     2.447130155917   152.52858132     1.48190063
 C      2   1   3     1.368114030335     4.05630992   283.10816504
 C      7   2   4     1.434084376876   108.05010202   221.04597305
 C      2   1   3     1.434123425651   107.57041134    22.98259936
 C      1   2   7     1.381288528874    46.58924854   257.62876385
 N      1   2   7     1.352882108685    75.71763938    63.00331858
 N      9   2   1     1.376127174356   106.58526707   355.03007729
 N     12   9   2     2.925062050624   168.53581413   171.12065651
 N     13  12   9     2.954513327098    91.55032014    11.12112580
 N     14  13  12     2.925371258490    88.43092389   359.84326247
 C      8   7   2     1.404790019896   127.24786865   181.11170171
 C     13  12   9     1.366535034311    81.72106996   188.00453233
 C     14  13  12     5.758810554272    80.56209567   166.76250791
 C     17  13  12     1.459010623676   111.08861209   183.82872609
 C     18  14  13     2.412235892279    27.27532823    36.33507194
 C     20  18  14     1.402692767501    87.95206320   148.94598259
 C     21  20  18     1.382106725257   120.14573887   359.70382047
 C     18  14  13     2.446510985056   144.15733107    82.80075377
 C     19  17  13     1.353610726908   106.29293361   359.75308708
 C     13  12   9     1.366813447402   172.21332906    33.46711076
 C     18  14  13     1.380960173213    15.08449437   309.23336894
 N     22  21  20     1.352773077792   120.73759875     0.27865223
 C     25  13  17     1.410897586645   125.60330303   182.37774668
 C     14  13  12     1.376642291955    80.24689249   177.85461986
 C     14  13  12     5.764089607215   164.51507311   312.20821879
 C     29  14  13     1.435600919476   106.58649366   178.76395472
 C     30  14  13     2.413316804732    27.10625047    82.12560436
 C     32  30  14     1.403734305344    87.90059683   149.76154742
 C     33  32  30     1.380694028378   120.14881443   359.74174632
 C     34  33  32     2.448777858443   152.49203239     2.45173620
 C     31  29  14     1.368160809262   108.16950133     0.70383075
 C     14  13  12     1.376239804685   169.26375223   353.09862627
 C     30  14  13     1.380907310430    14.68948582   353.70041132
 N     34  33  32     1.352658863128   120.85575621     0.19603406
 C     37  14  29     1.404717053360   126.01551127   180.90772073
 C     15  14  13     1.366491126938    81.61824056   183.09049352
 C      2   1   3     4.249062720177   155.10108813   146.20838511
 C     41  15  14     1.459677704153   111.05201287   175.08990246
 C     42   2   1     2.412953791518    41.78584867   209.35727773
 C     44  42   2     1.403446472082    87.95153797   233.97558675
 C     45  44  42     1.381696421071   120.11137308     0.19721020
 C     42   2   1     2.450019795838   135.97209175   119.67212683
 C     43  41  15     1.354461516618   106.26758155     0.30894352
 C     15  14  13     1.367461151185   171.87382904   332.35056460
 C     42   2   1     1.381886391857    32.59078432   258.21255692
 C      9   2   1     1.404988612053   126.98745415   176.03441482
 N     42   2   1     1.352765315936   113.57249190   147.40871602
 H      1   2   7     1.082642138474   162.79610032   200.64595269
 H      2   1   3     1.079907866440   127.11226519   199.00826263
 H      4   3   1     1.082629207070   121.04174914   179.48378462
 H      5   4   3     1.082392719857   122.79706891   179.46999172
 H      6   5   4     1.092738303529   104.44338700   100.22346949
 H      6   5   4     1.090578745437    84.69569916   209.61641365
 H      6   5   4     1.089296102995   133.93275867   322.45630794
 H      7   2  54     1.079807853278   126.66122480     1.30600390
 H     10   1   2     1.084423349066   118.78007281   197.43983012
 H     12   9   2     1.016297692608   125.29023241   180.00180175
 H     14  13  12     1.014936943854    44.97226959   359.42596618
 H     18  14  13     1.082871645210   128.03556573   234.20482432
 H     19  17  13     1.080893611786   126.41830519   178.11313280
 H     21  20  18     1.083569563987   121.05669627   180.67006309
 H     22  21  20     1.082483256222   122.73097286   180.59748951
 H     23  18  14     1.092105306278   103.92715769   234.93429879
 H     23  18  14     1.088871893291   134.19244188    12.25587044
 H     23  18  14     1.089833473518    84.85857450   125.45241208
 H     24  19  17     1.080075460327   127.28078426   178.44613241
 H     26  18  14     1.083408048706   118.76995697   244.94906660
 H     30  14  13     1.082703098730   127.99711412   279.66882698
 H     31  29  14     1.079759695488   125.22293469   180.92530585
 H     33  32  30     1.083188810873   121.01964473   180.74284758
 H     34  33  32     1.082494341787   122.70821597   180.59516895
 H     35  34  33     1.092652735319   105.73575241    97.19771933
 H     35  34  33     1.089462711615    84.05943581   206.43036958
 H     35  34  33     1.089268102902   133.08365142   318.50306270
 H     36  31  29     1.079439669458   126.61599965   178.98859863
 H     38  30  73     1.083742127999   118.77264435   359.90091293
 H     42   2   1     1.082178358682   119.31790784     4.04024648
 H     43  41  15     1.080281907652   126.36969097   182.06329380
 H     45  44  42     1.083277434455   121.10105945   179.58025624
 H     46  45  44     1.082194529648   122.72144639   179.46906377
 H     47  42   2     1.091546151109   106.65128841   315.16475048
 H     47  42   2     1.088818625851   132.46019523    94.52397119
 H     47  42   2     1.089531091801    83.63838232   206.04504406
 H     48  43  41     1.080402239909   127.23657387   181.62955349
 H     50  42   2     1.083186502870   118.77001737    94.71359229

---------------------------
INTERNAL COORDINATES (A.U.)
---------------------------
 C      0   0   0     0.000000000000     0.00000000     0.00000000
 C      1   0   0    12.249525192219     0.00000000     0.00000000
 C      1   2   0     4.561106039464    19.16338255     0.00000000
 C      3   1   2     2.652664651488    87.92337187    38.64380512
 C      4   3   1     2.609306720453   120.13673484     0.18208326
 C      5   4   3     4.624405808744   152.52858132     1.48190063
 C      2   1   3     2.585360837309     4.05630992   283.10816504
 C      7   2   4     2.710026725231   108.05010202   221.04597305
 C      2   1   3     2.710100516721   107.57041134    22.98259936
 C      1   2   7     2.610257031500    46.58924854   257.62876385
 N      1   2   7     2.556576676897    75.71763938    63.00331858
 N      9   2   1     2.600503484979   106.58526707   355.03007729
 N     12   9   2     5.527566200405   168.53581413   171.12065651
 N     13  12   9     5.583221047236    91.55032014    11.12112580
 N     14  13  12     5.528150518591    88.43092389   359.84326247
 C      8   7   2     2.654668413270   127.24786865   181.11170171
 C     13  12   9     2.582376967257    81.72106996   188.00453233
 C     14  13  12    10.882574804710    80.56209567   166.76250791
 C     17  13  12     2.757130505230   111.08861209   183.82872609
 C     18  14  13     4.558465206823    27.27532823    36.33507194
 C     20  18  14     2.650705180609    87.95206320   148.94598259
 C     21  20  18     2.611803198586   120.14573887   359.70382047
 C     18  14  13     4.623235745386   144.15733107    82.80075377
 C     19  17  13     2.557953565794   106.29293361   359.75308708
 C     13  12   9     2.582903091751   172.21332906    33.46711076
 C     18  14  13     2.609636529225    15.08449437   309.23336894
 N     22  21  20     2.556370638369   120.73759875     0.27865223
 C     25  13  17     2.666210041769   125.60330303   182.37774668
 C     14  13  12     2.601476916169    80.24689249   177.85461986
 C     14  13  12    10.892550769017   164.51507311   312.20821879
 C     29  14  13     2.712892575415   106.58649366   178.76395472
 C     30  14  13     4.560507835333    27.10625047    82.12560436
 C     32  30  14     2.652673401891    87.90059683   149.76154742
 C     33  32  30     2.609133588376   120.14881443   359.74174632
 C     34  33  32     4.627519515267   152.49203239     2.45173620
 C     31  29  14     2.585449236669   108.16950133     0.70383075
 C     14  13  12     2.600716325456   169.26375223   353.09862627
 C     30  14  13     2.609536633043    14.68948582   353.70041132
 N     34  33  32     2.556154803934   120.85575621     0.19603406
 C     37  14  29     2.654530526499   126.01551127   180.90772073
 C     15  14  13     2.582293994346    81.61824056   183.09049352
 C      2   1   3     8.029564866989   155.10108813   146.20838511
 C     41  15  14     2.758391104639   111.05201287   175.08990246
 C     42   2   1     4.559821839776    41.78584867   209.35727773
 C     44  42   2     2.652129475853    87.95153797   233.97558675
 C     45  44  42     2.611027836043   120.11137308     0.19721020
 C     42   2   1     4.629866436820   135.97209175   119.67212683
 C     43  41  15     2.559561325344   106.26758155     0.30894352
 C     15  14  13     2.584127074516   171.87382904   332.35056460
 C     42   2   1     2.611386828803    32.59078432   258.21255692
 C      9   2   1     2.655043698059   126.98745415   176.03441482
 N     42   2   1     2.556355970587   113.57249190   147.40871602
 H      1   2   7     2.045897142759   162.79610032   200.64595269
 H      2   1   3     2.040730117440   127.11226519   199.00826263
 H      4   3   1     2.045872705946   121.04174914   179.48378462
 H      5   4   3     2.045425809880   122.79706891   179.46999172
 H      6   5   4     2.064976129716   104.44338700   100.22346949
 H      6   5   4     2.060895156352    84.69569916   209.61641365
 H      6   5   4     2.058471313408   133.93275867   322.45630794
 H      7   2  54     2.040541119952   126.66122480     1.30600390
 H     10   1   2     2.049263142965   118.78007281   197.43983012
 H     12   9   2     1.920524309565   125.29023241   180.00180175
 H     14  13  12     1.917952867083    44.97226959   359.42596618
 H     18  14  13     2.046330847636   128.03556573   234.20482432
 H     19  17  13     2.042592906181   126.41830519   178.11313280
 H     21  20  18     2.047649722989   121.05669627   180.67006309
 H     22  21  20     2.045596898814   122.73097286   180.59748951
 H     23  18  14     2.063779938267   103.92715769   234.93429879
 H     23  18  14     2.057669673245   134.19244188    12.25587044
 H     23  18  14     2.059486796529    84.85857450   125.45241208
 H     24  19  17     2.041046823986   127.28078426   178.44613241
 H     26  18  14     2.047344503340   118.76995697   244.94906660
 H     30  14  13     2.046012340948   127.99711412   279.66882698
 H     31  29  14     2.040450114918   125.22293469   180.92530585
 H     33  32  30     2.046930203877   121.01964473   180.74284758
 H     34  33  32     2.045617847496   122.70821597   180.59516895
 H     35  34  33     2.064814429233   105.73575241    97.19771933
 H     35  34  33     2.058786158072    84.05943581   206.43036958
 H     35  34  33     2.058418400901   133.08365142   318.50306270
 H     36  31  29     2.039845353366   126.61599965   178.98859863
 H     38  30  73     2.047975821711   118.77264435   359.90091293
 H     42   2   1     2.045020725966   119.31790784     4.04024648
 H     43  41  15     2.041436952892   126.36969097   182.06329380
 H     45  44  42     2.047097678177   121.10105945   179.58025624
 H     46  45  44     2.045051284662   122.72144639   179.46906377
 H     47  42   2     2.062723288131   106.65128841   315.16475048
 H     47  42   2     2.057569012371   132.46019523    94.52397119
 H     47  42   2     2.058915377895    83.63838232   206.04504406
 H     48  43  41     2.041664347903   127.23657387   181.62955349
 H     50  42   2     2.046925842384   118.77001737    94.71359229

---------------------
BASIS SET INFORMATION
---------------------
There are 3 groups of distinct atoms

 Group   1 Type C   : 17s4p1d contracted to 3s2p1d pattern {881/31/1}
 Group   2 Type N   : 17s4p1d contracted to 3s2p1d pattern {881/31/1}
 Group   3 Type H   : 4s1p contracted to 2s1p pattern {31/1}

Atom   0C    basis set group =>   1
Atom   1N    basis set group =>   2
Atom   2C    basis set group =>   1
Atom   3N    basis set group =>   2
Atom   4C    basis set group =>   1
Atom   5N    basis set group =>   2
Atom   6C    basis set group =>   1
Atom   7N    basis set group =>   2
Atom   8C    basis set group =>   1
Atom   9N    basis set group =>   2
Atom  10C    basis set group =>   1
Atom  11N    basis set group =>   2
Atom  12C    basis set group =>   1
Atom  13N    basis set group =>   2
Atom  14C    basis set group =>   1
Atom  15N    basis set group =>   2
Atom  16C    basis set group =>   1
Atom  17C    basis set group =>   1
Atom  18C    basis set group =>   1
Atom  19C    basis set group =>   1
Atom  20C    basis set group =>   1
Atom  21C    basis set group =>   1
Atom  22C    basis set group =>   1
Atom  23C    basis set group =>   1
Atom  24C    basis set group =>   1
Atom  25C    basis set group =>   1
Atom  26C    basis set group =>   1
Atom  27C    basis set group =>   1
Atom  28C    basis set group =>   1
Atom  29C    basis set group =>   1
Atom  30C    basis set group =>   1
Atom  31C    basis set group =>   1
Atom  32C    basis set group =>   1
Atom  33C    basis set group =>   1
Atom  34C    basis set group =>   1
Atom  35C    basis set group =>   1
Atom  36C    basis set group =>   1
Atom  37C    basis set group =>   1
Atom  38C    basis set group =>   1
Atom  39C    basis set group =>   1
Atom  40C    basis set group =>   1
Atom  41C    basis set group =>   1
Atom  42C    basis set group =>   1
Atom  43C    basis set group =>   1
Atom  44C    basis set group =>   1
Atom  45C    basis set group =>   1
Atom  46C    basis set group =>   1
Atom  47C    basis set group =>   1
Atom  48C    basis set group =>   1
Atom  49C    basis set group =>   1
Atom  50C    basis set group =>   1
Atom  51C    basis set group =>   1
Atom  52H    basis set group =>   3
Atom  53H    basis set group =>   3
Atom  54H    basis set group =>   3
Atom  55H    basis set group =>   3
Atom  56H    basis set group =>   3
Atom  57H    basis set group =>   3
Atom  58H    basis set group =>   3
Atom  59H    basis set group =>   3
Atom  60H    basis set group =>   3
Atom  61H    basis set group =>   3
Atom  62H    basis set group =>   3
Atom  63H    basis set group =>   3
Atom  64H    basis set group =>   3
Atom  65H    basis set group =>   3
Atom  66H    basis set group =>   3
Atom  67H    basis set group =>   3
Atom  68H    basis set group =>   3
Atom  69H    basis set group =>   3
Atom  70H    basis set group =>   3
Atom  71H    basis set group =>   3
Atom  72H    basis set group =>   3
Atom  73H    basis set group =>   3
Atom  74H    basis set group =>   3
Atom  75H    basis set group =>   3
Atom  76H    basis set group =>   3
Atom  77H    basis set group =>   3
Atom  78H    basis set group =>   3
Atom  79H    basis set group =>   3
Atom  80H    basis set group =>   3
Atom  81H    basis set group =>   3
Atom  82H    basis set group =>   3
Atom  83H    basis set group =>   3
Atom  84H    basis set group =>   3
Atom  85H    basis set group =>   3
Atom  86H    basis set group =>   3
Atom  87H    basis set group =>   3
Atom  88H    basis set group =>   3
Atom  89H    basis set group =>   3


           ************************************************************
           *        Program running with 16 parallel MPI-processes    *
           *              working on a common directory               *
           ************************************************************
------------------------------------------------------------------------------
                           ORCA GTO INTEGRAL CALCULATION
------------------------------------------------------------------------------
------------------------------------------------------------------------------
                   ___                                                        
                  /   \      - P O W E R E D   B Y -                         
                 /     \                                                     
                 |  |  |   _    _      __       _____    __    __             
                 |  |  |  | |  | |    /  \     |  _  \  |  |  /  |          
                  \  \/   | |  | |   /    \    | | | |  |  | /  /          
                 / \  \   | |__| |  /  /\  \   | |_| |  |  |/  /          
                |  |  |   |  __  | /  /__\  \  |    /   |      \           
                |  |  |   | |  | | |   __   |  |    \   |  |\   \          
                \     /   | |  | | |  |  |  |  | |\  \  |  | \   \       
                 \___/    |_|  |_| |__|  |__|  |_| \__\ |__|  \__/        
                                                                              
                      - O R C A' S   B I G   F R I E N D -                    
                                      &                                       
                       - I N T E G R A L  F E E D E R -                       
                                                                              
 v1 FN, 2020, v2 2021                                                         
------------------------------------------------------------------------------


Reading SHARK input file /scratch/allen/tmpyp4_amber_gaff2/conf1/conf1/Conf159.orca.SHARKINP.tmp ... ok
----------------------
SHARK INTEGRAL PACKAGE
----------------------

Number of atoms                             ...     90
Number of basis functions                   ...   1230
Number of shells                            ...    738
Maximum angular momentum                    ...      2
Integral batch strategy                     ... SHARK/LIBINT Hybrid
RI-J (if used) integral strategy            ... SPLIT-RIJ (Revised 2003 algorithm where possible)
Printlevel                                  ...      1
Contraction scheme used                     ... PARTIAL GENERAL contraction
Coulomb Range Separation                    ... NOT USED
Exchange Range Separation                   ... NOT USED
Finite Nucleus Model                        ... NOT USED
Auxiliary Coulomb fitting basis             ... NOT available
Auxiliary J/K fitting basis                 ... NOT available
Auxiliary Correlation fitting basis         ... NOT available
Auxiliary 'external' fitting basis          ... NOT available
Integral threshold                          ...     2.500000e-11
Primitive cut-off                           ...     2.500000e-12
Primitive pair pre-selection threshold      ...     2.500000e-12

Calculating pre-screening integrals         ... done (  0.1 sec) Dimension = 738
Calculating pre-screening integrals (ORCA)  ... done (  0.3 sec) Dimension = 426
Organizing shell pair data                  ... done (  0.7 sec)
Shell pair information
Total number of shell pairs                 ...    272691
Shell pairs after pre-screening             ...     71694
Total number of primitive shell pairs       ...    422091
Primitive shell pairs kept                  ...     92582
          la=0 lb=0:  29426 shell pairs
          la=1 lb=0:  26022 shell pairs
          la=1 lb=1:   4705 shell pairs
          la=2 lb=0:   7890 shell pairs
          la=2 lb=1:   3122 shell pairs
          la=2 lb=2:    529 shell pairs

Calculating one electron integrals          ... done (  0.2 sec)
Calculating Nuclear repulsion               ... done (  0.0 sec) ENN=   6233.032424532771 Eh

SHARK setup successfully completed in   2.5 seconds

Maximum memory used throughout the entire GTOINT-calculation: 99.1 MB


           ************************************************************
           *        Program running with 16 parallel MPI-processes    *
           *              working on a common directory               *
           ************************************************************
-------------------------------------------------------------------------------
                                 ORCA SCF
-------------------------------------------------------------------------------

------------
SCF SETTINGS
------------
Hamiltonian:
 Ab initio Hamiltonian  Method          .... Hartree-Fock(GTOs)


General Settings:
 Integral files         IntName         .... /scratch/allen/tmpyp4_amber_gaff2/conf1/conf1/Conf159.orca
 Hartree-Fock type      HFTyp           .... RHF
 Total Charge           Charge          ....    0
 Multiplicity           Mult            ....    1
 Number of Electrons    NEL             ....  358
 Basis Dimension        Dim             ....  918
 Nuclear Repulsion      ENuc            ....   6233.0324245328 Eh

Convergence Acceleration:
 DIIS                   CNVDIIS         .... on
   Start iteration      DIISMaxIt       ....    12
   Startup error        DIISStart       ....  0.200000
   # of expansion vecs  DIISMaxEq       ....     5
   Bias factor          DIISBfac        ....   1.050
   Max. coefficient     DIISMaxC        ....  10.000
 Trust-Rad. Augm. Hess. CNVTRAH         .... auto
   Auto Start mean grad. ratio tolernc. ....  1.125000
   Auto Start start iteration           ....    20
   Auto Start num. interpolation iter.  ....    10
   Max. Number of Micro iterations      ....    16
   Max. Number of Macro iterations      .... Maxiter - #DIIS iter
   Number of Davidson start vectors     ....     2
   Converg. threshold I  (grad. norm)   ....   1.000e-05
   Converg. threshold II (energy diff.) ....   1.000e-08
   Grad. Scal. Fac. for Micro threshold ....   0.100
   Minimum threshold for Micro iter.    ....   0.010
   NR start threshold (gradient norm)   ....   0.001
   Initial trust radius                 ....   0.400
   Minimum AH scaling param. (alpha)    ....   1.000
   Maximum AH scaling param. (alpha)    .... 1000.000
   Orbital update algorithm             .... Taylor
   White noise on init. David. guess    .... on
   Maximum white noise                  ....   0.010
   Quad. conv. algorithm                .... NR
 SOSCF                  CNVSOSCF        .... on
   Start iteration      SOSCFMaxIt      ....   150
   Startup grad/error   SOSCFStart      ....  0.003300
 Level Shifting         CNVShift        .... on
   Level shift para.    LevelShift      ....    0.2500
   Turn off err/grad.   ShiftErr        ....    0.0010
 Zerner damping         CNVZerner       .... off
 Static damping         CNVDamp         .... on
   Fraction old density DampFac         ....    0.7000
   Max. Damping (<1)    DampMax         ....    0.9800
   Min. Damping (>=0)   DampMin         ....    0.0000
   Turn off err/grad.   DampErr         ....    0.1000
 Fernandez-Rico         CNVRico         .... off

SCF Procedure:
 Maximum # iterations   MaxIter         ....   125
 SCF integral mode      SCFMode         .... Direct
   Integral package                     .... SHARK and LIBINT hybrid scheme
 Reset frequency        DirectResetFreq ....    20
 Integral Threshold     Thresh          ....  2.500e-11 Eh
 Primitive CutOff       TCut            ....  2.500e-12 Eh

Convergence Tolerance:
 Convergence Check Mode ConvCheckMode   .... Total+1el-Energy
 Convergence forced     ConvForced      .... 1
 Energy Change          TolE            ....  1.000e-08 Eh
 1-El. energy change                    ....  1.000e-05 Eh
 Orbital Gradient       TolG            ....  1.000e-05
 Orbital Rotation angle TolX            ....  1.000e-05
 DIIS Error             TolErr          ....  5.000e-07


Diagonalization of the overlap matrix:
Smallest eigenvalue                        ... 2.028e-04
Time for diagonalization                   ...    0.473 sec
Threshold for overlap eigenvalues          ... 1.000e-08
Number of eigenvalues below threshold      ... 0
Time for construction of square roots      ...    0.268 sec
Total time needed                          ...    0.748 sec

Time for model grid setup =    1.291 sec

------------------------------
INITIAL GUESS: MODEL POTENTIAL
------------------------------
Loading Hartree-Fock densities                     ... done
Calculating cut-offs                               ... done
Initializing the effective Hamiltonian             ... done
Setting up the integral package (SHARK)            ... done
Starting the Coulomb interaction                   ... done (   1.5 sec)
Reading the grid                                   ... done
Mapping shells                                     ... done
Starting the XC term evaluation                    ... done (   0.2 sec)
Transforming the Hamiltonian                       ... done (   0.3 sec)
Diagonalizing the Hamiltonian                      ... done (   0.4 sec)
Back transforming the eigenvectors                 ... done (   0.1 sec)
Now organizing SCF variables                       ... done
                      ------------------
                      INITIAL GUESS DONE (   3.8 sec)
                      ------------------
--------------
SCF ITERATIONS
--------------
ITER       Energy         Delta-E        Max-DP      RMS-DP      [F,P]     Damp
               ***  Starting incremental Fock matrix formation  ***
  0  -2121.6707159371   0.000000000000 0.08356346  0.00123377  0.2315811 0.7000
  1  -2122.3193089748  -0.648593037662 0.06295299  0.00100369  0.1436108 0.7000
                               ***Turning on DIIS***
  2  -2122.7232610504  -0.403952075576 0.14631074  0.00228164  0.0802791 0.0000
  3  -2118.0128892672   4.710371783211 0.03964387  0.00067377  0.0436206 0.0000
  4  -2123.4093352135  -5.396445946362 0.01241134  0.00022606  0.0088141 0.0000
  5  -2123.5543147786  -0.144979565079 0.00602291  0.00013214  0.0049186 0.0000
  6  -2123.5385568246   0.015757954019 0.00367624  0.00008481  0.0021276 0.0000
  7  -2123.6331529468  -0.094596122211 0.00315466  0.00006697  0.0016093 0.0000
  8  -2123.6417277790  -0.008574832173 0.00332930  0.00006378  0.0015016 0.0000
  9  -2123.6132276107   0.028500168301 0.00266003  0.00004514  0.0012055 0.0000
 10  -2123.6217452804  -0.008517669738 0.00535972  0.00009492  0.0009382 0.0000
                      *** Initiating the SOSCF procedure ***
                           *** Shutting down DIIS ***
                      *** Re-Reading the Fockian *** 
                      *** Removing any level shift *** 
ITER      Energy       Delta-E        Grad      Rot      Max-DP    RMS-DP
 11  -2123.51465275   0.1070925254  0.000176  0.000176  0.000235  0.000005
               *** Restarting incremental Fock matrix formation ***
 12  -2123.58048773  -0.0658349794  0.000868  0.006465  0.001459  0.000035
 13  -2123.58059781  -0.0001100781  0.001085  0.032089  0.006736  0.000138
 14  -2123.58078433  -0.0001865174  0.000365  0.001549  0.000595  0.000012
 15  -2123.58079943  -0.0000150962  0.000147  0.001807  0.000584  0.000014
 16  -2123.58080683  -0.0000074008  0.000149  0.002392  0.000465  0.000009
 17  -2123.58080927  -0.0000024419  0.000111  0.001724  0.000282  0.000006
 18  -2123.58081039  -0.0000011242  0.000059  0.000486  0.000234  0.000003
 19  -2123.58081092  -0.0000005282  0.000040  0.000608  0.000169  0.000003
 20  -2123.58081114  -0.0000002225  0.000019  0.000368  0.000090  0.000002
 21  -2123.58081124  -0.0000000930  0.000018  0.000485  0.000102  0.000002
 22  -2123.58081131  -0.0000000780  0.000016  0.000499  0.000091  0.000002
 23  -2123.58081137  -0.0000000527  0.000009  0.000329  0.000062  0.000001
 24  -2123.58081140  -0.0000000307  0.000005  0.000292  0.000046  0.000001
 25  -2123.58081142  -0.0000000235  0.000005  0.000161  0.000028  0.000001
 26  -2123.58081144  -0.0000000149  0.000004  0.000139  0.000023  0.000001
 27  -2123.58081145  -0.0000000103  0.000003  0.000113  0.000021  0.000000
                  ***Gradient check signals convergence***
              ***Rediagonalizing the Fockian in SOSCF/NRSCF***

               *****************************************************
               *                     SUCCESS                       *
               *           SCF CONVERGED AFTER  28 CYCLES          *
               *****************************************************


----------------
TOTAL SCF ENERGY
----------------

Total Energy       :        -2123.58081145 Eh          -57785.57164 eV

Components:
Nuclear Repulsion  :         6233.03242453 Eh          169609.43505 eV
Electronic Energy  :        -8356.61323598 Eh         -227395.00669 eV
One Electron Energy:       -15306.74814521 Eh         -416517.79239 eV
Two Electron Energy:         6950.13490922 Eh          189122.78570 eV

Virial components:
Potential Energy   :        -4245.88195003 Eh         -115536.32161 eV
Kinetic Energy     :         2122.30113858 Eh           57750.74997 eV
Virial Ratio       :            2.00060296


---------------
SCF CONVERGENCE
---------------

  Last Energy change         ...   -4.8458e-09  Tolerance :   1.0000e-08
  Last MAX-Density change    ...    1.1635e-05  Tolerance :   1.0000e-07
  Last RMS-Density change    ...    2.4333e-07  Tolerance :   5.0000e-09
  Last Orbital Gradient      ...    1.9310e-06  Tolerance :   1.0000e-05
  Last Orbital Rotation      ...    7.0050e-05  Tolerance :   1.0000e-05

             **** THE GBW FILE WAS UPDATED (/scratch/allen/tmpyp4_amber_gaff2/conf1/conf1/Conf159.orca.gbw) ****
             **** DENSITY /scratch/allen/tmpyp4_amber_gaff2/conf1/conf1/Conf159.orca.scfp WAS UPDATED ****
             **** ENERGY FILE WAS UPDATED (/scratch/allen/tmpyp4_amber_gaff2/conf1/conf1/Conf159.orca.en.tmp) ****
             **** THE GBW FILE WAS UPDATED (/scratch/allen/tmpyp4_amber_gaff2/conf1/conf1/Conf159.orca.gbw) ****
             **** DENSITY /scratch/allen/tmpyp4_amber_gaff2/conf1/conf1/Conf159.orca.scfp WAS UPDATED ****
----------------
ORBITAL ENERGIES
----------------

  NO   OCC          E(Eh)            E(eV) 
   0   2.0000     -15.677603      -426.6093 
   1   2.0000     -15.636448      -425.4894 
   2   2.0000     -15.629490      -425.3000 
   3   2.0000     -15.587756      -424.1644 
   4   2.0000     -15.525662      -422.4747 
   5   2.0000     -15.515622      -422.2015 
   6   2.0000     -15.452891      -420.4945 
   7   2.0000     -15.441601      -420.1873 
   8   2.0000     -11.327942      -308.2490 
   9   2.0000     -11.326580      -308.2119 
  10   2.0000     -11.326158      -308.2004 
  11   2.0000     -11.300868      -307.5122 
  12   2.0000     -11.296889      -307.4040 
  13   2.0000     -11.294950      -307.3512 
  14   2.0000     -11.289085      -307.1916 
  15   2.0000     -11.288925      -307.1873 
  16   2.0000     -11.284672      -307.0715 
  17   2.0000     -11.280022      -306.9450 
  18   2.0000     -11.270647      -306.6899 
  19   2.0000     -11.261875      -306.4512 
  20   2.0000     -11.260910      -306.4249 
  21   2.0000     -11.252687      -306.2012 
  22   2.0000     -11.251050      -306.1566 
  23   2.0000     -11.240149      -305.8600 
  24   2.0000     -11.234345      -305.7021 
  25   2.0000     -11.233061      -305.6671 
  26   2.0000     -11.232446      -305.6504 
  27   2.0000     -11.228013      -305.5298 
  28   2.0000     -11.227686      -305.5209 
  29   2.0000     -11.211678      -305.0853 
  30   2.0000     -11.210169      -305.0442 
  31   2.0000     -11.195837      -304.6542 
  32   2.0000     -11.190707      -304.5146 
  33   2.0000     -11.189736      -304.4882 
  34   2.0000     -11.188245      -304.4476 
  35   2.0000     -11.186604      -304.4030 
  36   2.0000     -11.185374      -304.3695 
  37   2.0000     -11.184331      -304.3411 
  38   2.0000     -11.184032      -304.3330 
  39   2.0000     -11.174792      -304.0816 
  40   2.0000     -11.174115      -304.0631 
  41   2.0000     -11.169372      -303.9341 
  42   2.0000     -11.169073      -303.9259 
  43   2.0000     -11.160644      -303.6966 
  44   2.0000     -11.160155      -303.6833 
  45   2.0000     -11.158477      -303.6376 
  46   2.0000     -11.155782      -303.5643 
  47   2.0000     -11.154730      -303.5356 
  48   2.0000     -11.146230      -303.3043 
  49   2.0000     -11.136429      -303.0376 
  50   2.0000     -11.131680      -302.9084 
  51   2.0000     -11.120856      -302.6139 
  52   2.0000      -1.358519       -36.9672 
  53   2.0000      -1.323367       -36.0107 
  54   2.0000      -1.317601       -35.8538 
  55   2.0000      -1.281638       -34.8751 
  56   2.0000      -1.226693       -33.3800 
  57   2.0000      -1.209934       -32.9240 
  58   2.0000      -1.172145       -31.8957 
  59   2.0000      -1.151943       -31.3460 
  60   2.0000      -1.142086       -31.0777 
  61   2.0000      -1.111980       -30.2585 
  62   2.0000      -1.107354       -30.1326 
  63   2.0000      -1.080358       -29.3980 
  64   2.0000      -1.078088       -29.3363 
  65   2.0000      -1.047476       -28.5033 
  66   2.0000      -1.042355       -28.3639 
  67   2.0000      -1.040186       -28.3049 
  68   2.0000      -1.015321       -27.6283 
  69   2.0000      -1.011964       -27.5369 
  70   2.0000      -1.008824       -27.4515 
  71   2.0000      -0.994024       -27.0488 
  72   2.0000      -0.985900       -26.8277 
  73   2.0000      -0.981335       -26.7035 
  74   2.0000      -0.971975       -26.4488 
  75   2.0000      -0.960947       -26.1487 
  76   2.0000      -0.953647       -25.9500 
  77   2.0000      -0.945699       -25.7338 
  78   2.0000      -0.935103       -25.4454 
  79   2.0000      -0.917945       -24.9786 
  80   2.0000      -0.908958       -24.7340 
  81   2.0000      -0.895185       -24.3592 
  82   2.0000      -0.875790       -23.8315 
  83   2.0000      -0.873589       -23.7716 
  84   2.0000      -0.868619       -23.6363 
  85   2.0000      -0.857389       -23.3307 
  86   2.0000      -0.839074       -22.8324 
  87   2.0000      -0.836557       -22.7639 
  88   2.0000      -0.824884       -22.4462 
  89   2.0000      -0.797282       -21.6951 
  90   2.0000      -0.790054       -21.4985 
  91   2.0000      -0.752859       -20.4863 
  92   2.0000      -0.746802       -20.3215 
  93   2.0000      -0.733847       -19.9690 
  94   2.0000      -0.725308       -19.7366 
  95   2.0000      -0.722630       -19.6638 
  96   2.0000      -0.716945       -19.5091 
  97   2.0000      -0.713799       -19.4235 
  98   2.0000      -0.708269       -19.2730 
  99   2.0000      -0.697917       -18.9913 
 100   2.0000      -0.696293       -18.9471 
 101   2.0000      -0.685324       -18.6486 
 102   2.0000      -0.682812       -18.5803 
 103   2.0000      -0.680243       -18.5104 
 104   2.0000      -0.679547       -18.4914 
 105   2.0000      -0.672897       -18.3104 
 106   2.0000      -0.670727       -18.2514 
 107   2.0000      -0.660859       -17.9829 
 108   2.0000      -0.655548       -17.8384 
 109   2.0000      -0.654495       -17.8097 
 110   2.0000      -0.649911       -17.6850 
 111   2.0000      -0.644568       -17.5396 
 112   2.0000      -0.644022       -17.5247 
 113   2.0000      -0.638571       -17.3764 
 114   2.0000      -0.636919       -17.3315 
 115   2.0000      -0.626962       -17.0605 
 116   2.0000      -0.622078       -16.9276 
 117   2.0000      -0.619284       -16.8516 
 118   2.0000      -0.614362       -16.7176 
 119   2.0000      -0.613301       -16.6888 
 120   2.0000      -0.610108       -16.6019 
 121   2.0000      -0.609581       -16.5875 
 122   2.0000      -0.599543       -16.3144 
 123   2.0000      -0.586664       -15.9639 
 124   2.0000      -0.582980       -15.8637 
 125   2.0000      -0.580499       -15.7962 
 126   2.0000      -0.578893       -15.7525 
 127   2.0000      -0.573501       -15.6058 
 128   2.0000      -0.568952       -15.4820 
 129   2.0000      -0.559195       -15.2165 
 130   2.0000      -0.551513       -15.0074 
 131   2.0000      -0.547708       -14.9039 
 132   2.0000      -0.543296       -14.7838 
 133   2.0000      -0.542337       -14.7578 
 134   2.0000      -0.539614       -14.6836 
 135   2.0000      -0.534643       -14.5484 
 136   2.0000      -0.528857       -14.3909 
 137   2.0000      -0.520223       -14.1560 
 138   2.0000      -0.518437       -14.1074 
 139   2.0000      -0.514249       -13.9934 
 140   2.0000      -0.511750       -13.9254 
 141   2.0000      -0.510724       -13.8975 
 142   2.0000      -0.510176       -13.8826 
 143   2.0000      -0.504202       -13.7200 
 144   2.0000      -0.500445       -13.6178 
 145   2.0000      -0.495836       -13.4924 
 146   2.0000      -0.492563       -13.4033 
 147   2.0000      -0.482357       -13.1256 
 148   2.0000      -0.477761       -13.0005 
 149   2.0000      -0.467194       -12.7130 
 150   2.0000      -0.466066       -12.6823 
 151   2.0000      -0.457019       -12.4361 
 152   2.0000      -0.450581       -12.2609 
 153   2.0000      -0.445770       -12.1300 
 154   2.0000      -0.440630       -11.9901 
 155   2.0000      -0.427946       -11.6450 
 156   2.0000      -0.419022       -11.4022 
 157   2.0000      -0.411085       -11.1862 
 158   2.0000      -0.407560       -11.0903 
 159   2.0000      -0.387309       -10.5392 
 160   2.0000      -0.386202       -10.5091 
 161   2.0000      -0.378041       -10.2870 
 162   2.0000      -0.371387       -10.1060 
 163   2.0000      -0.358383        -9.7521 
 164   2.0000      -0.354255        -9.6398 
 165   2.0000      -0.340834        -9.2746 
 166   2.0000      -0.337880        -9.1942 
 167   2.0000      -0.326237        -8.8773 
 168   2.0000      -0.321616        -8.7516 
 169   2.0000      -0.305847        -8.3225 
 170   2.0000      -0.299340        -8.1455 
 171   2.0000      -0.285117        -7.7584 
 172   2.0000      -0.280073        -7.6212 
 173   2.0000      -0.262741        -7.1496 
 174   2.0000      -0.242322        -6.5939 
 175   2.0000      -0.190122        -5.1735 
 176   2.0000      -0.180704        -4.9172 
 177   2.0000      -0.078192        -2.1277 
 178   2.0000      -0.059113        -1.6086 
 179   0.0000       0.028187         0.7670 
 180   0.0000       0.065453         1.7811 
 181   0.0000       0.090798         2.4707 
 182   0.0000       0.107592         2.9277 
 183   0.0000       0.112709         3.0670 
 184   0.0000       0.135489         3.6868 
 185   0.0000       0.140766         3.8304 
 186   0.0000       0.142075         3.8661 
 187   0.0000       0.163654         4.4533 
 188   0.0000       0.164577         4.4784 
 189   0.0000       0.166912         4.5419 
 190   0.0000       0.172539         4.6950 
 191   0.0000       0.181499         4.9388 
 192   0.0000       0.184922         5.0320 
 193   0.0000       0.188773         5.1368 
 194   0.0000       0.203472         5.5368 
 195   0.0000       0.206767         5.6264 
 196   0.0000       0.206916         5.6305 
 197   0.0000       0.210004         5.7145 
 198   0.0000       0.217575         5.9205 
 199   0.0000       0.228543         6.2190 
 200   0.0000       0.233504         6.3540 
 201   0.0000       0.234771         6.3884 
 202   0.0000       0.238091         6.4788 
 203   0.0000       0.240720         6.5503 
 204   0.0000       0.246646         6.7116 
 205   0.0000       0.255335         6.9480 
 206   0.0000       0.255932         6.9643 
 207   0.0000       0.257861         7.0168 
 208   0.0000       0.259794         7.0693 
 209   0.0000       0.260434         7.0868 
 210   0.0000       0.264032         7.1847 
 211   0.0000       0.266965         7.2645 
 212   0.0000       0.269884         7.3439 
 213   0.0000       0.271166         7.3788 
 214   0.0000       0.272552         7.4165 
 215   0.0000       0.276790         7.5318 
 216   0.0000       0.278606         7.5813 
 217   0.0000       0.280432         7.6309 
 218   0.0000       0.285325         7.7641 
 219   0.0000       0.288298         7.8450 
 220   0.0000       0.289168         7.8687 
 221   0.0000       0.292397         7.9565 
 222   0.0000       0.294187         8.0052 
 223   0.0000       0.295398         8.0382 
 224   0.0000       0.298778         8.1302 
 225   0.0000       0.300356         8.1731 
 226   0.0000       0.304601         8.2886 
 227   0.0000       0.309112         8.4114 
 228   0.0000       0.310542         8.4503 
 229   0.0000       0.324064         8.8182 
 230   0.0000       0.327629         8.9152 
 231   0.0000       0.333154         9.0656 
 232   0.0000       0.341124         9.2825 
 233   0.0000       0.346960         9.4413 
 234   0.0000       0.352452         9.5907 
 235   0.0000       0.357678         9.7329 
 236   0.0000       0.375908        10.2290 
 237   0.0000       0.385761        10.4971 
 238   0.0000       0.392332        10.6759 
 239   0.0000       0.396177        10.7805 
 240   0.0000       0.401239        10.9183 
 241   0.0000       0.409146        11.1334 
 242   0.0000       0.412603        11.2275 
 243   0.0000       0.419374        11.4118 
 244   0.0000       0.427788        11.6407 
 245   0.0000       0.434403        11.8207 
 246   0.0000       0.437138        11.8951 
 247   0.0000       0.439453        11.9581 
 248   0.0000       0.442691        12.0462 
 249   0.0000       0.448340        12.2000 
 250   0.0000       0.459150        12.4941 
 251   0.0000       0.464472        12.6389 
 252   0.0000       0.469706        12.7813 
 253   0.0000       0.470384        12.7998 
 254   0.0000       0.472549        12.8587 
 255   0.0000       0.475464        12.9380 
 256   0.0000       0.477061        12.9815 
 257   0.0000       0.480273        13.0689 
 258   0.0000       0.487284        13.2597 
 259   0.0000       0.496339        13.5061 
 260   0.0000       0.503728        13.7071 
 261   0.0000       0.504260        13.7216 
 262   0.0000       0.507557        13.8113 
 263   0.0000       0.510064        13.8795 
 264   0.0000       0.515119        14.0171 
 265   0.0000       0.518667        14.1137 
 266   0.0000       0.524985        14.2856 
 267   0.0000       0.528334        14.3767 
 268   0.0000       0.534236        14.5373 
 269   0.0000       0.537028        14.6133 
 270   0.0000       0.540007        14.6943 
 271   0.0000       0.545900        14.8547 
 272   0.0000       0.557376        15.1670 
 273   0.0000       0.558431        15.1957 
 274   0.0000       0.561255        15.2725 
 275   0.0000       0.565565        15.3898 
 276   0.0000       0.569923        15.5084 
 277   0.0000       0.572469        15.5777 
 278   0.0000       0.578143        15.7321 
 279   0.0000       0.586583        15.9617 
 280   0.0000       0.590025        16.0554 
 281   0.0000       0.592468        16.1219 
 282   0.0000       0.594858        16.1869 
 283   0.0000       0.595728        16.2106 
 284   0.0000       0.596594        16.2342 
 285   0.0000       0.598685        16.2910 
 286   0.0000       0.607331        16.5263 
 287   0.0000       0.611450        16.6384 
 288   0.0000       0.618927        16.8419 
 289   0.0000       0.623850        16.9758 
 290   0.0000       0.626082        17.0366 
 291   0.0000       0.630739        17.1633 
 292   0.0000       0.634587        17.2680 
 293   0.0000       0.639074        17.3901 
 294   0.0000       0.644354        17.5338 
 295   0.0000       0.649129        17.6637 
 296   0.0000       0.653204        17.7746 
 297   0.0000       0.655702        17.8426 
 298   0.0000       0.662514        18.0279 
 299   0.0000       0.666382        18.1332 
 300   0.0000       0.671465        18.2715 
 301   0.0000       0.674376        18.3507 
 302   0.0000       0.677509        18.4359 
 303   0.0000       0.678108        18.4523 
 304   0.0000       0.680925        18.5289 
 305   0.0000       0.684599        18.6289 
 306   0.0000       0.689264        18.7558 
 307   0.0000       0.690933        18.8012 
 308   0.0000       0.695825        18.9344 
 309   0.0000       0.698577        19.0093 
 310   0.0000       0.701570        19.0907 
 311   0.0000       0.704564        19.1722 
 312   0.0000       0.708129        19.2692 
 313   0.0000       0.710392        19.3307 
 314   0.0000       0.711410        19.3584 
 315   0.0000       0.714765        19.4498 
 316   0.0000       0.716455        19.4957 
 317   0.0000       0.719095        19.5676 
 318   0.0000       0.721783        19.6407 
 319   0.0000       0.725416        19.7396 
 320   0.0000       0.728058        19.8115 
 321   0.0000       0.730686        19.8830 
 322   0.0000       0.732533        19.9332 
 323   0.0000       0.732779        19.9399 
 324   0.0000       0.734758        19.9938 
 325   0.0000       0.740305        20.1447 
 326   0.0000       0.744765        20.2661 
 327   0.0000       0.747472        20.3397 
 328   0.0000       0.750316        20.4171 
 329   0.0000       0.752924        20.4881 
 330   0.0000       0.758194        20.6315 
 331   0.0000       0.759712        20.6728 
 332   0.0000       0.760756        20.7012 
 333   0.0000       0.766029        20.8447 
 334   0.0000       0.767410        20.8823 
 335   0.0000       0.771782        21.0013 
 336   0.0000       0.776899        21.1405 
 337   0.0000       0.782302        21.2875 
 338   0.0000       0.785265        21.3681 
 339   0.0000       0.787995        21.4424 
 340   0.0000       0.793915        21.6035 
 341   0.0000       0.794125        21.6092 
 342   0.0000       0.796173        21.6650 
 343   0.0000       0.802563        21.8389 
 344   0.0000       0.805042        21.9063 
 345   0.0000       0.806018        21.9329 
 346   0.0000       0.808075        21.9888 
 347   0.0000       0.812405        22.1067 
 348   0.0000       0.816412        22.2157 
 349   0.0000       0.816953        22.2304 
 350   0.0000       0.819197        22.2915 
 351   0.0000       0.819757        22.3067 
 352   0.0000       0.822066        22.3695 
 353   0.0000       0.824178        22.4270 
 354   0.0000       0.829051        22.5596 
 355   0.0000       0.832571        22.6554 
 356   0.0000       0.835472        22.7343 
 357   0.0000       0.835990        22.7485 
 358   0.0000       0.836561        22.7640 
 359   0.0000       0.838912        22.8280 
 360   0.0000       0.842423        22.9235 
 361   0.0000       0.843841        22.9621 
 362   0.0000       0.844965        22.9927 
 363   0.0000       0.846072        23.0228 
 364   0.0000       0.849273        23.1099 
 365   0.0000       0.853335        23.2204 
 366   0.0000       0.858392        23.3580 
 367   0.0000       0.862985        23.4830 
 368   0.0000       0.864374        23.5208 
 369   0.0000       0.865288        23.5457 
 370   0.0000       0.870557        23.6891 
 371   0.0000       0.871151        23.7052 
 372   0.0000       0.874737        23.8028 
 373   0.0000       0.878729        23.9114 
 374   0.0000       0.879244        23.9254 
 375   0.0000       0.882635        24.0177 
 376   0.0000       0.886406        24.1203 
 377   0.0000       0.889880        24.2149 
 378   0.0000       0.892082        24.2748 
 379   0.0000       0.893469        24.3125 
 380   0.0000       0.896311        24.3899 
 381   0.0000       0.898872        24.4596 
 382   0.0000       0.899642        24.4805 
 383   0.0000       0.901669        24.5357 
 384   0.0000       0.904639        24.6165 
 385   0.0000       0.906181        24.6584 
 386   0.0000       0.908549        24.7229 
 387   0.0000       0.909549        24.7501 
 388   0.0000       0.913297        24.8521 
 389   0.0000       0.915172        24.9031 
 390   0.0000       0.920514        25.0485 
 391   0.0000       0.925210        25.1762 
 392   0.0000       0.926425        25.2093 
 393   0.0000       0.927715        25.2444 
 394   0.0000       0.928493        25.2656 
 395   0.0000       0.932091        25.3635 
 396   0.0000       0.933189        25.3934 
 397   0.0000       0.936010        25.4701 
 398   0.0000       0.942401        25.6440 
 399   0.0000       0.944287        25.6954 
 400   0.0000       0.946691        25.7608 
 401   0.0000       0.952360        25.9150 
 402   0.0000       0.953487        25.9457 
 403   0.0000       0.954238        25.9661 
 404   0.0000       0.960456        26.1353 
 405   0.0000       0.965138        26.2627 
 406   0.0000       0.967476        26.3264 
 407   0.0000       0.974484        26.5171 
 408   0.0000       0.978296        26.6208 
 409   0.0000       0.980880        26.6911 
 410   0.0000       0.982649        26.7392 
 411   0.0000       0.985943        26.8289 
 412   0.0000       0.993132        27.0245 
 413   0.0000       1.001908        27.2633 
 414   0.0000       1.003680        27.3115 
 415   0.0000       1.009132        27.4599 
 416   0.0000       1.011518        27.5248 
 417   0.0000       1.015586        27.6355 
 418   0.0000       1.019098        27.7311 
 419   0.0000       1.025838        27.9145 
 420   0.0000       1.031833        28.0776 
 421   0.0000       1.034659        28.1545 
 422   0.0000       1.045681        28.4544 
 423   0.0000       1.047924        28.5155 
 424   0.0000       1.051733        28.6191 
 425   0.0000       1.063001        28.9257 
 426   0.0000       1.069419        29.1004 
 427   0.0000       1.072090        29.1730 
 428   0.0000       1.077932        29.3320 
 429   0.0000       1.080386        29.3988 
 430   0.0000       1.083122        29.4732 
 431   0.0000       1.084465        29.5098 
 432   0.0000       1.092378        29.7251 
 433   0.0000       1.096553        29.8387 
 434   0.0000       1.098147        29.8821 
 435   0.0000       1.105204        30.0741 
 436   0.0000       1.107475        30.1359 
 437   0.0000       1.111712        30.2512 
 438   0.0000       1.118090        30.4248 
 439   0.0000       1.120668        30.4949 
 440   0.0000       1.121224        30.5100 
 441   0.0000       1.123130        30.5619 
 442   0.0000       1.126365        30.6499 
 443   0.0000       1.129896        30.7460 
 444   0.0000       1.132628        30.8204 
 445   0.0000       1.134947        30.8835 
 446   0.0000       1.140876        31.0448 
 447   0.0000       1.148852        31.2619 
 448   0.0000       1.149610        31.2825 
 449   0.0000       1.153851        31.3979 
 450   0.0000       1.155659        31.4471 
 451   0.0000       1.156972        31.4828 
 452   0.0000       1.162866        31.6432 
 453   0.0000       1.166200        31.7339 
 454   0.0000       1.168285        31.7906 
 455   0.0000       1.173030        31.9198 
 456   0.0000       1.175286        31.9812 
 457   0.0000       1.183211        32.1968 
 458   0.0000       1.185878        32.2694 
 459   0.0000       1.194310        32.4988 
 460   0.0000       1.197882        32.5960 
 461   0.0000       1.199359        32.6362 
 462   0.0000       1.201834        32.7036 
 463   0.0000       1.204480        32.7756 
 464   0.0000       1.207246        32.8508 
 465   0.0000       1.211657        32.9709 
 466   0.0000       1.214160        33.0390 
 467   0.0000       1.217652        33.1340 
 468   0.0000       1.225700        33.3530 
 469   0.0000       1.226264        33.3683 
 470   0.0000       1.230772        33.4910 
 471   0.0000       1.234792        33.6004 
 472   0.0000       1.235137        33.6098 
 473   0.0000       1.237557        33.6757 
 474   0.0000       1.241930        33.7946 
 475   0.0000       1.242913        33.8214 
 476   0.0000       1.248404        33.9708 
 477   0.0000       1.252649        34.0863 
 478   0.0000       1.254349        34.1326 
 479   0.0000       1.254575        34.1387 
 480   0.0000       1.259876        34.2830 
 481   0.0000       1.264317        34.4038 
 482   0.0000       1.271009        34.5859 
 483   0.0000       1.273282        34.6478 
 484   0.0000       1.274085        34.6696 
 485   0.0000       1.281018        34.8583 
 486   0.0000       1.283055        34.9137 
 487   0.0000       1.284011        34.9397 
 488   0.0000       1.290175        35.1075 
 489   0.0000       1.294449        35.2237 
 490   0.0000       1.296011        35.2663 
 491   0.0000       1.300001        35.3748 
 492   0.0000       1.301166        35.4065 
 493   0.0000       1.306408        35.5492 
 494   0.0000       1.310443        35.6590 
 495   0.0000       1.314611        35.7724 
 496   0.0000       1.318209        35.8703 
 497   0.0000       1.321062        35.9479 
 498   0.0000       1.324922        36.0530 
 499   0.0000       1.327251        36.1163 
 500   0.0000       1.329414        36.1752 
 501   0.0000       1.335875        36.3510 
 502   0.0000       1.341193        36.4957 
 503   0.0000       1.343194        36.5502 
 504   0.0000       1.346123        36.6299 
 505   0.0000       1.349502        36.7218 
 506   0.0000       1.351460        36.7751 
 507   0.0000       1.354938        36.8697 
 508   0.0000       1.358572        36.9686 
 509   0.0000       1.362621        37.0788 
[...]
      pz      :     0.022111  p :     0.079778
      px      :     0.043607
      py      :     0.014060
 77 H s       :     0.884718  s :     0.884718
      pz      :     0.047968  p :     0.079277
      px      :     0.015023
      py      :     0.016286
 78 H s       :     0.885117  s :     0.885117
      pz      :     0.025875  p :     0.079237
      px      :     0.020458
      py      :     0.032904
 79 H s       :     0.910431  s :     0.910431
      pz      :     0.021810  p :     0.086348
      px      :     0.021666
      py      :     0.042872
 80 H s       :     0.864784  s :     0.864784
      pz      :     0.039368  p :     0.084813
      px      :     0.030282
      py      :     0.015163
 81 H s       :     0.887045  s :     0.887045
      pz      :     0.037807  p :     0.084105
      px      :     0.016193
      py      :     0.030105
 82 H s       :     0.916202  s :     0.916202
      pz      :     0.021975  p :     0.086721
      px      :     0.031632
      py      :     0.033113
 83 H s       :     0.873785  s :     0.873785
      pz      :     0.039237  p :     0.084052
      px      :     0.015284
      py      :     0.029531
 84 H s       :     0.887069  s :     0.887069
      pz      :     0.035746  p :     0.083447
      px      :     0.031683
      py      :     0.016018
 85 H s       :     0.893189  s :     0.893189
      pz      :     0.022482  p :     0.079769
      px      :     0.014082
      py      :     0.043204
 86 H s       :     0.891230  s :     0.891230
      pz      :     0.024721  p :     0.078808
      px      :     0.032964
      py      :     0.021123
 87 H s       :     0.890050  s :     0.890050
      pz      :     0.047999  p :     0.078721
      px      :     0.015586
      py      :     0.015136
 88 H s       :     0.910675  s :     0.910675
      pz      :     0.021677  p :     0.087041
      px      :     0.042907
      py      :     0.022456
 89 H s       :     0.871264  s :     0.871264
      pz      :     0.037946  p :     0.083833
      px      :     0.030479
      py      :     0.015408


                      *****************************
                      * MAYER POPULATION ANALYSIS *
                      *****************************

  NA   - Mulliken gross atomic population
  ZA   - Total nuclear charge
  QA   - Mulliken gross atomic charge
  VA   - Mayer's total valence
  BVA  - Mayer's bonded valence
  FA   - Mayer's free valence

  ATOM       NA         ZA         QA         VA         BVA        FA
  0 C      5.7892     6.0000     0.2108     3.8420     3.8420     0.0000
  1 N      7.4565     7.0000    -0.4565     3.3327     3.3327    -0.0000
  2 C      6.0730     6.0000    -0.0730     3.9227     3.9227     0.0000
  3 N      7.3390     7.0000    -0.3390     3.4590     3.4590    -0.0000
  4 C      6.0576     6.0000    -0.0576     4.0659     4.0659    -0.0000
  5 N      7.5643     7.0000    -0.5643     3.0965     3.0965    -0.0000
  6 C      6.1233     6.0000    -0.1233     3.9756     3.9756    -0.0000
  7 N      7.3407     7.0000    -0.3407     3.4329     3.4329     0.0000
  8 C      5.7871     6.0000     0.2129     3.8467     3.8467    -0.0000
  9 N      7.5626     7.0000    -0.5626     3.0777     3.0777    -0.0000
 10 C      5.8811     6.0000     0.1189     3.9100     3.9100     0.0000
 11 N      7.4380     7.0000    -0.4380     3.3807     3.3807    -0.0000
 12 C      6.0718     6.0000    -0.0718     3.8756     3.8756    -0.0000
 13 N      7.4299     7.0000    -0.4299     3.4260     3.4260     0.0000
 14 C      5.7848     6.0000     0.2152     3.7874     3.7874    -0.0000
 15 N      7.4414     7.0000    -0.4414     3.3700     3.3700    -0.0000
 16 C      5.7685     6.0000     0.2315     3.7772     3.7772     0.0000
 17 C      6.1205     6.0000    -0.1205     3.9770     3.9770     0.0000
 18 C      6.1558     6.0000    -0.1558     3.7514     3.7514    -0.0000
 19 C      5.7966     6.0000     0.2034     3.8660     3.8660     0.0000
 20 C      5.7855     6.0000     0.2145     3.8286     3.8286    -0.0000
 21 C      6.0858     6.0000    -0.0858     3.8755     3.8755     0.0000
 22 C      6.0891     6.0000    -0.0891     3.9819     3.9819    -0.0000
 23 C      6.0401     6.0000    -0.0401     3.9923     3.9923    -0.0000
 24 C      5.8049     6.0000     0.1951     3.8212     3.8212     0.0000
 25 C      5.8857     6.0000     0.1143     3.8906     3.8906     0.0000
 26 C      6.0841     6.0000    -0.0841     3.9072     3.9072     0.0000
 27 C      5.7871     6.0000     0.2129     3.8614     3.8614    -0.0000
 28 C      6.0611     6.0000    -0.0611     3.9888     3.9888    -0.0000
 29 C      6.1819     6.0000    -0.1819     3.7464     3.7464    -0.0000
 30 C      5.7544     6.0000     0.2456     3.7987     3.7987    -0.0000
 31 C      5.7697     6.0000     0.2303     3.8179     3.8179    -0.0000
 32 C      6.0613     6.0000    -0.0613     3.9235     3.9235    -0.0000
 33 C      6.0614     6.0000    -0.0614     3.9719     3.9719     0.0000
 34 C      6.0501     6.0000    -0.0501     3.9841     3.9841     0.0000
 35 C      5.7737     6.0000     0.2263     3.8167     3.8167    -0.0000
 36 C      5.8915     6.0000     0.1085     3.8755     3.8755     0.0000
 37 C      6.0643     6.0000    -0.0643     3.9176     3.9176     0.0000
 38 C      5.7677     6.0000     0.2323     3.8020     3.8020    -0.0000
 39 C      6.0587     6.0000    -0.0587     3.9834     3.9834     0.0000
 40 C      6.1810     6.0000    -0.1810     3.7273     3.7273    -0.0000
 41 C      5.7755     6.0000     0.2245     3.8865     3.8865    -0.0000
 42 C      5.8030     6.0000     0.1970     3.8261     3.8261    -0.0000
 43 C      6.0727     6.0000    -0.0727     3.8999     3.8999    -0.0000
 44 C      6.0909     6.0000    -0.0909     3.9859     3.9859    -0.0000
 45 C      6.0613     6.0000    -0.0613     3.9921     3.9921     0.0000
 46 C      5.7899     6.0000     0.2101     3.8288     3.8288    -0.0000
 47 C      5.8844     6.0000     0.1156     3.8937     3.8937     0.0000
 48 C      6.0675     6.0000    -0.0675     3.9091     3.9091    -0.0000
 49 C      5.7621     6.0000     0.2379     3.8952     3.8952    -0.0000
 50 C      6.0466     6.0000    -0.0466     3.9905     3.9905    -0.0000
 51 C      6.1949     6.0000    -0.1949     3.7369     3.7369     0.0000
 52 H      0.9624     1.0000     0.0376     0.9861     0.9861    -0.0000
 53 H      1.0175     1.0000    -0.0175     0.9988     0.9988     0.0000
 54 H      0.9504     1.0000     0.0496     1.0173     1.0173    -0.0000
 55 H      0.9636     1.0000     0.0364     0.9866     0.9866     0.0000
 56 H      0.9510     1.0000     0.0490     0.9695     0.9695     0.0000
 57 H      0.9524     1.0000     0.0476     0.9823     0.9823    -0.0000
 58 H      0.9535     1.0000     0.0465     0.9849     0.9849     0.0000
 59 H      1.0007     1.0000    -0.0007     1.0022     1.0022    -0.0000
 60 H      0.9471     1.0000     0.0529     1.0212     1.0212    -0.0000
 61 H      0.8290     1.0000     0.1710     1.0420     1.0420    -0.0000
 62 H      0.8243     1.0000     0.1757     1.0436     1.0436    -0.0000
 63 H      0.9438     1.0000     0.0562     0.9852     0.9852    -0.0000
 64 H      1.0059     1.0000    -0.0059     0.9958     0.9958    -0.0000
 65 H      0.9529     1.0000     0.0471     1.0099     1.0099    -0.0000
 66 H      0.9437     1.0000     0.0563     0.9854     0.9854     0.0000
 67 H      0.9368     1.0000     0.0632     0.9720     0.9720    -0.0000
 68 H      0.9424     1.0000     0.0576     0.9868     0.9868     0.0000
 69 H      0.9430     1.0000     0.0570     0.9828     0.9828     0.0000
 70 H      1.0293     1.0000    -0.0293     0.9934     0.9934     0.0000
 71 H      0.9542     1.0000     0.0458     1.0059     1.0059     0.0000
 72 H      0.9292     1.0000     0.0708     0.9836     0.9836    -0.0000
 73 H      1.0081     1.0000    -0.0081     1.0008     1.0008    -0.0000
 74 H      0.9401     1.0000     0.0599     1.0102     1.0102    -0.0000
 75 H      0.9299     1.0000     0.0701     0.9840     0.9840     0.0000
 76 H      0.9255     1.0000     0.0745     0.9721     0.9721    -0.0000
 77 H      0.9324     1.0000     0.0676     0.9855     0.9855    -0.0000
 78 H      0.9332     1.0000     0.0668     0.9854     0.9854    -0.0000
 79 H      1.0160     1.0000    -0.0160     0.9977     0.9977     0.0000
 80 H      0.9394     1.0000     0.0606     1.0071     1.0071     0.0000
 81 H      0.9462     1.0000     0.0538     0.9857     0.9857    -0.0000
 82 H      1.0253     1.0000    -0.0253     0.9933     0.9933    -0.0000
 83 H      0.9589     1.0000     0.0411     1.0083     1.0083    -0.0000
 84 H      0.9466     1.0000     0.0534     0.9853     0.9853     0.0000
 85 H      0.9398     1.0000     0.0602     0.9716     0.9716     0.0000
 86 H      0.9449     1.0000     0.0551     0.9839     0.9839     0.0000
 87 H      0.9432     1.0000     0.0568     0.9856     0.9856     0.0000
 88 H      1.0147     1.0000    -0.0147     0.9967     0.9967     0.0000
 89 H      0.9533     1.0000     0.0467     1.0072     1.0072     0.0000

  Mayer bond orders larger than 0.100000
B(  0-C ,  1-N ) :   1.0875 B(  0-C , 17-C ) :   1.7156 B(  0-C , 52-H ) :   0.9649 
B(  1-N ,  8-C ) :   1.0928 B(  1-N , 10-C ) :   0.9787 B(  2-C , 12-C ) :   1.4969 
B(  2-C , 16-C ) :   1.3639 B(  2-C , 53-H ) :   0.9749 B(  3-N , 14-C ) :   1.2193 
B(  3-N , 16-C ) :   1.1879 B(  3-N , 61-H ) :   0.8993 B(  4-C ,  6-C ) :   1.2112 
B(  4-C , 17-C ) :   1.2118 B(  4-C , 18-C ) :   1.4554 B(  5-N , 19-C ) :   1.4550 
B(  5-N , 27-C ) :   1.3761 B(  6-C ,  8-C ) :   1.7127 B(  6-C , 54-H ) :   0.9383 
B(  7-N , 30-C ) :   1.1943 B(  7-N , 38-C ) :   1.1911 B(  7-N , 62-H ) :   0.8966 
B(  8-C , 55-H ) :   0.9659 B(  9-N , 41-C ) :   1.3923 B(  9-N , 49-C ) :   1.4279 
B( 10-C , 56-H ) :   0.9771 B( 10-C , 57-H ) :   0.9832 B( 10-C , 58-H ) :   0.9834 
B( 11-N , 20-C ) :   1.1324 B( 11-N , 24-C ) :   1.1092 B( 11-N , 25-C ) :   0.9592 
B( 12-C , 14-C ) :   1.3584 B( 12-C , 59-H ) :   0.9653 B( 13-N , 31-C ) :   1.1610 
B( 13-N , 35-C ) :   1.1569 B( 13-N , 36-C ) :   0.9422 B( 14-C , 18-C ) :   1.1220 
B( 15-N , 42-C ) :   1.1066 B( 15-N , 46-C ) :   1.1222 B( 15-N , 47-C ) :   0.9621 
B( 16-C , 51-C ) :   1.1686 B( 17-C , 60-H ) :   0.9405 B( 18-C , 19-C ) :   1.1237 
B( 19-C , 21-C ) :   1.2487 B( 20-C , 28-C ) :   1.6265 B( 20-C , 63-H ) :   0.9702 
B( 21-C , 26-C ) :   1.6002 B( 21-C , 64-H ) :   0.9652 B( 22-C , 23-C ) :   1.2910 
B( 22-C , 28-C ) :   1.2661 B( 22-C , 29-C ) :   1.2217 B( 23-C , 24-C ) :   1.6179 
B( 23-C , 65-H ) :   0.9704 B( 24-C , 66-H ) :   0.9695 B( 25-C , 67-H ) :   0.9760 
B( 25-C , 68-H ) :   0.9828 B( 25-C , 69-H ) :   0.9823 B( 26-C , 27-C ) :   1.2466 
B( 26-C , 70-H ) :   0.9691 B( 27-C , 29-C ) :   1.2102 B( 28-C , 71-H ) :   0.9719 
B( 29-C , 30-C ) :   1.2460 B( 30-C , 32-C ) :   1.2789 B( 31-C , 39-C ) :   1.5899 
B( 31-C , 72-H ) :   0.9682 B( 32-C , 37-C ) :   1.5804 B( 32-C , 73-H ) :   0.9785 
B( 33-C , 34-C ) :   1.3070 B( 33-C , 39-C ) :   1.3016 B( 33-C , 40-C ) :   1.1778 
B( 34-C , 35-C ) :   1.5866 B( 34-C , 74-H ) :   0.9696 B( 35-C , 75-H ) :   0.9682 
B( 36-C , 76-H ) :   0.9767 B( 36-C , 77-H ) :   0.9816 B( 36-C , 78-H ) :   0.9824 
B( 37-C , 38-C ) :   1.2839 B( 37-C , 79-H ) :   0.9766 B( 38-C , 40-C ) :   1.2344 
B( 39-C , 80-H ) :   0.9706 B( 40-C , 41-C ) :   1.2492 B( 41-C , 43-C ) :   1.1874 
B( 42-C , 50-C ) :   1.6355 B( 42-C , 81-H ) :   0.9697 B( 43-C , 48-C ) :   1.6649 
B( 43-C , 82-H ) :   0.9721 B( 44-C , 45-C ) :   1.2620 B( 44-C , 50-C ) :   1.2700 
B( 44-C , 51-C ) :   1.2651 B( 45-C , 46-C ) :   1.6367 B( 45-C , 83-H ) :   0.9718 
B( 46-C , 84-H ) :   0.9701 B( 47-C , 85-H ) :   0.9762 B( 47-C , 86-H ) :   0.9829 
B( 47-C , 87-H ) :   0.9825 B( 48-C , 49-C ) :   1.1909 B( 48-C , 88-H ) :   0.9749 
B( 49-C , 51-C ) :   1.2402 B( 50-C , 89-H ) :   0.9709 

-------
TIMINGS
-------

Total SCF time: 0 days 0 hours 28 min 34 sec 

Total time                  ....    1714.835 sec
Sum of individual times     ....    1710.086 sec  ( 99.7%)

Fock matrix formation       ....    1682.397 sec  ( 98.1%)
Diagonalization             ....       8.784 sec  (  0.5%)
Density matrix formation    ....       0.533 sec  (  0.0%)
Population analysis         ....       0.606 sec  (  0.0%)
Initial guess               ....       2.534 sec  (  0.1%)
Orbital Transformation      ....       0.000 sec  (  0.0%)
Orbital Orthonormalization  ....       0.000 sec  (  0.0%)
DIIS solution               ....       3.969 sec  (  0.2%)
SOSCF solution              ....       9.972 sec  (  0.6%)

Maximum memory used throughout the entire SCF-calculation: 302.6 MB


           ************************************************************
           *        Program running with 16 parallel MPI-processes    *
           *              working on a common directory               *
           ************************************************************

------------------------------------------------------------------------------
                                ORCA  MP2 
------------------------------------------------------------------------------

Freezing NCore=104 chemical core electrons

----------
MP2 ENERGY (disk based algorithm)
----------

Dimension of the basis                    ...  918
Memory devoted to MP2                     ... 2000 MB   
Data format for buffers                   ... DOUBLE
Compression type for matrix containers    ... UNCOMPRESSED

-------------------------------
PARTIAL EXCHANGE TRANSFORMATION
-------------------------------

Transformation type                        ... one-operator
Generation of integrals (i,mue|j,nue)      ... ON
Generation of integrals (mue,kappa|nue,tau)... OFF
Generation of integrals (i,mue|a,nue)      ... OFF
Dimension of the basis                     ...  918
Number of internal MOs                     ...  127 (  52- 178)
Pair cutoff                                ... 2.500e-12 Eh
Number of AO pairs in the trafo            ... 421821
Total Number of distinct AO pairs          ... 421821
Memory devoted for trafo                   ... 2000.0 MB 
Max. Number of MO pairs treated together   ...  311      
Number Format for Storage                  ... Double (8 Byte)
Integral package used                      ... LIBINT

Starting integral evaluation:
    ... done with AO integral generation
Closing buffer AOK     (38.28 GB; CompressionRatio= 1.32)
Collecting buffer AOK 
Number of MO pairs included in the trafo   ... 8128
------------------------
SORTING OF (i,mue|j,nue)
------------------------

IBATCH = 1 of  2
IBATCH = 2 of  2
Closing buffer KAO     (51.03 GB; CompressionRatio= 1.00)
Collecting buffer KAO 
N(AO-Batches) Done                         ...  86048076 
N(AO-Batches) Skipped                      ...  82320754 
N(IJ)-pairs Skipped                        ...         0 
TOTAL TIME for half transformation         ...  3056.971 sec
AO-integral generation                     ...   211.729 sec
Half transformation                        ...   423.464 sec
K-integral sorting                         ...  2201.082 sec
Process 10:   Internal MO 132
Process 13:   Internal MO 156

Finished integral transformation - now doing MP2 part

Process  4:   Internal MO  84
OPERATOR COMBINATION   0   0: ij=( 52..178, 52..178)
Process  7:   Internal MO 108
Process  1:   Internal MO  60
Process  0:   Internal MO  54
Process  2:   Internal MO  69
Process  0:   Internal MO  57
Process  3:   Internal MO  78
Process  5:   Internal MO  93
Process  8:   Internal MO 117
Process  2:   Internal MO  72
Process  6:   Internal MO 102
Process 11:   Internal MO 141
Process 14:   Internal MO 165
Process  4:   Internal MO  87
Process  2:   Internal MO  75
Process  3:   Internal MO  81
Process  9:   Internal MO 126
Process  5:   Internal MO  96
Process  1:   Internal MO  63
Process  4:   Internal MO  90
Process  7:   Internal MO 111
Process  1:   Internal MO  66
Process 15:   Internal MO 174
Process  8:   Internal MO 120
Process  6:   Internal MO 105
Process 10:   Internal MO 135
Process  5:   Internal MO  99
Process 12:   Internal MO 150
Process  9:   Internal MO 129
Process 13:   Internal MO 159
Process  7:   Internal MO 114
Process 11:   Internal MO 144
Process  8:   Internal MO 123
Process 14:   Internal MO 168
Process 10:   Internal MO 138
Process 15:   Internal MO 177
Process 12:   Internal MO 153
Process 11:   Internal MO 147
Process 13:   Internal MO 162
Process 14:   Internal MO 171
-----------------------------------------------
 MP2 CORRELATION ENERGY   :     -7.283138949 Eh
-----------------------------------------------


-------
TIMINGS
-------
Total time                : 3396.111 sec
Integral trafo            : 3059.076 sec ( 90.1%)
K(i,j)                    :    6.094 sec (  0.2%)
T(i,j)                    :    0.061 sec (  0.0%)

---------------------------------------
MP2 TOTAL ENERGY:    -2130.863950401 Eh
---------------------------------------

Maximum memory used throughout the entire MP2-calculation: 2275.3 MB

-------------------------   --------------------
FINAL SINGLE POINT ENERGY     -2130.863950400946
-------------------------   --------------------


                            ***************************************
                            *     ORCA property calculations      *
                            ***************************************


  WARNING: The energy has been calculated at the MP2 level but the densities
           used in the property calculations are still SCF densities
           MP2 response densities have not been calculated 
           use %mp2 Density relaxed end
           or  %mp2 Density unrelaxed end

                                    ---------------------
                                    Active property flags
                                    ---------------------
   (+) Dipole Moment


------------------------------------------------------------------------------
                       ORCA ELECTRIC PROPERTIES CALCULATION
------------------------------------------------------------------------------

Dipole Moment Calculation                       ... on
Quadrupole Moment Calculation                   ... off
Polarizability Calculation                      ... off
GBWName                                         ... /scratch/allen/tmpyp4_amber_gaff2/conf1/conf1/Conf159.orca.gbw
Electron density                                ... /scratch/allen/tmpyp4_amber_gaff2/conf1/conf1/Conf159.orca.scfp
The origin for moment calculation is the CENTER OF MASS  = ( 0.003390, -0.001757  0.001454)

-------------
DIPOLE MOMENT
-------------
                                X             Y             Z
Electronic contribution:      2.45004      -4.34387      -0.22185
Nuclear contribution   :      0.04495       0.21506       0.21832
                        -----------------------------------------
Total Dipole Moment    :      2.49499      -4.12881      -0.00353
                        -----------------------------------------
Magnitude (a.u.)       :      4.82411
Magnitude (Debye)      :     12.26192



--------------------
Rotational spectrum 
--------------------
 
Rotational constants in cm-1:     0.001501     0.001479     0.000760 
Rotational constants in MHz :    44.990282    44.332496    22.793447 

 Dipole components along the rotational axes: 
x,y,z [a.u.] :     3.294788    -3.523698     0.000150 
x,y,z [Debye]:     8.374686    -8.956529     0.000380 

 

Timings for individual modules:

Sum of individual times         ...     5135.068 sec (=  85.584 min)
GTO integral calculation        ...        3.674 sec (=   0.061 min)   0.1 %
SCF iterations                  ...     1716.039 sec (=  28.601 min)  33.4 %
MP2 module                      ...     3415.356 sec (=  56.923 min)  66.5 %
                             ****ORCA TERMINATED NORMALLY****
TOTAL RUN TIME: 0 days 1 hours 25 minutes 38 seconds 556 msec
# of primitive gaussian functions

