
                                 *****************
                                 * O   R   C   A *
                                 *****************

                                            #,                                       
                                            ###                                      
                                            ####                                     
                                            #####                                    
                                            ######                                   
                                           ########,                                 
                                     ,,################,,,,,                         
                               ,,#################################,,                 
                          ,,##########################################,,             
                       ,#########################################, ''#####,          
                    ,#############################################,,   '####,        
                  ,##################################################,,,,####,       
                ,###########''''           ''''###############################       
              ,#####''   ,,,,##########,,,,          '''####'''          '####       
            ,##' ,,,,###########################,,,                        '##       
           ' ,,###''''                  '''############,,,                           
         ,,##''                                '''############,,,,        ,,,,,,###''
      ,#''                                            '''#######################'''  
     '                                                          ''''####''''         
             ,#######,   #######,   ,#######,      ##                                
            ,#'     '#,  ##    ##  ,#'     '#,    #''#        ######   ,####,        
            ##       ##  ##   ,#'  ##            #'  '#       #        #'  '#        
            ##       ##  #######   ##           ,######,      #####,   #    #        
            '#,     ,#'  ##    ##  '#,     ,#' ,#      #,         ##   #,  ,#        
             '#######'   ##     ##  '#######'  #'      '#     #####' # '####'        



                  #######################################################
                  #                        -***-                        #
                  #          Department of theory and spectroscopy      #
                  #    Directorship and core code : Frank Neese         #
                  #        Max Planck Institute fuer Kohlenforschung    #
                  #                Kaiser Wilhelm Platz 1               #
                  #                 D-45470 Muelheim/Ruhr               #
                  #                      Germany                        #
                  #                                                     #
                  #                  All rights reserved                #
                  #                        -***-                        #
                  #######################################################


                         Program Version 5.0.4 -  RELEASE  -


 With contributions from (in alphabetic order):
   Daniel Aravena         : Magnetic Suceptibility
   Michael Atanasov       : Ab Initio Ligand Field Theory (pilot matlab implementation)
   Alexander A. Auer      : GIAO ZORA, VPT2 properties, NMR spectrum
   Ute Becker             : Parallelization
   Giovanni Bistoni       : ED, misc. LED, open-shell LED, HFLD
   Martin Brehm           : Molecular dynamics
   Dmytro Bykov           : SCF Hessian
   Vijay G. Chilkuri      : MRCI spin determinant printing, contributions to CSF-ICE
   Dipayan Datta          : RHF DLPNO-CCSD density
   Achintya Kumar Dutta   : EOM-CC, STEOM-CC
   Dmitry Ganyushin       : Spin-Orbit,Spin-Spin,Magnetic field MRCI
   Miquel Garcia          : C-PCM and meta-GGA Hessian, CC/C-PCM, Gaussian charge scheme
   Yang Guo               : DLPNO-NEVPT2, F12-NEVPT2, CIM, IAO-localization
   Andreas Hansen         : Spin unrestricted coupled pair/coupled cluster methods
   Benjamin Helmich-Paris : MC-RPA, TRAH-SCF, COSX integrals
   Lee Huntington         : MR-EOM, pCC
   Robert Izsak           : Overlap fitted RIJCOSX, COSX-SCS-MP3, EOM
   Marcus Kettner         : VPT2
   Christian Kollmar      : KDIIS, OOCD, Brueckner-CCSD(T), CCSD density, CASPT2, CASPT2-K
   Simone Kossmann        : Meta GGA functionals, TD-DFT gradient, OOMP2, MP2 Hessian
   Martin Krupicka        : Initial AUTO-CI
   Lucas Lang             : DCDCAS
   Marvin Lechner         : AUTO-CI (C++ implementation), FIC-MRCC
   Dagmar Lenk            : GEPOL surface, SMD
   Dimitrios Liakos       : Extrapolation schemes; Compound Job, initial MDCI parallelization
   Dimitrios Manganas     : Further ROCIS development; embedding schemes
   Dimitrios Pantazis     : SARC Basis sets
   Anastasios Papadopoulos: AUTO-CI, single reference methods and gradients
   Taras Petrenko         : DFT Hessian,TD-DFT gradient, ASA, ECA, R-Raman, ABS, FL, XAS/XES, NRVS
   Peter Pinski           : DLPNO-MP2, DLPNO-MP2 Gradient
   Christoph Reimann      : Effective Core Potentials
   Marius Retegan         : Local ZFS, SOC
   Christoph Riplinger    : Optimizer, TS searches, QM/MM, DLPNO-CCSD(T), (RO)-DLPNO pert. Triples
   Tobias Risthaus        : Range-separated hybrids, TD-DFT gradient, RPA, STAB
   Michael Roemelt        : Original ROCIS implementation
   Masaaki Saitow         : Open-shell DLPNO-CCSD energy and density
   Barbara Sandhoefer     : DKH picture change effects
   Avijit Sen             : IP-ROCIS
   Kantharuban Sivalingam : CASSCF convergence, NEVPT2, FIC-MRCI
   Bernardo de Souza      : ESD, SOC TD-DFT
   Georgi Stoychev        : AutoAux, RI-MP2 NMR, DLPNO-MP2 response
   Willem Van den Heuvel  : Paramagnetic NMR
   Boris Wezisla          : Elementary symmetry handling
   Frank Wennmohs         : Technical directorship


 We gratefully acknowledge several colleagues who have allowed us to
 interface, adapt or use parts of their codes:
   Stefan Grimme, W. Hujo, H. Kruse, P. Pracht,  : VdW corrections, initial TS optimization,
                  C. Bannwarth, S. Ehlert          DFT functionals, gCP, sTDA/sTD-DF
   Ed Valeev, F. Pavosevic, A. Kumar             : LibInt (2-el integral package), F12 methods
   Garnet Chan, S. Sharma, J. Yang, R. Olivares  : DMRG
   Ulf Ekstrom                                   : XCFun DFT Library
   Mihaly Kallay                                 : mrcc  (arbitrary order and MRCC methods)
   Jiri Pittner, Ondrej Demel                    : Mk-CCSD
   Frank Weinhold                                : gennbo (NPA and NBO analysis)
   Christopher J. Cramer and Donald G. Truhlar   : smd solvation model
   Lars Goerigk                                  : TD-DFT with DH, B97 family of functionals
   V. Asgeirsson, H. Jonsson                     : NEB implementation
   FAccTs GmbH                                   : IRC, NEB, NEB-TS, DLPNO-Multilevel, CI-OPT
                                                   MM, QMMM, 2- and 3-layer-ONIOM, Crystal-QMMM,
                                                   LR-CPCM, SF, NACMEs, symmetry and pop. for TD-DFT,
                                                   nearIR, NL-DFT gradient (VV10), updates on ESD,
                                                   ML-optimized integration grids
   S Lehtola, MJT Oliveira, MAL Marques          : LibXC Library
   Liviu Ungur et al                             : ANISO software


 Your calculation uses the libint2 library for the computation of 2-el integrals
 For citations please refer to: http://libint.valeyev.net

 Your ORCA version has been built with support for libXC version: 5.1.0
 For citations please refer to: https://tddft.org/programs/libxc/

 This ORCA versions uses:
   CBLAS   interface :  Fast vector & matrix operations
   LAPACKE interface :  Fast linear algebra routines
   SCALAPACK package :  Parallel linear algebra routines
   Shared memory     :  Shared parallel matrices
   BLAS/LAPACK       :  OpenBLAS 0.3.15  USE64BITINT DYNAMIC_ARCH NO_AFFINITY Sandybridge SINGLE_THREADED
        Core in use  :  Sandybridge
   Copyright (c) 2011-2014, The OpenBLAS Project


================================================================================

----- Orbital basis set information -----
Your calculation utilizes the basis: cc-pVDZ 
       H, B-Ne : Obtained from the ccRepo (grant-hill.group.shef.ac.uk/ccrepo) Feb. 2017
                 T. H. Dunning, Jr., J. Chem. Phys. 90, 1007 (1989)
            He : Obtained from the ccRepo (grant-hill.group.shef.ac.uk/ccrepo) Feb. 2017
                 D. E. Woon, T. H. Dunning, Jr., J. Chem. Phys. 100, 2975 (1994)
  Li-Be, Na-Mg : Obtained from the ccRepo (grant-hill.group.shef.ac.uk/ccrepo) Feb. 2017
                 B. P. Prascher, D. E. Woon, K. A. Peterson, T. H. Dunning, Jr., A. K. Wilson, Theor. Chem. Acc. 128, 69 (2011)
         Al-Ar : Obtained from the ccRepo (grant-hill.group.shef.ac.uk/ccrepo) Feb. 2017
                 D. E. Woon, T. H. Dunning, Jr., J. Chem. Phys. 98, 1358 (1993)
            Ca : Obtained from the Peterson Research Group Website (tyr0.chem.wsu.edu/~kipeters) Feb. 2017
                 J. Koput, K. A. Peterson, J. Phys. Chem. 106, 9595 (2002)
         Sc-Zn : Obtained from the ccRepo (grant-hill.group.shef.ac.uk/ccrepo) Feb. 2017
                 N. B. Balabanov, K. A. Peterson, J. Chem. Phys. 123, 064107 (2005)
                 N. B. Balabanov, K. A. Peterson, J. Chem. Phys. 125, 074110 (2006)
         Ga-Kr : Obtained from the ccRepo (grant-hill.group.shef.ac.uk/ccrepo) Feb. 2017
                 A. K. Wilson, D. E. Woon, K. A. Peterson, T. H. Dunning, Jr., J. Chem. Phys. 110, 7667 (1999)

================================================================================
                                        WARNINGS
                       Please study these warnings very carefully!
================================================================================


WARNING: No MP2 level density has been requested!
         To caclulate MP2 level properties use
         %mp2 Density relaxed end
         or
         %mp2 Density unrelaxed end

WARNING: Post HF methods need fully converged wavefunctions
  ===> : Setting SCFConvForced true
         You can overwrite this default with %scf ConvForced false 


INFO   : the flag for use of the SHARK integral package has been found!

================================================================================
                                       INPUT FILE
================================================================================
NAME = /scratch/allen/tmpyp4_amber_gaff2/2.Mdgx/conf11/conf11/Conf174.orca
|  1> ! PAL2
|  2> ! mp2 cc-pvdz TightSCF  NoKeepInts
|  3> 
|  4> %scf
|  5>   MaxCore 2000
|  6> end
|  7> %mp2
|  8>   MaxCore 2000
|  9> end
| 10> * xyz 0 1
| 11>    C       -4.94600         5.19200        -0.09900
| 12>    C        1.47400         4.04100         0.05700
| 13>    C       -2.80200         4.09300         0.04900
| 14>    C       -2.22300         5.35800         0.23400
| 15>    C       -3.01700         6.48800         0.24900
| 16>    C       -5.18300         7.62200         0.14100
| 17>    C        0.13200         4.30700         0.06100
| 18>    C       -0.56900         3.05600         0.04700
| 19>    C        1.64900         2.61800         0.02300
| 20>    C       -4.19400         4.03300        -0.11600
| 21>    N       -4.35600         6.39600         0.08100
| 22>    N        0.38800         2.06700         0.02500
| 23>    N       -2.01000         0.39500        -0.07500
| 24>    N       -0.38800        -2.07400        -0.02700
| 25>    N        2.01000        -0.40100         0.06500
| 26>    C       -1.96000         2.86100         0.02400
| 27>    C       -2.62300         1.61500        -0.01800
| 28>    C       -5.57300        -4.32900         1.06600
| 29>    C       -4.07300         1.47100         0.05600
| 30>    C       -4.10600        -2.75600        -0.02600
| 31>    C       -4.99500        -2.75700        -1.11100
| 32>    C       -6.13200        -3.54200        -1.07600
| 33>    C       -7.65100        -5.11300         0.04000
| 34>    C       -4.32400         0.14100         0.03700
| 35>    C       -3.02500        -0.52000        -0.04800
| 36>    C       -4.42200        -3.56600         1.07500
| 37>    N       -6.40700        -4.31300         0.00100
| 38>    C       -2.86700        -1.92200        -0.04000
| 39>    C       -1.65000        -2.62400        -0.02700
| 40>    C        3.56800        -6.14200        -1.04000
| 41>    C       -1.47600        -4.04900        -0.03400
| 42>    C        2.80300        -4.09900        -0.00800
| 43>    C        3.65700        -4.38400         1.06900
| 44>    C        4.42700        -5.53000         1.05900
| 45>    C        5.24500        -7.58800         0.01400
| 46>    C       -0.13400        -4.31500        -0.02200
| 47>    C        0.56800        -3.06400        -0.02700
| 48>    C        2.77500        -5.01200        -1.07400
| 49>    N        4.37600        -6.39100         0.01700
| 50>    C        1.95900        -2.86900        -0.00900
| 51>    C        2.62100        -1.62200         0.00900
| 52>    C        5.54300         4.33900        -1.13000
| 53>    C        4.07000        -1.47900        -0.09400
| 54>    C        4.10400         2.75100        -0.02100
| 55>    C        5.02700         2.72900         1.03600
| 56>    C        6.16600         3.50900         0.97800
| 57>    C        7.61900         5.15300        -0.11500
| 58>    C        4.32100        -0.14800        -0.09200
| 59>    C        3.02500         0.51400         0.01500
| 60>    C        4.38700         3.58200        -1.11500
| 61>    C        2.86600         1.91600         0.01300
| 62>    N        6.41300         4.29600        -0.09500
| 63>    H       -6.02000         5.19400        -0.23400
| 64>    H        2.27400         4.76600         0.08100
| 65>    H       -1.15500         5.46900         0.37600
| 66>    H       -2.61700         7.48300         0.39700
| 67>    H       -5.43300         7.83200         1.18300
| 68>    H       -4.61400         8.45000        -0.28300
| 69>    H       -6.09300         7.46000        -0.43700
| 70>    H       -0.33200         5.28200         0.06900
| 71>    H       -4.69900         3.08700        -0.27700
| 72>    H        0.18200         1.07200         0.00500
| 73>    H       -0.18300        -1.08000        -0.02100
| 74>    H       -5.86400        -4.96200         1.89500
| 75>    H       -4.79400         2.27200         0.13900
| 76>    H       -4.80000        -2.16000        -1.99400
| 77>    H       -6.84100        -3.58200        -1.89300
| 78>    H       -8.42800        -4.53600         0.54600
| 79>    H       -7.95600        -5.33700        -0.98100
| 80>    H       -7.45600        -6.03700         0.58400
| 81>    H       -5.28700        -0.34400         0.10000
| 82>    H       -3.78000        -3.60100         1.94700
| 83>    H        3.58700        -6.86800        -1.84300
| 84>    H       -2.27600        -4.77400        -0.05000
| 85>    H        3.71400        -3.72400         1.92600
| 86>    H        5.09200        -5.79500         1.87100
| 87>    H        6.20500        -7.32900        -0.43900
| 88>    H        5.39300        -7.91700         1.04200
| 89>    H        4.75900        -8.37300        -0.56400
| 90>    H        0.32900        -5.29000        -0.00800
| 91>    H        2.14600        -4.84200        -1.94000
| 92>    H        5.80800         4.98600        -1.95600
| 93>    H        4.78800        -2.28100        -0.18500
| 94>    H        4.86000         2.11400         1.91200
| 95>    H        6.90100         3.53100         1.77200
| 96>    H        7.38300         6.10900         0.35600
| 97>    H        8.41400         4.65200         0.43500
| 98>    H        7.92100         5.31000        -1.15000
| 99>    H        5.28300         0.33600        -0.17900
|100>    H        3.72000         3.63200        -1.96700
|101> *
|102> 
|103>                          ****END OF INPUT****
================================================================================

                       ****************************
                       * Single Point Calculation *
                       ****************************

---------------------------------
CARTESIAN COORDINATES (ANGSTROEM)
---------------------------------
  C     -4.946000    5.192000   -0.099000
  C      1.474000    4.041000    0.057000
  C     -2.802000    4.093000    0.049000
  C     -2.223000    5.358000    0.234000
  C     -3.017000    6.488000    0.249000
  C     -5.183000    7.622000    0.141000
  C      0.132000    4.307000    0.061000
  C     -0.569000    3.056000    0.047000
  C      1.649000    2.618000    0.023000
  C     -4.194000    4.033000   -0.116000
  N     -4.356000    6.396000    0.081000
  N      0.388000    2.067000    0.025000
  N     -2.010000    0.395000   -0.075000
  N     -0.388000   -2.074000   -0.027000
  N      2.010000   -0.401000    0.065000
  C     -1.960000    2.861000    0.024000
  C     -2.623000    1.615000   -0.018000
  C     -5.573000   -4.329000    1.066000
  C     -4.073000    1.471000    0.056000
  C     -4.106000   -2.756000   -0.026000
  C     -4.995000   -2.757000   -1.111000
  C     -6.132000   -3.542000   -1.076000
  C     -7.651000   -5.113000    0.040000
  C     -4.324000    0.141000    0.037000
  C     -3.025000   -0.520000   -0.048000
  C     -4.422000   -3.566000    1.075000
  N     -6.407000   -4.313000    0.001000
  C     -2.867000   -1.922000   -0.040000
  C     -1.650000   -2.624000   -0.027000
  C      3.568000   -6.142000   -1.040000
  C     -1.476000   -4.049000   -0.034000
  C      2.803000   -4.099000   -0.008000
  C      3.657000   -4.384000    1.069000
  C      4.427000   -5.530000    1.059000
  C      5.245000   -7.588000    0.014000
  C     -0.134000   -4.315000   -0.022000
  C      0.568000   -3.064000   -0.027000
  C      2.775000   -5.012000   -1.074000
  N      4.376000   -6.391000    0.017000
  C      1.959000   -2.869000   -0.009000
  C      2.621000   -1.622000    0.009000
  C      5.543000    4.339000   -1.130000
  C      4.070000   -1.479000   -0.094000
  C      4.104000    2.751000   -0.021000
  C      5.027000    2.729000    1.036000
  C      6.166000    3.509000    0.978000
  C      7.619000    5.153000   -0.115000
  C      4.321000   -0.148000   -0.092000
  C      3.025000    0.514000    0.015000
  C      4.387000    3.582000   -1.115000
  C      2.866000    1.916000    0.013000
  N      6.413000    4.296000   -0.095000
  H     -6.020000    5.194000   -0.234000
  H      2.274000    4.766000    0.081000
  H     -1.155000    5.469000    0.376000
  H     -2.617000    7.483000    0.397000
  H     -5.433000    7.832000    1.183000
  H     -4.614000    8.450000   -0.283000
  H     -6.093000    7.460000   -0.437000
  H     -0.332000    5.282000    0.069000
  H     -4.699000    3.087000   -0.277000
  H      0.182000    1.072000    0.005000
  H     -0.183000   -1.080000   -0.021000
  H     -5.864000   -4.962000    1.895000
  H     -4.794000    2.272000    0.139000
  H     -4.800000   -2.160000   -1.994000
  H     -6.841000   -3.582000   -1.893000
  H     -8.428000   -4.536000    0.546000
  H     -7.956000   -5.337000   -0.981000
  H     -7.456000   -6.037000    0.584000
  H     -5.287000   -0.344000    0.100000
  H     -3.780000   -3.601000    1.947000
  H      3.587000   -6.868000   -1.843000
  H     -2.276000   -4.774000   -0.050000
  H      3.714000   -3.724000    1.926000
  H      5.092000   -5.795000    1.871000
  H      6.205000   -7.329000   -0.439000
  H      5.393000   -7.917000    1.042000
  H      4.759000   -8.373000   -0.564000
  H      0.329000   -5.290000   -0.008000
  H      2.146000   -4.842000   -1.940000
  H      5.808000    4.986000   -1.956000
  H      4.788000   -2.281000   -0.185000
  H      4.860000    2.114000    1.912000
  H      6.901000    3.531000    1.772000
  H      7.383000    6.109000    0.356000
  H      8.414000    4.652000    0.435000
  H      7.921000    5.310000   -1.150000
  H      5.283000    0.336000   -0.179000
  H      3.720000    3.632000   -1.967000

----------------------------
CARTESIAN COORDINATES (A.U.)
----------------------------
  NO LB      ZA    FRAG     MASS         X           Y           Z
   0 C     6.0000    0    12.011   -9.346585    9.811458   -0.187083
   1 C     6.0000    0    12.011    2.785456    7.636383    0.107714
   2 C     6.0000    0    12.011   -5.295013    7.734649    0.092597
   3 C     6.0000    0    12.011   -4.200861   10.125153    0.442196
   4 C     6.0000    0    12.011   -5.701304   12.260543    0.470542
   5 C     6.0000    0    12.011   -9.794451   14.403493    0.266451
   6 C     6.0000    0    12.011    0.249444    8.139050    0.115273
   7 C     6.0000    0    12.011   -1.075254    5.775003    0.088817
   8 C     6.0000    0    12.011    3.116158    4.947303    0.043464
   9 C     6.0000    0    12.011   -7.925511    7.621265   -0.219208
  10 N     7.0000    0    14.007   -8.231647   12.086688    0.153068
  11 N     7.0000    0    14.007    0.733214    3.906064    0.047243
  12 N     7.0000    0    14.007   -3.798350    0.746442   -0.141729
  13 N     7.0000    0    14.007   -0.733214   -3.919292   -0.051023
  14 N     7.0000    0    14.007    3.798350   -0.757780    0.122832
  15 C     6.0000    0    12.011   -3.703863    5.406506    0.045353
  16 C     6.0000    0    12.011   -4.956752    3.051908   -0.034015
  17 C     6.0000    0    12.011  -10.531444   -8.180624    2.014448
  18 C     6.0000    0    12.011   -7.696855    2.779787    0.105825
  19 C     6.0000    0    12.011   -7.759216   -5.208085   -0.049133
  20 C     6.0000    0    12.011   -9.439182   -5.209975   -2.099486
  21 C     6.0000    0    12.011  -11.587801   -6.693410   -2.033345
  22 C     6.0000    0    12.011  -14.458295   -9.662170    0.075589
  23 C     6.0000    0    12.011   -8.171176    0.266451    0.069920
  24 C     6.0000    0    12.011   -5.716422   -0.982658   -0.090707
  25 C     6.0000    0    12.011   -8.356369   -6.738763    2.031456
  26 N     7.0000    0    14.007  -12.107475   -8.150389    0.001890
  27 C     6.0000    0    12.011   -5.417845   -3.632054   -0.075589
  28 C     6.0000    0    12.011   -3.118048   -4.958641   -0.051023
  29 C     6.0000    0    12.011    6.742543  -11.606698   -1.965315
  30 C     6.0000    0    12.011   -2.789236   -7.651501   -0.064251
  31 C     6.0000    0    12.011    5.296902   -7.745987   -0.015118
  32 C     6.0000    0    12.011    6.910728   -8.284559    2.020117
  33 C     6.0000    0    12.011    8.365818  -10.450186    2.001220
  34 C     6.0000    0    12.011    9.911614  -14.339242    0.026456
  35 C     6.0000    0    12.011   -0.253223   -8.154168   -0.041574
  36 C     6.0000    0    12.011    1.073364   -5.790121   -0.051023
  37 C     6.0000    0    12.011    5.243990   -9.471307   -2.029566
  38 N     7.0000    0    14.007    8.269442  -12.077240    0.032125
  39 C     6.0000    0    12.011    3.701973   -5.421624   -0.017008
  40 C     6.0000    0    12.011    4.952972   -3.065136    0.017008
  41 C     6.0000    0    12.011   10.474752    8.199522   -2.135391
  42 C     6.0000    0    12.011    7.691185   -2.794905   -0.177634
  43 C     6.0000    0    12.011    7.755436    5.198637   -0.039684
  44 C     6.0000    0    12.011    9.499653    5.157063    1.957756
  45 C     6.0000    0    12.011   11.652051    6.631049    1.848152
  46 C     6.0000    0    12.011   14.397823    9.737759   -0.217319
  47 C     6.0000    0    12.011    8.165507   -0.279679   -0.173855
  48 C     6.0000    0    12.011    5.716422    0.971319    0.028346
  49 C     6.0000    0    12.011    8.290229    6.768999   -2.107045
  50 C     6.0000    0    12.011    5.415955    3.620715    0.024566
  51 N     7.0000    0    14.007   12.118814    8.118263   -0.179524
  52 H     1.0000    0     1.008  -11.376151    9.815238   -0.442196
  53 H     1.0000    0     1.008    4.297237    9.006435    0.153068
  54 H     1.0000    0     1.008   -2.182634   10.334912    0.710537
  55 H     1.0000    0     1.008   -4.945413   14.140821    0.750221
  56 H     1.0000    0     1.008  -10.266882   14.800335    2.235546
  57 H     1.0000    0     1.008   -8.719196   15.968186   -0.534792
  58 H     1.0000    0     1.008  -11.514101   14.097357   -0.825810
  59 H     1.0000    0     1.008   -0.627389    9.981533    0.130391
  60 H     1.0000    0     1.008   -8.879823    5.833585   -0.523454
  61 H     1.0000    0     1.008    0.343930    2.025786    0.009449
  62 H     1.0000    0     1.008   -0.345820   -2.040904   -0.039684
  63 H     1.0000    0     1.008  -11.081354   -9.376821    3.581031
  64 H     1.0000    0     1.008   -9.059347    4.293458    0.262672
  65 H     1.0000    0     1.008   -9.070685   -4.081808   -3.768114
  66 H     1.0000    0     1.008  -12.927616   -6.768999   -3.577252
  67 H     1.0000    0     1.008  -15.926612   -8.571798    1.031790
  68 H     1.0000    0     1.008  -15.034661  -10.085468   -1.853821
  69 H     1.0000    0     1.008  -14.089798  -11.408277    1.103600
  70 H     1.0000    0     1.008   -9.990982   -0.650066    0.188973
  71 H     1.0000    0     1.008   -7.143165   -6.804904    3.679297
  72 H     1.0000    0     1.008    6.778448  -12.978639   -3.482765
  73 H     1.0000    0     1.008   -4.301017   -9.021553   -0.094486
  74 H     1.0000    0     1.008    7.018443   -7.037340    3.639613
  75 H     1.0000    0     1.008    9.622485  -10.950963    3.535678
  76 H     1.0000    0     1.008   11.725751  -13.849803   -0.829590
  77 H     1.0000    0     1.008   10.191293  -14.960962    1.969095
  78 H     1.0000    0     1.008    8.993207  -15.822677   -1.065806
  79 H     1.0000    0     1.008    0.621720   -9.996651   -0.015118
  80 H     1.0000    0     1.008    4.055352   -9.150054   -3.666069
  81 H     1.0000    0     1.008   10.975529    9.422175   -3.696304
  82 H     1.0000    0     1.008    9.048009   -4.310465   -0.349599
  83 H     1.0000    0     1.008    9.184069    3.994881    3.613156
  84 H     1.0000    0     1.008   13.041000    6.672623    3.348595
  85 H     1.0000    0     1.008   13.951848   11.544337    0.672743
  86 H     1.0000    0     1.008   15.900156    8.791006    0.822031
  87 H     1.0000    0     1.008   14.968521   10.034446   -2.173185
  88 H     1.0000    0     1.008    9.983423    0.634948   -0.338261
  89 H     1.0000    0     1.008    7.029781    6.863485   -3.717091

--------------------------------
INTERNAL COORDINATES (ANGSTROEM)
--------------------------------
 C      0   0   0     0.000000000000     0.00000000     0.00000000
 C      1   0   0     6.524226927384     0.00000000     0.00000000
 C      1   2   0     2.413802187421    17.09376380     0.00000000
 C      3   1   2     1.403456803753    87.94497915    14.51284998
 C      4   3   1     1.381144814999   120.11305488     0.12664918
 C      5   4   3     2.447279305678   152.55385145     1.70100114
 C      2   1   3     1.368114030335     1.86030000   243.25911322
 C      7   2   4     1.434084376876   108.05010202   195.47940600
 C      2   1   3     1.434123425651   107.13118449     9.36501003
 C      1   2   7     1.381692440451    46.90136986   233.49002757
 N      5   4   3     1.352630400368   120.80351871   359.71074163
 N      9   2   1     1.376127174356   106.58526707   357.65526883
 N     12   9   2     2.925062050624   168.53581413   171.12065651
 N     13  12   9     2.954513327098    91.55032014    11.12112580
 N     14  13  12     2.925371258490    88.43092389   359.84326247
 C      8   7   2     1.404790019896   127.24786865   181.11170171
 C     13  12   9     1.366535034311    81.72106996   188.00453233
 C     14  13  12     5.758810554272    80.56209567   166.76250791
 C     17  13  12     1.459010623676   111.08861209   183.82872609
 C     18  14  13     2.412235892279    27.27532823    36.33507194
 C     20  18  14     1.402692767501    87.95206320   148.94598259
 C     21  20  18     1.382106725257   120.14573887   359.70382047
 C     18  14  13     2.446510985056   144.15733107    82.80075377
 C     19  17  13     1.353610726908   106.29293361   359.75308708
 C     13  12   9     1.366813447402   172.21332906    33.46711076
 C     18  14  13     1.380960173213    15.08449437   309.23336894
 N     22  21  20     1.352773077792   120.73759875     0.27865223
 C     25  13  17     1.410897586645   125.60330303   182.37774668
 C     14  13  12     1.376642291955    80.24689249   177.85461986
 C     14  13  12     5.764089607215   164.51507311   312.20821879
 C     29  14  13     1.435600919476   106.58649366   178.76395472
 C     30  14  13     2.413316804732    27.10625047    82.12560436
 C     32  30  14     1.403734305344    87.90059683   149.76154742
 C     33  32  30     1.380694028378   120.14881443   359.74174632
 C     34  33  32     2.448777858443   152.49203239     2.45173620
 C     31  29  14     1.368160809262   108.16950133     0.70383075
 C     14  13  12     1.376239804685   169.26375223   353.09862627
 C     30  14  13     1.380907310430    14.68948582   353.70041132
 N     34  33  32     1.352658863128   120.85575621     0.19603406
 C     37  14  29     1.404717053360   126.01551127   180.90772073
 C     15  14  13     1.366491126938    81.61824056   183.09049352
 C      2   1   3     4.249062720177   157.40922742   135.80867029
 C     41  15  14     1.459677704153   111.05201287   175.08990246
 C     42   2   1     2.412953791518    41.78584867   206.69786056
 C     44  42   2     1.403446472082    87.95153797   233.97558675
 C     45  44  42     1.381696421071   120.11137308     0.19721020
 C     42   2   1     2.450019795838   135.97209175   117.01270967
 C     43  41  15     1.354461516618   106.26758155     0.30894352
 C     15  14  13     1.367461151185   171.87382904   332.35056460
 C     42   2   1     1.381886391857    32.59078432   255.55313976
 C      9   2   1     1.404988612053   126.98745415   178.65960636
 N     42   2   1     1.352765315936   113.57249190   144.74929886
 H      1   2   7     1.082453232246   168.42077912   205.42169225
 H      2   1   3     1.079907866440   127.66625595   188.07167059
 H      4   3   1     1.083101564951   121.09479632   179.56429188
 H      5   4   3     1.082556695975   122.75558240   179.44985513
 H      6   5   4     1.091954211494   104.45591796   100.03745701
 H      6   5   4     1.090468248048    84.67407288   209.50331232
 H      6   5   4     1.090150448333   133.89545305   322.29023179
 H     55   4   3     0.898079617851   146.87352099    52.14239126
 H     10   1   2     1.084371707488   118.69509145   186.81732416
 H     12   9   2     1.016297692608   125.29023241   180.00180175
 H     14  13  12     1.014936943854    44.97226959   359.42596618
 H     18  14  13     1.082871645210   128.03556573   234.20482432
 H     61  10   1     0.919948911625   138.92266480   236.34584115
 H     21  20  18     1.083569563987   121.05669627   180.67006309
 H     22  21  20     1.082483256222   122.73097286   180.59748951
 H     23  18  14     1.092105306278   103.92715769   234.93429879
 H     23  18  14     1.088871893291   134.19244188    12.25587044
 H     23  18  14     1.089833473518    84.85857450   125.45241208
 H     24  19  17     1.080075460327   127.28078426   178.44613241
 H     26  18  14     1.083408048706   118.76995697   244.94906660
 H     30  14  13     1.082703098730   127.99711412   279.66882698
 H     31  29  14     1.079759695488   125.22293469   180.92530585
 H     33  32  30     1.083188810873   121.01964473   180.74284758
 H     34  33  32     1.082494341787   122.70821597   180.59516895
 H     35  34  33     1.092652735319   105.73575241    97.19771933
 H     35  34  33     1.089462711615    84.05943581   206.43036958
 H     35  34  33     1.089268102902   133.08365142   318.50306270
 H     36  31  29     1.079439669458   126.61599965   178.98859863
 H     38  30  73     1.083742127999   118.77264435   359.90091293
 H     42   2   1     1.082178358682   119.31790784     1.38082931
 H     43  41  15     1.080281907652   126.36969097   182.06329380
 H     45  44  42     1.083277434455   121.10105945   179.58025624
 H     46  45  44     1.082194529648   122.72144639   179.46906377
 H     47  42   2     1.091546151109   106.65128841   315.16475048
 H     47  42   2     1.088818625851   132.46019523    94.52397119
 H     47  42   2     1.089531091801    83.63838232   206.04504406
 H     48  43  41     1.080402239909   127.23657387   181.62955349
 H     50  42   2     1.083186502870   118.77001737    94.71359229

---------------------------
INTERNAL COORDINATES (A.U.)
---------------------------
 C      0   0   0     0.000000000000     0.00000000     0.00000000
 C      1   0   0    12.329002128310     0.00000000     0.00000000
 C      1   2   0     4.561425075686    17.09376380     0.00000000
 C      3   1   2     2.652148999881    87.94497915    14.51284998
 C      4   3   1     2.609985451634   120.11305488     0.12664918
 C      5   4   3     4.624687660944   152.55385145     1.70100114
 C      2   1   3     2.585360837309     1.86030000   243.25911322
 C      7   2   4     2.710026725231   108.05010202   195.47940600
 C      2   1   3     2.710100516721   107.13118449     9.36501003
 C      1   2   7     2.611020313762    46.90136986   233.49002757
 N      5   4   3     2.556101017112   120.80351871   359.71074163
 N      9   2   1     2.600503484979   106.58526707   357.65526883
 N     12   9   2     5.527566200405   168.53581413   171.12065651
 N     13  12   9     5.583221047236    91.55032014    11.12112580
 N     14  13  12     5.528150518591    88.43092389   359.84326247
 C      8   7   2     2.654668413270   127.24786865   181.11170171
 C     13  12   9     2.582376967257    81.72106996   188.00453233
 C     14  13  12    10.882574804710    80.56209567   166.76250791
 C     17  13  12     2.757130505230   111.08861209   183.82872609
 C     18  14  13     4.558465206823    27.27532823    36.33507194
 C     20  18  14     2.650705180609    87.95206320   148.94598259
 C     21  20  18     2.611803198586   120.14573887   359.70382047
 C     18  14  13     4.623235745386   144.15733107    82.80075377
 C     19  17  13     2.557953565794   106.29293361   359.75308708
 C     13  12   9     2.582903091751   172.21332906    33.46711076
 C     18  14  13     2.609636529225    15.08449437   309.23336894
 N     22  21  20     2.556370638369   120.73759875     0.27865223
 C     25  13  17     2.666210041769   125.60330303   182.37774668
 C     14  13  12     2.601476916169    80.24689249   177.85461986
 C     14  13  12    10.892550769017   164.51507311   312.20821879
 C     29  14  13     2.712892575415   106.58649366   178.76395472
 C     30  14  13     4.560507835333    27.10625047    82.12560436
 C     32  30  14     2.652673401891    87.90059683   149.76154742
 C     33  32  30     2.609133588376   120.14881443   359.74174632
 C     34  33  32     4.627519515267   152.49203239     2.45173620
 C     31  29  14     2.585449236669   108.16950133     0.70383075
 C     14  13  12     2.600716325456   169.26375223   353.09862627
 C     30  14  13     2.609536633043    14.68948582   353.70041132
 N     34  33  32     2.556154803934   120.85575621     0.19603406
 C     37  14  29     2.654530526499   126.01551127   180.90772073
 C     15  14  13     2.582293994346    81.61824056   183.09049352
 C      2   1   3     8.029564866989   157.40922742   135.80867029
 C     41  15  14     2.758391104639   111.05201287   175.08990246
 C     42   2   1     4.559821839776    41.78584867   206.69786056
 C     44  42   2     2.652129475853    87.95153797   233.97558675
 C     45  44  42     2.611027836043   120.11137308     0.19721020
 C     42   2   1     4.629866436820   135.97209175   117.01270967
 C     43  41  15     2.559561325344   106.26758155     0.30894352
 C     15  14  13     2.584127074516   171.87382904   332.35056460
 C     42   2   1     2.611386828803    32.59078432   255.55313976
 C      9   2   1     2.655043698059   126.98745415   178.65960636
 N     42   2   1     2.556355970587   113.57249190   144.74929886
 H      1   2   7     2.045540161723   168.42077912   205.42169225
 H      2   1   3     2.040730117440   127.66625595   188.07167059
 H      4   3   1     2.046765332980   121.09479632   179.56429188
 H      5   4   3     2.045735679835   122.75558240   179.44985513
 H      6   5   4     2.063494410506   104.45591796   100.03745701
 H      6   5   4     2.060686346547    84.67407288   209.50331232
 H      6   5   4     2.060085792120   133.89545305   322.29023179
 H     55   4   3     1.697124524196   146.87352099    52.14239126
 H     10   1   2     2.049165554525   118.69509145   186.81732416
 H     12   9   2     1.920524309565   125.29023241   180.00180175
 H     14  13  12     1.917952867083    44.97226959   359.42596618
 H     18  14  13     2.046330847636   128.03556573   234.20482432
 H     61  10   1     1.738451500170   138.92266480   236.34584115
 H     21  20  18     2.047649722989   121.05669627   180.67006309
 H     22  21  20     2.045596898814   122.73097286   180.59748951
 H     23  18  14     2.063779938267   103.92715769   234.93429879
 H     23  18  14     2.057669673245   134.19244188    12.25587044
 H     23  18  14     2.059486796529    84.85857450   125.45241208
 H     24  19  17     2.041046823986   127.28078426   178.44613241
 H     26  18  14     2.047344503340   118.76995697   244.94906660
 H     30  14  13     2.046012340948   127.99711412   279.66882698
 H     31  29  14     2.040450114918   125.22293469   180.92530585
 H     33  32  30     2.046930203877   121.01964473   180.74284758
 H     34  33  32     2.045617847496   122.70821597   180.59516895
 H     35  34  33     2.064814429233   105.73575241    97.19771933
 H     35  34  33     2.058786158072    84.05943581   206.43036958
 H     35  34  33     2.058418400901   133.08365142   318.50306270
 H     36  31  29     2.039845353366   126.61599965   178.98859863
 H     38  30  73     2.047975821711   118.77264435   359.90091293
 H     42   2   1     2.045020725966   119.31790784     1.38082931
 H     43  41  15     2.041436952892   126.36969097   182.06329380
 H     45  44  42     2.047097678177   121.10105945   179.58025624
 H     46  45  44     2.045051284662   122.72144639   179.46906377
 H     47  42   2     2.062723288131   106.65128841   315.16475048
 H     47  42   2     2.057569012371   132.46019523    94.52397119
 H     47  42   2     2.058915377895    83.63838232   206.04504406
 H     48  43  41     2.041664347903   127.23657387   181.62955349
 H     50  42   2     2.046925842384   118.77001737    94.71359229

---------------------
BASIS SET INFORMATION
---------------------
There are 3 groups of distinct atoms

 Group   1 Type C   : 17s4p1d contracted to 3s2p1d pattern {881/31/1}
 Group   2 Type N   : 17s4p1d contracted to 3s2p1d pattern {881/31/1}
 Group   3 Type H   : 4s1p contracted to 2s1p pattern {31/1}

Atom   0C    basis set group =>   1
Atom   1N    basis set group =>   2
Atom   2C    basis set group =>   1
Atom   3N    basis set group =>   2
Atom   4C    basis set group =>   1
Atom   5N    basis set group =>   2
Atom   6C    basis set group =>   1
Atom   7N    basis set group =>   2
Atom   8C    basis set group =>   1
Atom   9N    basis set group =>   2
Atom  10C    basis set group =>   1
Atom  11N    basis set group =>   2
Atom  12C    basis set group =>   1
Atom  13N    basis set group =>   2
Atom  14C    basis set group =>   1
Atom  15N    basis set group =>   2
Atom  16C    basis set group =>   1
Atom  17C    basis set group =>   1
Atom  18C    basis set group =>   1
Atom  19C    basis set group =>   1
Atom  20C    basis set group =>   1
Atom  21C    basis set group =>   1
Atom  22C    basis set group =>   1
Atom  23C    basis set group =>   1
Atom  24C    basis set group =>   1
Atom  25C    basis set group =>   1
Atom  26C    basis set group =>   1
Atom  27C    basis set group =>   1
Atom  28C    basis set group =>   1
Atom  29C    basis set group =>   1
Atom  30C    basis set group =>   1
Atom  31C    basis set group =>   1
Atom  32C    basis set group =>   1
Atom  33C    basis set group =>   1
Atom  34C    basis set group =>   1
Atom  35C    basis set group =>   1
Atom  36C    basis set group =>   1
Atom  37C    basis set group =>   1
Atom  38C    basis set group =>   1
Atom  39C    basis set group =>   1
Atom  40C    basis set group =>   1
Atom  41C    basis set group =>   1
Atom  42C    basis set group =>   1
Atom  43C    basis set group =>   1
Atom  44C    basis set group =>   1
Atom  45C    basis set group =>   1
Atom  46C    basis set group =>   1
Atom  47C    basis set group =>   1
Atom  48C    basis set group =>   1
Atom  49C    basis set group =>   1
Atom  50C    basis set group =>   1
Atom  51C    basis set group =>   1
Atom  52H    basis set group =>   3
Atom  53H    basis set group =>   3
Atom  54H    basis set group =>   3
Atom  55H    basis set group =>   3
Atom  56H    basis set group =>   3
Atom  57H    basis set group =>   3
Atom  58H    basis set group =>   3
Atom  59H    basis set group =>   3
Atom  60H    basis set group =>   3
Atom  61H    basis set group =>   3
Atom  62H    basis set group =>   3
Atom  63H    basis set group =>   3
Atom  64H    basis set group =>   3
Atom  65H    basis set group =>   3
Atom  66H    basis set group =>   3
Atom  67H    basis set group =>   3
Atom  68H    basis set group =>   3
Atom  69H    basis set group =>   3
Atom  70H    basis set group =>   3
Atom  71H    basis set group =>   3
Atom  72H    basis set group =>   3
Atom  73H    basis set group =>   3
Atom  74H    basis set group =>   3
Atom  75H    basis set group =>   3
Atom  76H    basis set group =>   3
Atom  77H    basis set group =>   3
Atom  78H    basis set group =>   3
Atom  79H    basis set group =>   3
Atom  80H    basis set group =>   3
Atom  81H    basis set group =>   3
Atom  82H    basis set group =>   3
Atom  83H    basis set group =>   3
Atom  84H    basis set group =>   3
Atom  85H    basis set group =>   3
Atom  86H    basis set group =>   3
Atom  87H    basis set group =>   3
Atom  88H    basis set group =>   3
Atom  89H    basis set group =>   3


           ************************************************************
           *        Program running with 16 parallel MPI-processes    *
           *              working on a common directory               *
           ************************************************************
------------------------------------------------------------------------------
                           ORCA GTO INTEGRAL CALCULATION
------------------------------------------------------------------------------
------------------------------------------------------------------------------
                   ___                                                        
                  /   \      - P O W E R E D   B Y -                         
                 /     \                                                     
                 |  |  |   _    _      __       _____    __    __             
                 |  |  |  | |  | |    /  \     |  _  \  |  |  /  |          
                  \  \/   | |  | |   /    \    | | | |  |  | /  /          
                 / \  \   | |__| |  /  /\  \   | |_| |  |  |/  /          
                |  |  |   |  __  | /  /__\  \  |    /   |      \           
                |  |  |   | |  | | |   __   |  |    \   |  |\   \          
                \     /   | |  | | |  |  |  |  | |\  \  |  | \   \       
                 \___/    |_|  |_| |__|  |__|  |_| \__\ |__|  \__/        
                                                                              
                      - O R C A' S   B I G   F R I E N D -                    
                                      &                                       
                       - I N T E G R A L  F E E D E R -                       
                                                                              
 v1 FN, 2020, v2 2021                                                         
------------------------------------------------------------------------------


Reading SHARK input file /scratch/allen/tmpyp4_amber_gaff2/conf1/conf1/Conf174.orca.SHARKINP.tmp ... ok
----------------------
SHARK INTEGRAL PACKAGE
----------------------

Number of atoms                             ...     90
Number of basis functions                   ...   1230
Number of shells                            ...    738
Maximum angular momentum                    ...      2
Integral batch strategy                     ... SHARK/LIBINT Hybrid
RI-J (if used) integral strategy            ... SPLIT-RIJ (Revised 2003 algorithm where possible)
Printlevel                                  ...      1
Contraction scheme used                     ... PARTIAL GENERAL contraction
Coulomb Range Separation                    ... NOT USED
Exchange Range Separation                   ... NOT USED
Finite Nucleus Model                        ... NOT USED
Auxiliary Coulomb fitting basis             ... NOT available
Auxiliary J/K fitting basis                 ... NOT available
Auxiliary Correlation fitting basis         ... NOT available
Auxiliary 'external' fitting basis          ... NOT available
Integral threshold                          ...     2.500000e-11
Primitive cut-off                           ...     2.500000e-12
Primitive pair pre-selection threshold      ...     2.500000e-12

Calculating pre-screening integrals         ... done (  0.1 sec) Dimension = 738
Calculating pre-screening integrals (ORCA)  ... done (  0.3 sec) Dimension = 426
Organizing shell pair data                  ... done (  0.7 sec)
Shell pair information
Total number of shell pairs                 ...    272691
Shell pairs after pre-screening             ...     71726
Total number of primitive shell pairs       ...    422091
Primitive shell pairs kept                  ...     92639
          la=0 lb=0:  29440 shell pairs
          la=1 lb=0:  26037 shell pairs
          la=1 lb=1:   4699 shell pairs
          la=2 lb=0:   7893 shell pairs
          la=2 lb=1:   3128 shell pairs
          la=2 lb=2:    529 shell pairs

Calculating one electron integrals          ... done (  0.2 sec)
Calculating Nuclear repulsion               ... done (  0.0 sec) ENN=   6235.403869868456 Eh

SHARK setup successfully completed in   2.1 seconds

Maximum memory used throughout the entire GTOINT-calculation: 99.1 MB


           ************************************************************
           *        Program running with 16 parallel MPI-processes    *
           *              working on a common directory               *
           ************************************************************
-------------------------------------------------------------------------------
                                 ORCA SCF
-------------------------------------------------------------------------------

------------
SCF SETTINGS
------------
Hamiltonian:
 Ab initio Hamiltonian  Method          .... Hartree-Fock(GTOs)


General Settings:
 Integral files         IntName         .... /scratch/allen/tmpyp4_amber_gaff2/conf1/conf1/Conf174.orca
 Hartree-Fock type      HFTyp           .... RHF
 Total Charge           Charge          ....    0
 Multiplicity           Mult            ....    1
 Number of Electrons    NEL             ....  358
 Basis Dimension        Dim             ....  918
 Nuclear Repulsion      ENuc            ....   6235.4038698685 Eh

Convergence Acceleration:
 DIIS                   CNVDIIS         .... on
   Start iteration      DIISMaxIt       ....    12
   Startup error        DIISStart       ....  0.200000
   # of expansion vecs  DIISMaxEq       ....     5
   Bias factor          DIISBfac        ....   1.050
   Max. coefficient     DIISMaxC        ....  10.000
 Trust-Rad. Augm. Hess. CNVTRAH         .... auto
   Auto Start mean grad. ratio tolernc. ....  1.125000
   Auto Start start iteration           ....    20
   Auto Start num. interpolation iter.  ....    10
   Max. Number of Micro iterations      ....    16
   Max. Number of Macro iterations      .... Maxiter - #DIIS iter
   Number of Davidson start vectors     ....     2
   Converg. threshold I  (grad. norm)   ....   1.000e-05
   Converg. threshold II (energy diff.) ....   1.000e-08
   Grad. Scal. Fac. for Micro threshold ....   0.100
   Minimum threshold for Micro iter.    ....   0.010
   NR start threshold (gradient norm)   ....   0.001
   Initial trust radius                 ....   0.400
   Minimum AH scaling param. (alpha)    ....   1.000
   Maximum AH scaling param. (alpha)    .... 1000.000
   Orbital update algorithm             .... Taylor
   White noise on init. David. guess    .... on
   Maximum white noise                  ....   0.010
   Quad. conv. algorithm                .... NR
 SOSCF                  CNVSOSCF        .... on
   Start iteration      SOSCFMaxIt      ....   150
   Startup grad/error   SOSCFStart      ....  0.003300
 Level Shifting         CNVShift        .... on
   Level shift para.    LevelShift      ....    0.2500
   Turn off err/grad.   ShiftErr        ....    0.0010
 Zerner damping         CNVZerner       .... off
 Static damping         CNVDamp         .... on
   Fraction old density DampFac         ....    0.7000
   Max. Damping (<1)    DampMax         ....    0.9800
   Min. Damping (>=0)   DampMin         ....    0.0000
   Turn off err/grad.   DampErr         ....    0.1000
 Fernandez-Rico         CNVRico         .... off

SCF Procedure:
 Maximum # iterations   MaxIter         ....   125
 SCF integral mode      SCFMode         .... Direct
   Integral package                     .... SHARK and LIBINT hybrid scheme
 Reset frequency        DirectResetFreq ....    20
 Integral Threshold     Thresh          ....  2.500e-11 Eh
 Primitive CutOff       TCut            ....  2.500e-12 Eh

Convergence Tolerance:
 Convergence Check Mode ConvCheckMode   .... Total+1el-Energy
 Convergence forced     ConvForced      .... 1
 Energy Change          TolE            ....  1.000e-08 Eh
 1-El. energy change                    ....  1.000e-05 Eh
 Orbital Gradient       TolG            ....  1.000e-05
 Orbital Rotation angle TolX            ....  1.000e-05
 DIIS Error             TolErr          ....  5.000e-07


Diagonalization of the overlap matrix:
Smallest eigenvalue                        ... 1.650e-04
Time for diagonalization                   ...    0.435 sec
Threshold for overlap eigenvalues          ... 1.000e-08
Number of eigenvalues below threshold      ... 0
Time for construction of square roots      ...    0.269 sec
Total time needed                          ...    0.711 sec

Time for model grid setup =    1.293 sec

------------------------------
INITIAL GUESS: MODEL POTENTIAL
------------------------------
Loading Hartree-Fock densities                     ... done
Calculating cut-offs                               ... done
Initializing the effective Hamiltonian             ... done
Setting up the integral package (SHARK)            ... done
Starting the Coulomb interaction                   ... done (   1.4 sec)
Reading the grid                                   ... done
Mapping shells                                     ... done
Starting the XC term evaluation                    ... done (   0.2 sec)
Transforming the Hamiltonian                       ... done (   0.3 sec)
Diagonalizing the Hamiltonian                      ... done (   0.4 sec)
Back transforming the eigenvectors                 ... done (   0.1 sec)
Now organizing SCF variables                       ... done
                      ------------------
                      INITIAL GUESS DONE (   3.8 sec)
                      ------------------
--------------
SCF ITERATIONS
--------------
ITER       Energy         Delta-E        Max-DP      RMS-DP      [F,P]     Damp
               ***  Starting incremental Fock matrix formation  ***
  0  -2121.5894000616   0.000000000000 0.07903034  0.00129977  0.2310785 0.7000
  1  -2122.2297056340  -0.640305572357 0.06596941  0.00106164  0.1434391 0.7000
                               ***Turning on DIIS***
  2  -2122.6295281739  -0.399822539957 0.13986921  0.00240107  0.0803222 0.0000
  3  -2118.0502925338   4.579235640129 0.08953685  0.00073399  0.0433819 0.0000
  4  -2123.3320354376  -5.281742903811 0.02630637  0.00024049  0.0093434 0.0000
  5  -2123.4576555569  -0.125620119294 0.01215856  0.00013682  0.0048118 0.0000
  6  -2123.4415288225   0.016126734356 0.00758811  0.00008717  0.0022519 0.0000
  7  -2123.5329648135  -0.091435990969 0.00472533  0.00006806  0.0016401 0.0000
  8  -2123.5387731081  -0.005808294578 0.00375313  0.00006487  0.0015373 0.0000
  9  -2123.5126732358   0.026099872292 0.00269972  0.00004634  0.0012391 0.0000
 10  -2123.5200101016  -0.007336865827 0.00545950  0.00009714  0.0009728 0.0000
                      *** Initiating the SOSCF procedure ***
                           *** Shutting down DIIS ***
                      *** Re-Reading the Fockian *** 
                      *** Removing any level shift *** 
ITER      Energy       Delta-E        Grad      Rot      Max-DP    RMS-DP
 11  -2123.41535188   0.1046582260  0.000185  0.000185  0.000246  0.000005
               *** Restarting incremental Fock matrix formation ***
 12  -2123.48051338  -0.0651615004  0.000928  0.006212  0.001524  0.000036
 13  -2123.48062556  -0.0001121821  0.001130  0.030844  0.006956  0.000139
 14  -2123.48080914  -0.0001835833  0.000409  0.002182  0.000637  0.000013
 15  -2123.48082426  -0.0000151228  0.000158  0.001805  0.000465  0.000012
 16  -2123.48083030  -0.0000060405  0.000135  0.002045  0.000505  0.000008
 17  -2123.48083267  -0.0000023623  0.000109  0.001625  0.000273  0.000006
 18  -2123.48083362  -0.0000009482  0.000053  0.000645  0.000197  0.000003
 19  -2123.48083414  -0.0000005292  0.000039  0.001079  0.000204  0.000004
 20  -2123.48083446  -0.0000003120  0.000021  0.000643  0.000101  0.000002
 21  -2123.48083459  -0.0000001330  0.000024  0.000856  0.000125  0.000003
 22  -2123.48083472  -0.0000001291  0.000017  0.000880  0.000137  0.000003
 23  -2123.48083481  -0.0000000871  0.000013  0.000408  0.000069  0.000001
 24  -2123.48083485  -0.0000000413  0.000007  0.000327  0.000053  0.000001
 25  -2123.48083488  -0.0000000302  0.000007  0.000118  0.000034  0.000001
 26  -2123.48083489  -0.0000000148  0.000006  0.000075  0.000028  0.000000
 27  -2123.48083490  -0.0000000056  0.000003  0.000061  0.000019  0.000000
                 **** Energy Check signals convergence ****
              ***Rediagonalizing the Fockian in SOSCF/NRSCF***

               *****************************************************
               *                     SUCCESS                       *
               *           SCF CONVERGED AFTER  28 CYCLES          *
               *****************************************************


----------------
TOTAL SCF ENERGY
----------------

Total Energy       :        -2123.48083490 Eh          -57782.85114 eV

Components:
Nuclear Repulsion  :         6235.40386987 Eh          169673.96536 eV
Electronic Energy  :        -8358.88470477 Eh         -227456.81650 eV
One Electron Energy:       -15311.26998085 Eh         -416640.83779 eV
Two Electron Energy:         6952.38527608 Eh          189184.02129 eV

Virial components:
Potential Energy   :        -4246.05759536 Eh         -115541.10117 eV
Kinetic Energy     :         2122.57676046 Eh           57758.25002 eV
Virial Ratio       :            2.00042593


---------------
SCF CONVERGENCE
---------------

  Last Energy change         ...   -4.5729e-09  Tolerance :   1.0000e-08
  Last MAX-Density change    ...    9.2607e-06  Tolerance :   1.0000e-07
  Last RMS-Density change    ...    1.8442e-07  Tolerance :   5.0000e-09
  Last Orbital Gradient      ...    1.6758e-06  Tolerance :   1.0000e-05
  Last Orbital Rotation      ...    4.6422e-05  Tolerance :   1.0000e-05

             **** THE GBW FILE WAS UPDATED (/scratch/allen/tmpyp4_amber_gaff2/conf1/conf1/Conf174.orca.gbw) ****
             **** DENSITY /scratch/allen/tmpyp4_amber_gaff2/conf1/conf1/Conf174.orca.scfp WAS UPDATED ****
             **** ENERGY FILE WAS UPDATED (/scratch/allen/tmpyp4_amber_gaff2/conf1/conf1/Conf174.orca.en.tmp) ****
             **** THE GBW FILE WAS UPDATED (/scratch/allen/tmpyp4_amber_gaff2/conf1/conf1/Conf174.orca.gbw) ****
             **** DENSITY /scratch/allen/tmpyp4_amber_gaff2/conf1/conf1/Conf174.orca.scfp WAS UPDATED ****
----------------
ORBITAL ENERGIES
----------------

  NO   OCC          E(Eh)            E(eV) 
   0   2.0000     -15.680326      -426.6834 
   1   2.0000     -15.634995      -425.4498 
   2   2.0000     -15.631085      -425.3434 
   3   2.0000     -15.587701      -424.1629 
   4   2.0000     -15.525375      -422.4669 
   5   2.0000     -15.515380      -422.1950 
   6   2.0000     -15.453631      -420.5147 
   7   2.0000     -15.439832      -420.1392 
   8   2.0000     -11.329958      -308.3038 
   9   2.0000     -11.328682      -308.2691 
  10   2.0000     -11.328249      -308.2573 
  11   2.0000     -11.299945      -307.4871 
  12   2.0000     -11.297909      -307.4317 
  13   2.0000     -11.293869      -307.3218 
  14   2.0000     -11.290618      -307.2333 
  15   2.0000     -11.287424      -307.1464 
  16   2.0000     -11.285857      -307.1038 
  17   2.0000     -11.282542      -307.0136 
  18   2.0000     -11.269460      -306.6576 
  19   2.0000     -11.263713      -306.5012 
  20   2.0000     -11.262722      -306.4743 
  21   2.0000     -11.250332      -306.1371 
  22   2.0000     -11.248578      -306.0894 
  23   2.0000     -11.238728      -305.8213 
  24   2.0000     -11.235907      -305.7446 
  25   2.0000     -11.231868      -305.6347 
  26   2.0000     -11.231206      -305.6167 
  27   2.0000     -11.229181      -305.5616 
  28   2.0000     -11.228919      -305.5544 
  29   2.0000     -11.211581      -305.0826 
  30   2.0000     -11.210089      -305.0420 
  31   2.0000     -11.193318      -304.5857 
  32   2.0000     -11.191689      -304.5413 
  33   2.0000     -11.191626      -304.5396 
  34   2.0000     -11.188142      -304.4448 
  35   2.0000     -11.187939      -304.4393 
  36   2.0000     -11.186716      -304.4060 
  37   2.0000     -11.175191      -304.0924 
  38   2.0000     -11.172899      -304.0300 
  39   2.0000     -11.171790      -303.9998 
  40   2.0000     -11.170114      -303.9543 
  41   2.0000     -11.170015      -303.9516 
  42   2.0000     -11.169051      -303.9253 
  43   2.0000     -11.161705      -303.7254 
  44   2.0000     -11.160766      -303.6999 
  45   2.0000     -11.156849      -303.5933 
  46   2.0000     -11.156279      -303.5778 
  47   2.0000     -11.151473      -303.4470 
  48   2.0000     -11.146332      -303.3071 
  49   2.0000     -11.135012      -302.9991 
  50   2.0000     -11.129819      -302.8578 
  51   2.0000     -11.117223      -302.5150 
  52   2.0000      -1.360823       -37.0299 
  53   2.0000      -1.322089       -35.9759 
  54   2.0000      -1.318979       -35.8912 
  55   2.0000      -1.279932       -34.8287 
  56   2.0000      -1.226575       -33.3768 
  57   2.0000      -1.210191       -32.9310 
  58   2.0000      -1.173281       -31.9266 
  59   2.0000      -1.150906       -31.3177 
  60   2.0000      -1.143987       -31.1295 
  61   2.0000      -1.110882       -30.2286 
  62   2.0000      -1.108507       -30.1640 
  63   2.0000      -1.082475       -29.4557 
  64   2.0000      -1.076897       -29.3038 
  65   2.0000      -1.046226       -28.4693 
  66   2.0000      -1.043655       -28.3993 
  67   2.0000      -1.041388       -28.3376 
  68   2.0000      -1.015133       -27.6232 
  69   2.0000      -1.013694       -27.5840 
  70   2.0000      -1.008926       -27.4543 
  71   2.0000      -0.993980       -27.0476 
  72   2.0000      -0.985369       -26.8132 
  73   2.0000      -0.982095       -26.7242 
  74   2.0000      -0.973688       -26.4954 
  75   2.0000      -0.961932       -26.1755 
  76   2.0000      -0.954564       -25.9750 
  77   2.0000      -0.946039       -25.7430 
  78   2.0000      -0.937913       -25.5219 
  79   2.0000      -0.916714       -24.9451 
  80   2.0000      -0.910946       -24.7881 
  81   2.0000      -0.897942       -24.4342 
  82   2.0000      -0.877346       -23.8738 
  83   2.0000      -0.873045       -23.7568 
  84   2.0000      -0.870287       -23.6817 
  85   2.0000      -0.860736       -23.4218 
  86   2.0000      -0.842602       -22.9284 
  87   2.0000      -0.838303       -22.8114 
  88   2.0000      -0.828581       -22.5468 
  89   2.0000      -0.796435       -21.6721 
  90   2.0000      -0.788842       -21.4655 
  91   2.0000      -0.770106       -20.9556 
  92   2.0000      -0.753344       -20.4995 
  93   2.0000      -0.734195       -19.9785 
  94   2.0000      -0.727865       -19.8062 
  95   2.0000      -0.725214       -19.7341 
  96   2.0000      -0.719628       -19.5821 
  97   2.0000      -0.717669       -19.5288 
  98   2.0000      -0.713038       -19.4027 
  99   2.0000      -0.698670       -19.0118 
 100   2.0000      -0.698134       -18.9972 
 101   2.0000      -0.693290       -18.8654 
 102   2.0000      -0.685629       -18.6569 
 103   2.0000      -0.684582       -18.6284 
 104   2.0000      -0.679251       -18.4834 
 105   2.0000      -0.674379       -18.3508 
 106   2.0000      -0.672653       -18.3038 
 107   2.0000      -0.660608       -17.9761 
 108   2.0000      -0.658092       -17.9076 
 109   2.0000      -0.653492       -17.7824 
 110   2.0000      -0.651555       -17.7297 
 111   2.0000      -0.646541       -17.5933 
 112   2.0000      -0.645711       -17.5707 
 113   2.0000      -0.638099       -17.3636 
 114   2.0000      -0.635610       -17.2958 
 115   2.0000      -0.627979       -17.0882 
 116   2.0000      -0.622777       -16.9466 
 117   2.0000      -0.620457       -16.8835 
 118   2.0000      -0.613448       -16.6928 
 119   2.0000      -0.612869       -16.6770 
 120   2.0000      -0.611957       -16.6522 
 121   2.0000      -0.610862       -16.6224 
 122   2.0000      -0.600975       -16.3534 
 123   2.0000      -0.588975       -16.0268 
 124   2.0000      -0.582269       -15.8444 
 125   2.0000      -0.580811       -15.8047 
 126   2.0000      -0.580058       -15.7842 
 127   2.0000      -0.571408       -15.5488 
 128   2.0000      -0.567297       -15.4369 
 129   2.0000      -0.559791       -15.2327 
 130   2.0000      -0.555233       -15.1087 
 131   2.0000      -0.548112       -14.9149 
 132   2.0000      -0.543005       -14.7759 
 133   2.0000      -0.540904       -14.7188 
 134   2.0000      -0.539128       -14.6704 
 135   2.0000      -0.535611       -14.5747 
 136   2.0000      -0.531522       -14.4635 
 137   2.0000      -0.518196       -14.1008 
 138   2.0000      -0.517522       -14.0825 
 139   2.0000      -0.513982       -13.9862 
 140   2.0000      -0.511842       -13.9279 
 141   2.0000      -0.510442       -13.8898 
 142   2.0000      -0.508596       -13.8396 
 143   2.0000      -0.505088       -13.7441 
 144   2.0000      -0.501655       -13.6507 
 145   2.0000      -0.495491       -13.4830 
 146   2.0000      -0.489038       -13.3074 
 147   2.0000      -0.481350       -13.0982 
 148   2.0000      -0.476494       -12.9661 
 149   2.0000      -0.467815       -12.7299 
 150   2.0000      -0.466178       -12.6853 
 151   2.0000      -0.456328       -12.4173 
 152   2.0000      -0.451254       -12.2792 
 153   2.0000      -0.445276       -12.1166 
 154   2.0000      -0.438345       -11.9280 
 155   2.0000      -0.427583       -11.6351 
 156   2.0000      -0.409289       -11.1373 
 157   2.0000      -0.392490       -10.6802 
 158   2.0000      -0.389263       -10.5924 
 159   2.0000      -0.387555       -10.5459 
 160   2.0000      -0.378917       -10.3109 
 161   2.0000      -0.374867       -10.2006 
 162   2.0000      -0.367540       -10.0013 
 163   2.0000      -0.357320        -9.7232 
 164   2.0000      -0.355358        -9.6698 
 165   2.0000      -0.341657        -9.2969 
 166   2.0000      -0.337745        -9.1905 
 167   2.0000      -0.325077        -8.8458 
 168   2.0000      -0.320518        -8.7217 
 169   2.0000      -0.305852        -8.3226 
 170   2.0000      -0.299177        -8.1410 
 171   2.0000      -0.285544        -7.7700 
 172   2.0000      -0.278275        -7.5723 
 173   2.0000      -0.263253        -7.1635 
 174   2.0000      -0.241802        -6.5798 
 175   2.0000      -0.190052        -5.1716 
 176   2.0000      -0.181319        -4.9339 
 177   2.0000      -0.080271        -2.1843 
 178   2.0000      -0.059771        -1.6265 
 179   0.0000       0.028304         0.7702 
 180   0.0000       0.065185         1.7738 
 181   0.0000       0.090171         2.4537 
 182   0.0000       0.105899         2.8817 
 183   0.0000       0.116287         3.1643 
 184   0.0000       0.136452         3.7130 
 185   0.0000       0.139802         3.8042 
 186   0.0000       0.140690         3.8284 
 187   0.0000       0.164314         4.4712 
 188   0.0000       0.164788         4.4841 
 189   0.0000       0.166051         4.5185 
 190   0.0000       0.174191         4.7400 
 191   0.0000       0.180085         4.9004 
 192   0.0000       0.183518         4.9938 
 193   0.0000       0.189565         5.1583 
 194   0.0000       0.204312         5.5596 
 195   0.0000       0.205947         5.6041 
 196   0.0000       0.207680         5.6513 
 197   0.0000       0.209109         5.6901 
 198   0.0000       0.216291         5.8856 
 199   0.0000       0.229197         6.2368 
 200   0.0000       0.233391         6.3509 
 201   0.0000       0.233791         6.3618 
 202   0.0000       0.238629         6.4934 
 203   0.0000       0.239997         6.5306 
 204   0.0000       0.245916         6.6917 
 205   0.0000       0.254695         6.9306 
 206   0.0000       0.256281         6.9738 
 207   0.0000       0.257377         7.0036 
 208   0.0000       0.259289         7.0556 
 209   0.0000       0.260349         7.0845 
 210   0.0000       0.264010         7.1841 
 211   0.0000       0.266644         7.2557 
 212   0.0000       0.268703         7.3118 
 213   0.0000       0.270373         7.3572 
 214   0.0000       0.272724         7.4212 
 215   0.0000       0.276508         7.5242 
 216   0.0000       0.278843         7.5877 
 217   0.0000       0.281540         7.6611 
 218   0.0000       0.285224         7.7613 
 219   0.0000       0.288047         7.8382 
 220   0.0000       0.288909         7.8616 
 221   0.0000       0.292479         7.9588 
 222   0.0000       0.294698         8.0191 
 223   0.0000       0.296110         8.0576 
 224   0.0000       0.297879         8.1057 
 225   0.0000       0.301299         8.1988 
 226   0.0000       0.304658         8.2902 
 227   0.0000       0.308312         8.3896 
 228   0.0000       0.316140         8.6026 
 229   0.0000       0.324574         8.8321 
 230   0.0000       0.328130         8.9289 
 231   0.0000       0.334492         9.1020 
 232   0.0000       0.343962         9.3597 
 233   0.0000       0.356674         9.7056 
 234   0.0000       0.367890        10.0108 
 235   0.0000       0.369882        10.0650 
 236   0.0000       0.376713        10.2509 
 237   0.0000       0.390948        10.6382 
 238   0.0000       0.396111        10.7787 
 239   0.0000       0.400413        10.8958 
 240   0.0000       0.406346        11.0572 
 241   0.0000       0.410952        11.1826 
 242   0.0000       0.412779        11.2323 
 243   0.0000       0.421163        11.4604 
 244   0.0000       0.428585        11.6624 
 245   0.0000       0.435585        11.8529 
 246   0.0000       0.438676        11.9370 
 247   0.0000       0.441090        12.0027 
 248   0.0000       0.441618        12.0170 
 249   0.0000       0.449468        12.2306 
 250   0.0000       0.453673        12.3451 
 251   0.0000       0.462745        12.5919 
 252   0.0000       0.466204        12.6861 
 253   0.0000       0.469879        12.7860 
 254   0.0000       0.471423        12.8281 
 255   0.0000       0.474182        12.9031 
 256   0.0000       0.476996        12.9797 
 257   0.0000       0.481071        13.0906 
 258   0.0000       0.489890        13.3306 
 259   0.0000       0.494420        13.4538 
 260   0.0000       0.504459        13.7270 
 261   0.0000       0.505023        13.7424 
 262   0.0000       0.505892        13.7660 
 263   0.0000       0.511879        13.9289 
 264   0.0000       0.516271        14.0484 
 265   0.0000       0.522050        14.2057 
 266   0.0000       0.525110        14.2890 
 267   0.0000       0.528115        14.3708 
 268   0.0000       0.535749        14.5785 
 269   0.0000       0.536786        14.6067 
 270   0.0000       0.544418        14.8144 
 271   0.0000       0.550457        14.9787 
 272   0.0000       0.557793        15.1783 
 273   0.0000       0.560332        15.2474 
 274   0.0000       0.561813        15.2877 
 275   0.0000       0.566513        15.4156 
 276   0.0000       0.573224        15.5982 
 277   0.0000       0.574641        15.6368 
 278   0.0000       0.580211        15.7883 
 279   0.0000       0.586153        15.9500 
 280   0.0000       0.591550        16.0969 
 281   0.0000       0.593613        16.1530 
 282   0.0000       0.595263        16.1979 
 283   0.0000       0.595679        16.2093 
 284   0.0000       0.598066        16.2742 
 285   0.0000       0.598896        16.2968 
 286   0.0000       0.603563        16.4238 
 287   0.0000       0.609952        16.5976 
 288   0.0000       0.616527        16.7765 
 289   0.0000       0.624873        17.0037 
 290   0.0000       0.626487        17.0476 
 291   0.0000       0.628669        17.1070 
 292   0.0000       0.631468        17.1831 
 293   0.0000       0.635957        17.3053 
 294   0.0000       0.645902        17.5759 
 295   0.0000       0.649263        17.6673 
 296   0.0000       0.653512        17.7830 
 297   0.0000       0.655426        17.8350 
 298   0.0000       0.661203        17.9922 
 299   0.0000       0.664472        18.0812 
 300   0.0000       0.670494        18.2451 
 301   0.0000       0.675341        18.3770 
 302   0.0000       0.676841        18.4178 
 303   0.0000       0.680036        18.5047 
 304   0.0000       0.681464        18.5436 
 305   0.0000       0.685229        18.6460 
 306   0.0000       0.689247        18.7554 
 307   0.0000       0.692886        18.8544 
 308   0.0000       0.695224        18.9180 
 309   0.0000       0.700148        19.0520 
 310   0.0000       0.703127        19.1331 
 311   0.0000       0.704846        19.1798 
 312   0.0000       0.707806        19.2604 
 313   0.0000       0.710409        19.3312 
 314   0.0000       0.710840        19.3429 
 315   0.0000       0.714756        19.4495 
 316   0.0000       0.716735        19.5033 
 317   0.0000       0.719053        19.5664 
 318   0.0000       0.724812        19.7231 
 319   0.0000       0.727221        19.7887 
 320   0.0000       0.728112        19.8129 
 321   0.0000       0.730430        19.8760 
 322   0.0000       0.731318        19.9002 
 323   0.0000       0.734495        19.9866 
 324   0.0000       0.737092        20.0573 
 325   0.0000       0.741860        20.1870 
 326   0.0000       0.745214        20.2783 
 327   0.0000       0.748674        20.3724 
 328   0.0000       0.750248        20.4153 
 329   0.0000       0.753561        20.5054 
 330   0.0000       0.758754        20.6467 
 331   0.0000       0.763443        20.7743 
 332   0.0000       0.766533        20.8584 
 333   0.0000       0.768414        20.9096 
 334   0.0000       0.771191        20.9852 
 335   0.0000       0.775831        21.1114 
 336   0.0000       0.779034        21.1986 
 337   0.0000       0.782707        21.2986 
 338   0.0000       0.786261        21.3953 
 339   0.0000       0.790638        21.5143 
 340   0.0000       0.792652        21.5692 
 341   0.0000       0.797749        21.7079 
 342   0.0000       0.799222        21.7479 
 343   0.0000       0.804964        21.9042 
 344   0.0000       0.806594        21.9486 
 345   0.0000       0.808686        22.0055 
 346   0.0000       0.810783        22.0625 
 347   0.0000       0.811514        22.0824 
 348   0.0000       0.815857        22.2006 
 349   0.0000       0.816599        22.2208 
 350   0.0000       0.818656        22.2768 
 351   0.0000       0.821982        22.3673 
 352   0.0000       0.823853        22.4182 
 353   0.0000       0.828936        22.5565 
 354   0.0000       0.830404        22.5964 
 355   0.0000       0.832515        22.6539 
 356   0.0000       0.836043        22.7499 
 357   0.0000       0.836525        22.7630 
 358   0.0000       0.838415        22.8144 
 359   0.0000       0.841784        22.9061 
 360   0.0000       0.842898        22.9364 
 361   0.0000       0.843608        22.9557 
 362   0.0000       0.847094        23.0506 
 363   0.0000       0.849449        23.1147 
 364   0.0000       0.852017        23.1846 
 365   0.0000       0.857367        23.3301 
 366   0.0000       0.858897        23.3718 
 367   0.0000       0.864417        23.5220 
 368   0.0000       0.865143        23.5417 
 369   0.0000       0.868624        23.6365 
 370   0.0000       0.869363        23.6566 
 371   0.0000       0.873221        23.7616 
 372   0.0000       0.877672        23.8827 
 373   0.0000       0.878351        23.9012 
 374   0.0000       0.879465        23.9315 
 375   0.0000       0.884678        24.0733 
 376   0.0000       0.890449        24.2303 
 377   0.0000       0.891808        24.2673 
 378   0.0000       0.893214        24.3056 
 379   0.0000       0.895266        24.3614 
 380   0.0000       0.896624        24.3984 
 381   0.0000       0.898585        24.4517 
 382   0.0000       0.898957        24.4619 
 383   0.0000       0.902168        24.5492 
 384   0.0000       0.906424        24.6650 
 385   0.0000       0.907224        24.6868 
 386   0.0000       0.909782        24.7564 
 387   0.0000       0.912177        24.8216 
 388   0.0000       0.915065        24.9002 
 389   0.0000       0.917863        24.9763 
 390   0.0000       0.920472        25.0473 
 391   0.0000       0.926863        25.2212 
 392   0.0000       0.927641        25.2424 
 393   0.0000       0.929008        25.2796 
 394   0.0000       0.930491        25.3200 
 395   0.0000       0.934772        25.4364 
 396   0.0000       0.935635        25.4599 
 397   0.0000       0.941819        25.6282 
 398   0.0000       0.942483        25.6463 
 399   0.0000       0.946276        25.7495 
 400   0.0000       0.949103        25.8264 
 401   0.0000       0.952786        25.9266 
 402   0.0000       0.955941        26.0125 
 403   0.0000       0.958037        26.0695 
 404   0.0000       0.961232        26.1565 
 405   0.0000       0.964893        26.2561 
 406   0.0000       0.969126        26.3713 
 407   0.0000       0.979949        26.6658 
 408   0.0000       0.981930        26.7197 
 409   0.0000       0.986340        26.8397 
 410   0.0000       0.988804        26.9067 
 411   0.0000       0.994607        27.0646 
 412   0.0000       0.998121        27.1603 
 413   0.0000       1.004829        27.3428 
 414   0.0000       1.011211        27.5165 
 415   0.0000       1.015282        27.6272 
 416   0.0000       1.016001        27.6468 
 417   0.0000       1.023472        27.8501 
 418   0.0000       1.025136        27.8954 
 419   0.0000       1.031025        28.0556 
 420   0.0000       1.035452        28.1761 
 421   0.0000       1.039954        28.2986 
 422   0.0000       1.050293        28.5799 
 423   0.0000       1.053085        28.6559 
 424   0.0000       1.054409        28.6919 
 425   0.0000       1.073322        29.2066 
 426   0.0000       1.077490        29.3200 
 427   0.0000       1.078693        29.3527 
 428   0.0000       1.082429        29.4544 
 429   0.0000       1.083676        29.4883 
 430   0.0000       1.089105        29.6361 
 431   0.0000       1.094528        29.7836 
 432   0.0000       1.099336        29.9145 
 433   0.0000       1.102182        29.9919 
 434   0.0000       1.107877        30.1469 
 435   0.0000       1.112526        30.2734 
 436   0.0000       1.113255        30.2932 
 437   0.0000       1.117867        30.4187 
 438   0.0000       1.121037        30.5050 
 439   0.0000       1.123366        30.5683 
 440   0.0000       1.126133        30.6436 
 441   0.0000       1.128468        30.7072 
 442   0.0000       1.134478        30.8707 
 443   0.0000       1.136790        30.9336 
 444   0.0000       1.137012        30.9397 
 445   0.0000       1.141980        31.0748 
 446   0.0000       1.147744        31.2317 
 447   0.0000       1.151600        31.3366 
 448   0.0000       1.154515        31.4159 
 449   0.0000       1.155282        31.4368 
 450   0.0000       1.164095        31.6766 
 451   0.0000       1.166146        31.7325 
 452   0.0000       1.167264        31.7629 
 453   0.0000       1.168304        31.7912 
 454   0.0000       1.169816        31.8323 
 455   0.0000       1.176443        32.0126 
 456   0.0000       1.183615        32.2078 
 457   0.0000       1.189939        32.3799 
 458   0.0000       1.194412        32.5016 
 459   0.0000       1.199330        32.6354 
 460   0.0000       1.202591        32.7242 
 461   0.0000       1.205534        32.8042 
 462   0.0000       1.206516        32.8310 
 463   0.0000       1.208309        32.8798 
 464   0.0000       1.212474        32.9931 
 465   0.0000       1.215274        33.0693 
 466   0.0000       1.221986        33.2519 
 467   0.0000       1.228405        33.4266 
 468   0.0000       1.230119        33.4732 
 469   0.0000       1.231635        33.5145 
 470   0.0000       1.236351        33.6428 
 471   0.0000       1.239814        33.7370 
 472   0.0000       1.240537        33.7567 
 473   0.0000       1.242217        33.8025 
 474   0.0000       1.243781        33.8450 
 475   0.0000       1.247773        33.9536 
 476   0.0000       1.252507        34.0825 
 477   0.0000       1.253094        34.0984 
 478   0.0000       1.256466        34.1902 
 479   0.0000       1.260881        34.3103 
 480   0.0000       1.262852        34.3640 
 481   0.0000       1.270013        34.5588 
 482   0.0000       1.271201        34.5911 
 483   0.0000       1.273634        34.6574 
 484   0.0000       1.274592        34.6834 
 485   0.0000       1.281715        34.8772 
 486   0.0000       1.286544        35.0086 
 487   0.0000       1.290259        35.1097 
 488   0.0000       1.291975        35.1564 
 489   0.0000       1.296930        35.2913 
 490   0.0000       1.298782        35.3416 
 491   0.0000       1.302090        35.4317 
 492   0.0000       1.305505        35.5246 
 493   0.0000       1.309658        35.6376 
 494   0.0000       1.313730        35.7484 
 495   0.0000       1.318617        35.8814 
 496   0.0000       1.320153        35.9232 
 497   0.0000       1.325028        36.0559 
 498   0.0000       1.327547        36.1244 
 499   0.0000       1.330948        36.2169 
 500   0.0000       1.334948        36.3258 
 501   0.0000       1.338708        36.4281 
 502   0.0000       1.342573        36.5333 
 503   0.0000       1.348065        36.6827 
 504   0.0000       1.349434        36.7200 
 505   0.0000       1.352020        36.7903 
 506   0.0000       1.352528        36.8042 
 507   0.0000       1.357629        36.9430 
 508   0.0000       1.361802        37.0565 
 509   0.0000       1.363848        37.1122 
[...]
      px      :     0.043622
      py      :     0.014043
 77 H s       :     0.884401  s :     0.884401
      pz      :     0.047988  p :     0.079303
      px      :     0.015024
      py      :     0.016291
 78 H s       :     0.884766  s :     0.884766
      pz      :     0.025888  p :     0.079271
      px      :     0.020452
      py      :     0.032931
 79 H s       :     0.910728  s :     0.910728
      pz      :     0.021792  p :     0.086303
      px      :     0.021657
      py      :     0.042854
 80 H s       :     0.864283  s :     0.864283
      pz      :     0.039403  p :     0.084856
      px      :     0.030302
      py      :     0.015151
 81 H s       :     0.886845  s :     0.886845
      pz      :     0.037824  p :     0.084126
      px      :     0.016185
      py      :     0.030118
 82 H s       :     0.916181  s :     0.916181
      pz      :     0.021963  p :     0.086720
      px      :     0.031655
      py      :     0.033102
 83 H s       :     0.873550  s :     0.873550
      pz      :     0.039263  p :     0.084092
      px      :     0.015279
      py      :     0.029550
 84 H s       :     0.886787  s :     0.886787
      pz      :     0.035760  p :     0.083422
      px      :     0.031691
      py      :     0.015970
 85 H s       :     0.892912  s :     0.892912
      pz      :     0.022487  p :     0.079780
      px      :     0.014072
      py      :     0.043220
 86 H s       :     0.891072  s :     0.891072
      pz      :     0.024728  p :     0.078821
      px      :     0.032975
      py      :     0.021118
 87 H s       :     0.889882  s :     0.889882
      pz      :     0.048015  p :     0.078737
      px      :     0.015585
      py      :     0.015137
 88 H s       :     0.910524  s :     0.910524
      pz      :     0.021632  p :     0.087029
      px      :     0.042938
      py      :     0.022458
 89 H s       :     0.871020  s :     0.871020
      pz      :     0.037961  p :     0.083854
      px      :     0.030504
      py      :     0.015390


                      *****************************
                      * MAYER POPULATION ANALYSIS *
                      *****************************

  NA   - Mulliken gross atomic population
  ZA   - Total nuclear charge
  QA   - Mulliken gross atomic charge
  VA   - Mayer's total valence
  BVA  - Mayer's bonded valence
  FA   - Mayer's free valence

  ATOM       NA         ZA         QA         VA         BVA        FA
  0 C      5.7802     6.0000     0.2198     3.8476     3.8476     0.0000
  1 N      7.4558     7.0000    -0.4558     3.3468     3.3468     0.0000
  2 C      6.0766     6.0000    -0.0766     3.9236     3.9236    -0.0000
  3 N      7.3417     7.0000    -0.3417     3.4558     3.4558    -0.0000
  4 C      6.0843     6.0000    -0.0843     4.1495     4.1495    -0.0000
  5 N      7.5686     7.0000    -0.5686     3.0954     3.0954    -0.0000
  6 C      6.1153     6.0000    -0.1153     3.9362     3.9362     0.0000
  7 N      7.3411     7.0000    -0.3411     3.4320     3.4320     0.0000
  8 C      5.7775     6.0000     0.2225     3.8523     3.8523     0.0000
  9 N      7.5625     7.0000    -0.5625     3.0770     3.0770    -0.0000
 10 C      5.8810     6.0000     0.1190     3.9092     3.9092     0.0000
 11 N      7.4382     7.0000    -0.4382     3.3793     3.3793     0.0000
 12 C      6.0429     6.0000    -0.0429     3.8197     3.8197    -0.0000
 13 N      7.4292     7.0000    -0.4292     3.4291     3.4291     0.0000
 14 C      5.7918     6.0000     0.2082     3.8061     3.8061    -0.0000
 15 N      7.4411     7.0000    -0.4411     3.3717     3.3717     0.0000
 16 C      5.7645     6.0000     0.2355     3.7764     3.7764    -0.0000
 17 C      6.1143     6.0000    -0.1143     3.9291     3.9291    -0.0000
 18 C      6.1599     6.0000    -0.1599     3.7444     3.7444    -0.0000
 19 C      5.7963     6.0000     0.2037     3.8751     3.8751    -0.0000
 20 C      5.7856     6.0000     0.2144     3.8289     3.8289     0.0000
 21 C      6.0545     6.0000    -0.0545     3.8243     3.8243    -0.0000
 22 C      6.0895     6.0000    -0.0895     3.9823     3.9823    -0.0000
 23 C      6.0395     6.0000    -0.0395     3.9925     3.9925    -0.0000
 24 C      5.8062     6.0000     0.1938     3.8210     3.8210    -0.0000
 25 C      5.8855     6.0000     0.1145     3.8912     3.8912     0.0000
 26 C      6.0924     6.0000    -0.0924     3.9104     3.9104     0.0000
 27 C      5.7835     6.0000     0.2165     3.8611     3.8611     0.0000
 28 C      6.0618     6.0000    -0.0618     3.9887     3.9887     0.0000
 29 C      6.1833     6.0000    -0.1833     3.7475     3.7475     0.0000
 30 C      5.7540     6.0000     0.2460     3.7995     3.7995     0.0000
 31 C      5.7691     6.0000     0.2309     3.8169     3.8169    -0.0000
 32 C      6.0613     6.0000    -0.0613     3.9235     3.9235     0.0000
 33 C      6.0598     6.0000    -0.0598     3.9708     3.9708    -0.0000
 34 C      6.0508     6.0000    -0.0508     3.9833     3.9833     0.0000
 35 C      5.7715     6.0000     0.2285     3.8162     3.8162    -0.0000
 36 C      5.8919     6.0000     0.1081     3.8745     3.8745    -0.0000
 37 C      6.0644     6.0000    -0.0644     3.9177     3.9177     0.0000
 38 C      5.7686     6.0000     0.2314     3.8017     3.8017    -0.0000
 39 C      6.0579     6.0000    -0.0579     3.9829     3.9829     0.0000
 40 C      6.1813     6.0000    -0.1813     3.7261     3.7261    -0.0000
 41 C      5.7744     6.0000     0.2256     3.8875     3.8875     0.0000
 42 C      5.8029     6.0000     0.1971     3.8256     3.8256    -0.0000
 43 C      6.0727     6.0000    -0.0727     3.8999     3.8999     0.0000
 44 C      6.0900     6.0000    -0.0900     3.9856     3.9856    -0.0000
 45 C      6.0617     6.0000    -0.0617     3.9918     3.9918    -0.0000
 46 C      5.7886     6.0000     0.2114     3.8287     3.8287    -0.0000
 47 C      5.8846     6.0000     0.1154     3.8931     3.8931     0.0000
 48 C      6.0667     6.0000    -0.0667     3.9094     3.9094     0.0000
 49 C      5.7619     6.0000     0.2381     3.8964     3.8964     0.0000
 50 C      6.0461     6.0000    -0.0461     3.9903     3.9903    -0.0000
 51 C      6.1948     6.0000    -0.1948     3.7380     3.7380    -0.0000
 52 H      0.9653     1.0000     0.0347     0.9857     0.9857     0.0000
 53 H      1.0181     1.0000    -0.0181     0.9994     0.9994     0.0000
 54 H      0.9548     1.0000     0.0452     1.0021     1.0021     0.0000
 55 H      0.9671     1.0000     0.0329     0.9863     0.9863     0.0000
 56 H      0.9505     1.0000     0.0495     0.9695     0.9695    -0.0000
 57 H      0.9526     1.0000     0.0474     0.9823     0.9823    -0.0000
 58 H      0.9533     1.0000     0.0467     0.9847     0.9847     0.0000
 59 H      1.0187     1.0000    -0.0187     0.9935     0.9935    -0.0000
 60 H      0.9533     1.0000     0.0467     1.0220     1.0220     0.0000
 61 H      0.8289     1.0000     0.1711     1.0423     1.0423    -0.0000
 62 H      0.8243     1.0000     0.1757     1.0437     1.0437    -0.0000
 63 H      0.9443     1.0000     0.0557     0.9852     0.9852    -0.0000
 64 H      1.0260     1.0000    -0.0260     0.9942     0.9942    -0.0000
 65 H      0.9529     1.0000     0.0471     1.0101     1.0101    -0.0000
 66 H      0.9441     1.0000     0.0559     0.9855     0.9855    -0.0000
 67 H      0.9372     1.0000     0.0628     0.9719     0.9719     0.0000
 68 H      0.9426     1.0000     0.0574     0.9868     0.9868     0.0000
 69 H      0.9434     1.0000     0.0566     0.9828     0.9828     0.0000
 70 H      1.0301     1.0000    -0.0301     0.9941     0.9941     0.0000
 71 H      0.9548     1.0000     0.0452     1.0058     1.0058     0.0000
 72 H      0.9283     1.0000     0.0717     0.9835     0.9835    -0.0000
 73 H      1.0079     1.0000    -0.0079     1.0010     1.0010     0.0000
 74 H      0.9392     1.0000     0.0608     1.0101     1.0101     0.0000
 75 H      0.9289     1.0000     0.0711     0.9838     0.9838    -0.0000
 76 H      0.9247     1.0000     0.0753     0.9721     0.9721     0.0000
 77 H      0.9318     1.0000     0.0682     0.9855     0.9855     0.0000
 78 H      0.9325     1.0000     0.0675     0.9854     0.9854     0.0000
 79 H      1.0166     1.0000    -0.0166     0.9975     0.9975    -0.0000
 80 H      0.9384     1.0000     0.0616     1.0072     1.0072     0.0000
 81 H      0.9457     1.0000     0.0543     0.9856     0.9856     0.0000
 82 H      1.0252     1.0000    -0.0252     0.9933     0.9933    -0.0000
 83 H      0.9584     1.0000     0.0416     1.0083     1.0083    -0.0000
 84 H      0.9460     1.0000     0.0540     0.9852     0.9852     0.0000
 85 H      0.9393     1.0000     0.0607     0.9716     0.9716     0.0000
 86 H      0.9446     1.0000     0.0554     0.9839     0.9839     0.0000
 87 H      0.9428     1.0000     0.0572     0.9856     0.9856     0.0000
 88 H      1.0144     1.0000    -0.0144     0.9968     0.9968     0.0000
 89 H      0.9529     1.0000     0.0471     1.0074     1.0074     0.0000

  Mayer bond orders larger than 0.100000
B(  0-C ,  1-N ) :   1.0929 B(  0-C , 17-C ) :   1.7238 B(  0-C , 52-H ) :   0.9603 
B(  1-N ,  8-C ) :   1.0991 B(  1-N , 10-C ) :   0.9774 B(  2-C , 12-C ) :   1.4814 
B(  2-C , 16-C ) :   1.3775 B(  2-C , 53-H ) :   0.9720 B(  3-N , 14-C ) :   1.2232 
B(  3-N , 16-C ) :   1.1796 B(  3-N , 61-H ) :   0.8983 B(  4-C ,  6-C ) :   1.2222 
B(  4-C , 17-C ) :   1.2222 B(  4-C , 18-C ) :   1.4808 B(  5-N , 19-C ) :   1.4596 
B(  5-N , 27-C ) :   1.3691 B(  6-C ,  8-C ) :   1.7221 B(  6-C , 54-H ) :   0.8732 
B(  7-N , 30-C ) :   1.1947 B(  7-N , 38-C ) :   1.1898 B(  7-N , 62-H ) :   0.8966 
B(  8-C , 55-H ) :   0.9615 B(  9-N , 41-C ) :   1.3934 B(  9-N , 49-C ) :   1.4261 
B( 10-C , 56-H ) :   0.9776 B( 10-C , 57-H ) :   0.9829 B( 10-C , 58-H ) :   0.9834 
B( 11-N , 20-C ) :   1.1322 B( 11-N , 24-C ) :   1.1075 B( 11-N , 25-C ) :   0.9598 
B( 12-C , 14-C ) :   1.3619 B( 12-C , 59-H ) :   0.9138 B( 13-N , 31-C ) :   1.1627 
B( 13-N , 35-C ) :   1.1607 B( 13-N , 36-C ) :   0.9410 B( 14-C , 18-C ) :   1.1148 
B( 15-N , 42-C ) :   1.1071 B( 15-N , 46-C ) :   1.1242 B( 15-N , 47-C ) :   0.9615 
B( 16-C , 51-C ) :   1.1665 B( 17-C , 60-H ) :   0.8719 B( 18-C , 19-C ) :   1.1137 
B( 19-C , 21-C ) :   1.2530 B( 20-C , 28-C ) :   1.6277 B( 20-C , 63-H ) :   0.9702 
B( 21-C , 26-C ) :   1.5808 B( 21-C , 64-H ) :   0.9156 B( 22-C , 23-C ) :   1.2906 
B( 22-C , 28-C ) :   1.2645 B( 22-C , 29-C ) :   1.2249 B( 23-C , 24-C ) :   1.6189 
B( 23-C , 65-H ) :   0.9703 B( 24-C , 66-H ) :   0.9695 B( 25-C , 67-H ) :   0.9761 
B( 25-C , 68-H ) :   0.9828 B( 25-C , 69-H ) :   0.9823 B( 26-C , 27-C ) :   1.2625 
B( 26-C , 70-H ) :   0.9662 B( 27-C , 29-C ) :   1.2060 B( 28-C , 71-H ) :   0.9720 
B( 29-C , 30-C ) :   1.2484 B( 30-C , 32-C ) :   1.2773 B( 31-C , 39-C ) :   1.5870 
B( 31-C , 72-H ) :   0.9681 B( 32-C , 37-C ) :   1.5816 B( 32-C , 73-H ) :   0.9786 
B( 33-C , 34-C ) :   1.3081 B( 33-C , 39-C ) :   1.3045 B( 33-C , 40-C ) :   1.1744 
B( 34-C , 35-C ) :   1.5843 B( 34-C , 74-H ) :   0.9696 B( 35-C , 75-H ) :   0.9681 
B( 36-C , 76-H ) :   0.9768 B( 36-C , 77-H ) :   0.9815 B( 36-C , 78-H ) :   0.9823 
B( 37-C , 38-C ) :   1.2833 B( 37-C , 79-H ) :   0.9764 B( 38-C , 40-C ) :   1.2354 
B( 39-C , 80-H ) :   0.9705 B( 40-C , 41-C ) :   1.2506 B( 41-C , 43-C ) :   1.1848 
B( 42-C , 50-C ) :   1.6339 B( 42-C , 81-H ) :   0.9697 B( 43-C , 48-C ) :   1.6680 
B( 43-C , 82-H ) :   0.9720 B( 44-C , 45-C ) :   1.2627 B( 44-C , 50-C ) :   1.2718 
B( 44-C , 51-C ) :   1.2625 B( 45-C , 46-C ) :   1.6352 B( 45-C , 83-H ) :   0.9719 
B( 46-C , 84-H ) :   0.9700 B( 47-C , 85-H ) :   0.9762 B( 47-C , 86-H ) :   0.9829 
B( 47-C , 87-H ) :   0.9824 B( 48-C , 49-C ) :   1.1882 B( 48-C , 88-H ) :   0.9749 
B( 49-C , 51-C ) :   1.2451 B( 50-C , 89-H ) :   0.9708 B( 54-H , 59-H ) :   0.1012 


-------
TIMINGS
-------

Total SCF time: 0 days 0 hours 28 min 52 sec 

Total time                  ....    1732.671 sec
Sum of individual times     ....    1727.886 sec  ( 99.7%)

Fock matrix formation       ....    1700.180 sec  ( 98.1%)
Diagonalization             ....       8.736 sec  (  0.5%)
Density matrix formation    ....       0.536 sec  (  0.0%)
Population analysis         ....       0.585 sec  (  0.0%)
Initial guess               ....       2.514 sec  (  0.1%)
Orbital Transformation      ....       0.000 sec  (  0.0%)
Orbital Orthonormalization  ....       0.000 sec  (  0.0%)
DIIS solution               ....       3.965 sec  (  0.2%)
SOSCF solution              ....      10.076 sec  (  0.6%)

Maximum memory used throughout the entire SCF-calculation: 302.7 MB


           ************************************************************
           *        Program running with 16 parallel MPI-processes    *
           *              working on a common directory               *
           ************************************************************

------------------------------------------------------------------------------
                                ORCA  MP2 
------------------------------------------------------------------------------

Freezing NCore=104 chemical core electrons

----------
MP2 ENERGY (disk based algorithm)
----------

Dimension of the basis                    ...  918
Memory devoted to MP2                     ... 2000 MB   
Data format for buffers                   ... DOUBLE
Compression type for matrix containers    ... UNCOMPRESSED

-------------------------------
PARTIAL EXCHANGE TRANSFORMATION
-------------------------------

Transformation type                        ... one-operator
Generation of integrals (i,mue|j,nue)      ... ON
Generation of integrals (mue,kappa|nue,tau)... OFF
Generation of integrals (i,mue|a,nue)      ... OFF
Dimension of the basis                     ...  918
Number of internal MOs                     ...  127 (  52- 178)
Pair cutoff                                ... 2.500e-12 Eh
Number of AO pairs in the trafo            ... 421821
Total Number of distinct AO pairs          ... 421821
Memory devoted for trafo                   ... 2000.0 MB 
Max. Number of MO pairs treated together   ...  311      
Number Format for Storage                  ... Double (8 Byte)
Integral package used                      ... LIBINT

Starting integral evaluation:
    ... done with AO integral generation
Closing buffer AOK     (38.23 GB; CompressionRatio= 1.33)
Collecting buffer AOK 
Number of MO pairs included in the trafo   ... 8128
------------------------
SORTING OF (i,mue|j,nue)
------------------------

IBATCH = 1 of  2
IBATCH = 2 of  2
Closing buffer KAO     (51.03 GB; CompressionRatio= 1.00)
Collecting buffer KAO 
N(AO-Batches) Done                         ...  86227952 
N(AO-Batches) Skipped                      ...  82370407 
N(IJ)-pairs Skipped                        ...         0 
TOTAL TIME for half transformation         ...  3033.855 sec
AO-integral generation                     ...   212.273 sec
Half transformation                        ...   423.391 sec
K-integral sorting                         ...  2176.627 sec
Process 10:   Internal MO 132
Process 13:   Internal MO 156

Finished integral transformation - now doing MP2 part

Process  1:   Internal MO  60
OPERATOR COMBINATION   0   0: ij=( 52..178, 52..178)
Process  4:   Internal MO  84
Process  7:   Internal MO 108
Process  2:   Internal MO  69
Process  1:   Internal MO  63
Process  5:   Internal MO  93
Process  3:   Internal MO  78
Process  8:   Internal MO 117
Process  2:   Internal MO  72
Process  1:   Internal MO  66
Process  6:   Internal MO 102
Process  0:   Internal MO  54
Process 11:   Internal MO 141
Process 14:   Internal MO 165
Process  0:   Internal MO  57
Process  2:   Internal MO  75
Process  3:   Internal MO  81
Process  9:   Internal MO 126
Process  7:   Internal MO 111
Process  4:   Internal MO  87
Process  5:   Internal MO  96
Process 12:   Internal MO 150
Process 15:   Internal MO 174
Process  6:   Internal MO 105
Process 10:   Internal MO 135
Process  8:   Internal MO 120
Process  4:   Internal MO  90
Process  5:   Internal MO  99
Process  9:   Internal MO 129
Process  7:   Internal MO 114
Process 13:   Internal MO 159
Process 11:   Internal MO 144
Process 12:   Internal MO 153
Process  8:   Internal MO 123
Process 14:   Internal MO 168
Process 10:   Internal MO 138
Process 15:   Internal MO 177
Process 11:   Internal MO 147
Process 13:   Internal MO 162
Process 14:   Internal MO 171
-----------------------------------------------
 MP2 CORRELATION ENERGY   :     -7.290959566 Eh
-----------------------------------------------


-------
TIMINGS
-------
Total time                : 3371.487 sec
Integral trafo            : 3036.113 sec ( 90.1%)
K(i,j)                    :   50.375 sec (  1.5%)
T(i,j)                    :    0.202 sec (  0.0%)

---------------------------------------
MP2 TOTAL ENERGY:    -2130.771794468 Eh
---------------------------------------

Maximum memory used throughout the entire MP2-calculation: 2275.3 MB

-------------------------   --------------------
FINAL SINGLE POINT ENERGY     -2130.771794468242
-------------------------   --------------------


                            ***************************************
                            *     ORCA property calculations      *
                            ***************************************


  WARNING: The energy has been calculated at the MP2 level but the densities
           used in the property calculations are still SCF densities
           MP2 response densities have not been calculated 
           use %mp2 Density relaxed end
           or  %mp2 Density unrelaxed end

                                    ---------------------
                                    Active property flags
                                    ---------------------
   (+) Dipole Moment


------------------------------------------------------------------------------
                       ORCA ELECTRIC PROPERTIES CALCULATION
------------------------------------------------------------------------------

Dipole Moment Calculation                       ... on
Quadrupole Moment Calculation                   ... off
Polarizability Calculation                      ... off
GBWName                                         ... /scratch/allen/tmpyp4_amber_gaff2/conf1/conf1/Conf174.orca.gbw
Electron density                                ... /scratch/allen/tmpyp4_amber_gaff2/conf1/conf1/Conf174.orca.scfp
The origin for moment calculation is the CENTER OF MASS  = ( 0.003421, -0.001770  0.000682)

-------------
DIPOLE MOMENT
-------------
                                X             Y             Z
Electronic contribution:      2.72401      -4.46046      -0.20992
Nuclear contribution   :      0.05843       0.22563       0.20755
                        -----------------------------------------
Total Dipole Moment    :      2.78244      -4.23484      -0.00237
                        -----------------------------------------
Magnitude (a.u.)       :      5.06713
Magnitude (Debye)      :     12.87962



--------------------
Rotational spectrum 
--------------------
 
Rotational constants in cm-1:     0.001501     0.001480     0.000760 
Rotational constants in MHz :    45.010685    44.356661    22.782161 

 Dipole components along the rotational axes: 
x,y,z [a.u.] :     3.475625    -3.687253    -0.000038 
x,y,z [Debye]:     8.834336    -9.372251    -0.000097 

 

Timings for individual modules:

Sum of individual times         ...     5127.311 sec (=  85.455 min)
GTO integral calculation        ...        3.324 sec (=   0.055 min)   0.1 %
SCF iterations                  ...     1733.855 sec (=  28.898 min)  33.8 %
MP2 module                      ...     3390.132 sec (=  56.502 min)  66.1 %
                             ****ORCA TERMINATED NORMALLY****
TOTAL RUN TIME: 0 days 1 hours 25 minutes 30 seconds 621 msec
# of primitive gaussian functions

