
                                 *****************
                                 * O   R   C   A *
                                 *****************

                                            #,                                       
                                            ###                                      
                                            ####                                     
                                            #####                                    
                                            ######                                   
                                           ########,                                 
                                     ,,################,,,,,                         
                               ,,#################################,,                 
                          ,,##########################################,,             
                       ,#########################################, ''#####,          
                    ,#############################################,,   '####,        
                  ,##################################################,,,,####,       
                ,###########''''           ''''###############################       
              ,#####''   ,,,,##########,,,,          '''####'''          '####       
            ,##' ,,,,###########################,,,                        '##       
           ' ,,###''''                  '''############,,,                           
         ,,##''                                '''############,,,,        ,,,,,,###''
      ,#''                                            '''#######################'''  
     '                                                          ''''####''''         
             ,#######,   #######,   ,#######,      ##                                
            ,#'     '#,  ##    ##  ,#'     '#,    #''#        ######   ,####,        
            ##       ##  ##   ,#'  ##            #'  '#       #        #'  '#        
            ##       ##  #######   ##           ,######,      #####,   #    #        
            '#,     ,#'  ##    ##  '#,     ,#' ,#      #,         ##   #,  ,#        
             '#######'   ##     ##  '#######'  #'      '#     #####' # '####'        



                  #######################################################
                  #                        -***-                        #
                  #          Department of theory and spectroscopy      #
                  #    Directorship and core code : Frank Neese         #
                  #        Max Planck Institute fuer Kohlenforschung    #
                  #                Kaiser Wilhelm Platz 1               #
                  #                 D-45470 Muelheim/Ruhr               #
                  #                      Germany                        #
                  #                                                     #
                  #                  All rights reserved                #
                  #                        -***-                        #
                  #######################################################


                         Program Version 5.0.4 -  RELEASE  -


 With contributions from (in alphabetic order):
   Daniel Aravena         : Magnetic Suceptibility
   Michael Atanasov       : Ab Initio Ligand Field Theory (pilot matlab implementation)
   Alexander A. Auer      : GIAO ZORA, VPT2 properties, NMR spectrum
   Ute Becker             : Parallelization
   Giovanni Bistoni       : ED, misc. LED, open-shell LED, HFLD
   Martin Brehm           : Molecular dynamics
   Dmytro Bykov           : SCF Hessian
   Vijay G. Chilkuri      : MRCI spin determinant printing, contributions to CSF-ICE
   Dipayan Datta          : RHF DLPNO-CCSD density
   Achintya Kumar Dutta   : EOM-CC, STEOM-CC
   Dmitry Ganyushin       : Spin-Orbit,Spin-Spin,Magnetic field MRCI
   Miquel Garcia          : C-PCM and meta-GGA Hessian, CC/C-PCM, Gaussian charge scheme
   Yang Guo               : DLPNO-NEVPT2, F12-NEVPT2, CIM, IAO-localization
   Andreas Hansen         : Spin unrestricted coupled pair/coupled cluster methods
   Benjamin Helmich-Paris : MC-RPA, TRAH-SCF, COSX integrals
   Lee Huntington         : MR-EOM, pCC
   Robert Izsak           : Overlap fitted RIJCOSX, COSX-SCS-MP3, EOM
   Marcus Kettner         : VPT2
   Christian Kollmar      : KDIIS, OOCD, Brueckner-CCSD(T), CCSD density, CASPT2, CASPT2-K
   Simone Kossmann        : Meta GGA functionals, TD-DFT gradient, OOMP2, MP2 Hessian
   Martin Krupicka        : Initial AUTO-CI
   Lucas Lang             : DCDCAS
   Marvin Lechner         : AUTO-CI (C++ implementation), FIC-MRCC
   Dagmar Lenk            : GEPOL surface, SMD
   Dimitrios Liakos       : Extrapolation schemes; Compound Job, initial MDCI parallelization
   Dimitrios Manganas     : Further ROCIS development; embedding schemes
   Dimitrios Pantazis     : SARC Basis sets
   Anastasios Papadopoulos: AUTO-CI, single reference methods and gradients
   Taras Petrenko         : DFT Hessian,TD-DFT gradient, ASA, ECA, R-Raman, ABS, FL, XAS/XES, NRVS
   Peter Pinski           : DLPNO-MP2, DLPNO-MP2 Gradient
   Christoph Reimann      : Effective Core Potentials
   Marius Retegan         : Local ZFS, SOC
   Christoph Riplinger    : Optimizer, TS searches, QM/MM, DLPNO-CCSD(T), (RO)-DLPNO pert. Triples
   Tobias Risthaus        : Range-separated hybrids, TD-DFT gradient, RPA, STAB
   Michael Roemelt        : Original ROCIS implementation
   Masaaki Saitow         : Open-shell DLPNO-CCSD energy and density
   Barbara Sandhoefer     : DKH picture change effects
   Avijit Sen             : IP-ROCIS
   Kantharuban Sivalingam : CASSCF convergence, NEVPT2, FIC-MRCI
   Bernardo de Souza      : ESD, SOC TD-DFT
   Georgi Stoychev        : AutoAux, RI-MP2 NMR, DLPNO-MP2 response
   Willem Van den Heuvel  : Paramagnetic NMR
   Boris Wezisla          : Elementary symmetry handling
   Frank Wennmohs         : Technical directorship


 We gratefully acknowledge several colleagues who have allowed us to
 interface, adapt or use parts of their codes:
   Stefan Grimme, W. Hujo, H. Kruse, P. Pracht,  : VdW corrections, initial TS optimization,
                  C. Bannwarth, S. Ehlert          DFT functionals, gCP, sTDA/sTD-DF
   Ed Valeev, F. Pavosevic, A. Kumar             : LibInt (2-el integral package), F12 methods
   Garnet Chan, S. Sharma, J. Yang, R. Olivares  : DMRG
   Ulf Ekstrom                                   : XCFun DFT Library
   Mihaly Kallay                                 : mrcc  (arbitrary order and MRCC methods)
   Jiri Pittner, Ondrej Demel                    : Mk-CCSD
   Frank Weinhold                                : gennbo (NPA and NBO analysis)
   Christopher J. Cramer and Donald G. Truhlar   : smd solvation model
   Lars Goerigk                                  : TD-DFT with DH, B97 family of functionals
   V. Asgeirsson, H. Jonsson                     : NEB implementation
   FAccTs GmbH                                   : IRC, NEB, NEB-TS, DLPNO-Multilevel, CI-OPT
                                                   MM, QMMM, 2- and 3-layer-ONIOM, Crystal-QMMM,
                                                   LR-CPCM, SF, NACMEs, symmetry and pop. for TD-DFT,
                                                   nearIR, NL-DFT gradient (VV10), updates on ESD,
                                                   ML-optimized integration grids
   S Lehtola, MJT Oliveira, MAL Marques          : LibXC Library
   Liviu Ungur et al                             : ANISO software


 Your calculation uses the libint2 library for the computation of 2-el integrals
 For citations please refer to: http://libint.valeyev.net

 Your ORCA version has been built with support for libXC version: 5.1.0
 For citations please refer to: https://tddft.org/programs/libxc/

 This ORCA versions uses:
   CBLAS   interface :  Fast vector & matrix operations
   LAPACKE interface :  Fast linear algebra routines
   SCALAPACK package :  Parallel linear algebra routines
   Shared memory     :  Shared parallel matrices
   BLAS/LAPACK       :  OpenBLAS 0.3.15  USE64BITINT DYNAMIC_ARCH NO_AFFINITY Sandybridge SINGLE_THREADED
        Core in use  :  Sandybridge
   Copyright (c) 2011-2014, The OpenBLAS Project


================================================================================

----- Orbital basis set information -----
Your calculation utilizes the basis: cc-pVDZ 
       H, B-Ne : Obtained from the ccRepo (grant-hill.group.shef.ac.uk/ccrepo) Feb. 2017
                 T. H. Dunning, Jr., J. Chem. Phys. 90, 1007 (1989)
            He : Obtained from the ccRepo (grant-hill.group.shef.ac.uk/ccrepo) Feb. 2017
                 D. E. Woon, T. H. Dunning, Jr., J. Chem. Phys. 100, 2975 (1994)
  Li-Be, Na-Mg : Obtained from the ccRepo (grant-hill.group.shef.ac.uk/ccrepo) Feb. 2017
                 B. P. Prascher, D. E. Woon, K. A. Peterson, T. H. Dunning, Jr., A. K. Wilson, Theor. Chem. Acc. 128, 69 (2011)
         Al-Ar : Obtained from the ccRepo (grant-hill.group.shef.ac.uk/ccrepo) Feb. 2017
                 D. E. Woon, T. H. Dunning, Jr., J. Chem. Phys. 98, 1358 (1993)
            Ca : Obtained from the Peterson Research Group Website (tyr0.chem.wsu.edu/~kipeters) Feb. 2017
                 J. Koput, K. A. Peterson, J. Phys. Chem. 106, 9595 (2002)
         Sc-Zn : Obtained from the ccRepo (grant-hill.group.shef.ac.uk/ccrepo) Feb. 2017
                 N. B. Balabanov, K. A. Peterson, J. Chem. Phys. 123, 064107 (2005)
                 N. B. Balabanov, K. A. Peterson, J. Chem. Phys. 125, 074110 (2006)
         Ga-Kr : Obtained from the ccRepo (grant-hill.group.shef.ac.uk/ccrepo) Feb. 2017
                 A. K. Wilson, D. E. Woon, K. A. Peterson, T. H. Dunning, Jr., J. Chem. Phys. 110, 7667 (1999)

================================================================================
                                        WARNINGS
                       Please study these warnings very carefully!
================================================================================


WARNING: No MP2 level density has been requested!
         To caclulate MP2 level properties use
         %mp2 Density relaxed end
         or
         %mp2 Density unrelaxed end

WARNING: Post HF methods need fully converged wavefunctions
  ===> : Setting SCFConvForced true
         You can overwrite this default with %scf ConvForced false 


INFO   : the flag for use of the SHARK integral package has been found!

================================================================================
                                       INPUT FILE
================================================================================
NAME = /scratch/allen/tmpyp4_amber_gaff2/2.Mdgx/conf11/conf11/Conf12.orca
|  1> ! PAL2
|  2> ! mp2 cc-pvdz TightSCF  NoKeepInts
|  3> 
|  4> %scf
|  5>   MaxCore 2000
|  6> end
|  7> %mp2
|  8>   MaxCore 2000
|  9> end
| 10> * xyz 0 1
| 11>    C       -3.04900         6.48900        -0.10800
| 12>    C        1.47400         4.04100         0.05700
| 13>    C       -2.80200         4.09300         0.04900
| 14>    C       -4.18500         4.01700         0.27600
| 15>    C       -4.94800         5.16700         0.30100
| 16>    C       -5.22900         7.59100         0.10900
| 17>    C        0.13200         4.30700         0.06100
| 18>    C       -0.56900         3.05600         0.04700
| 19>    C        1.64900         2.61800         0.02300
| 20>    C       -2.24500         5.36600        -0.14700
| 21>    N       -4.37800         6.38000         0.11400
| 22>    N        0.38800         2.06700         0.02500
| 23>    N       -2.01000         0.39500        -0.07500
| 24>    N       -0.38800        -2.07400        -0.02700
| 25>    N        2.01000        -0.40100         0.06500
| 26>    C       -1.96000         2.86100         0.02400
| 27>    C       -2.62300         1.61500        -0.01800
| 28>    C       -5.57300        -4.32900         1.06600
| 29>    C       -4.07300         1.47100         0.05600
| 30>    C       -4.10600        -2.75600        -0.02600
| 31>    C       -4.99500        -2.75700        -1.11100
| 32>    C       -6.13200        -3.54200        -1.07600
| 33>    C       -7.65100        -5.11300         0.04000
| 34>    C       -4.32400         0.14100         0.03700
| 35>    C       -3.02500        -0.52000        -0.04800
| 36>    C       -4.42200        -3.56600         1.07500
| 37>    N       -6.40700        -4.31300         0.00100
| 38>    C       -2.86700        -1.92200        -0.04000
| 39>    C       -1.65000        -2.62400        -0.02700
| 40>    C        3.56800        -6.14200        -1.04000
| 41>    C       -1.47600        -4.04900        -0.03400
| 42>    C        2.80300        -4.09900        -0.00800
| 43>    C        3.65700        -4.38400         1.06900
| 44>    C        4.42700        -5.53000         1.05900
| 45>    C        5.24500        -7.58800         0.01400
| 46>    C       -0.13400        -4.31500        -0.02200
| 47>    C        0.56800        -3.06400        -0.02700
| 48>    C        2.77500        -5.01200        -1.07400
| 49>    N        4.37600        -6.39100         0.01700
| 50>    C        1.95900        -2.86900        -0.00900
| 51>    C        2.62100        -1.62200         0.00900
| 52>    C        5.54300         4.33900        -1.13000
| 53>    C        4.07000        -1.47900        -0.09400
| 54>    C        4.10400         2.75100        -0.02100
| 55>    C        5.02700         2.72900         1.03600
| 56>    C        6.16600         3.50900         0.97800
| 57>    C        7.61900         5.15300        -0.11500
| 58>    C        4.32100        -0.14800        -0.09200
| 59>    C        3.02500         0.51400         0.01500
| 60>    C        4.38700         3.58200        -1.11500
| 61>    C        2.86600         1.91600         0.01300
| 62>    N        6.41300         4.29600        -0.09500
| 63>    H       -2.66000         7.49100        -0.24100
| 64>    H        2.27400         4.76600         0.08100
| 65>    H       -4.67500         3.06200         0.42500
| 66>    H       -6.01800         5.15800         0.46400
| 67>    H       -5.63000         7.74000        -0.89600
| 68>    H       -6.04400         7.45100         0.82000
| 69>    H       -4.62200         8.44700         0.40100
| 70>    H       -0.33200         5.28200         0.06900
| 71>    H       -1.18100         5.49200        -0.31300
| 72>    H        0.18200         1.07200         0.00500
| 73>    H       -0.18300        -1.08000        -0.02100
| 74>    H       -5.86400        -4.96200         1.89500
| 75>    H       -4.79400         2.27200         0.13900
| 76>    H       -4.80000        -2.16000        -1.99400
| 77>    H       -6.84100        -3.58200        -1.89300
| 78>    H       -8.42800        -4.53600         0.54600
| 79>    H       -7.95600        -5.33700        -0.98100
| 80>    H       -7.45600        -6.03700         0.58400
| 81>    H       -5.28700        -0.34400         0.10000
| 82>    H       -3.78000        -3.60100         1.94700
| 83>    H        3.58700        -6.86800        -1.84300
| 84>    H       -2.27600        -4.77400        -0.05000
| 85>    H        3.71400        -3.72400         1.92600
| 86>    H        5.09200        -5.79500         1.87100
| 87>    H        6.20500        -7.32900        -0.43900
| 88>    H        5.39300        -7.91700         1.04200
| 89>    H        4.75900        -8.37300        -0.56400
| 90>    H        0.32900        -5.29000        -0.00800
| 91>    H        2.14600        -4.84200        -1.94000
| 92>    H        5.80800         4.98600        -1.95600
| 93>    H        4.78800        -2.28100        -0.18500
| 94>    H        4.86000         2.11400         1.91200
| 95>    H        6.90100         3.53100         1.77200
| 96>    H        7.38300         6.10900         0.35600
| 97>    H        8.41400         4.65200         0.43500
| 98>    H        7.92100         5.31000        -1.15000
| 99>    H        5.28300         0.33600        -0.17900
|100>    H        3.72000         3.63200        -1.96700
|101> *
|102> 
|103>                          ****END OF INPUT****
================================================================================

                       ****************************
                       * Single Point Calculation *
                       ****************************

---------------------------------
CARTESIAN COORDINATES (ANGSTROEM)
---------------------------------
  C     -3.049000    6.489000   -0.108000
  C      1.474000    4.041000    0.057000
  C     -2.802000    4.093000    0.049000
  C     -4.185000    4.017000    0.276000
  C     -4.948000    5.167000    0.301000
  C     -5.229000    7.591000    0.109000
  C      0.132000    4.307000    0.061000
  C     -0.569000    3.056000    0.047000
  C      1.649000    2.618000    0.023000
  C     -2.245000    5.366000   -0.147000
  N     -4.378000    6.380000    0.114000
  N      0.388000    2.067000    0.025000
  N     -2.010000    0.395000   -0.075000
  N     -0.388000   -2.074000   -0.027000
  N      2.010000   -0.401000    0.065000
  C     -1.960000    2.861000    0.024000
  C     -2.623000    1.615000   -0.018000
  C     -5.573000   -4.329000    1.066000
  C     -4.073000    1.471000    0.056000
  C     -4.106000   -2.756000   -0.026000
  C     -4.995000   -2.757000   -1.111000
  C     -6.132000   -3.542000   -1.076000
  C     -7.651000   -5.113000    0.040000
  C     -4.324000    0.141000    0.037000
  C     -3.025000   -0.520000   -0.048000
  C     -4.422000   -3.566000    1.075000
  N     -6.407000   -4.313000    0.001000
  C     -2.867000   -1.922000   -0.040000
  C     -1.650000   -2.624000   -0.027000
  C      3.568000   -6.142000   -1.040000
  C     -1.476000   -4.049000   -0.034000
  C      2.803000   -4.099000   -0.008000
  C      3.657000   -4.384000    1.069000
  C      4.427000   -5.530000    1.059000
  C      5.245000   -7.588000    0.014000
  C     -0.134000   -4.315000   -0.022000
  C      0.568000   -3.064000   -0.027000
  C      2.775000   -5.012000   -1.074000
  N      4.376000   -6.391000    0.017000
  C      1.959000   -2.869000   -0.009000
  C      2.621000   -1.622000    0.009000
  C      5.543000    4.339000   -1.130000
  C      4.070000   -1.479000   -0.094000
  C      4.104000    2.751000   -0.021000
  C      5.027000    2.729000    1.036000
  C      6.166000    3.509000    0.978000
  C      7.619000    5.153000   -0.115000
  C      4.321000   -0.148000   -0.092000
  C      3.025000    0.514000    0.015000
  C      4.387000    3.582000   -1.115000
  C      2.866000    1.916000    0.013000
  N      6.413000    4.296000   -0.095000
  H     -2.660000    7.491000   -0.241000
  H      2.274000    4.766000    0.081000
  H     -4.675000    3.062000    0.425000
  H     -6.018000    5.158000    0.464000
  H     -5.630000    7.740000   -0.896000
  H     -6.044000    7.451000    0.820000
  H     -4.622000    8.447000    0.401000
  H     -0.332000    5.282000    0.069000
  H     -1.181000    5.492000   -0.313000
  H      0.182000    1.072000    0.005000
  H     -0.183000   -1.080000   -0.021000
  H     -5.864000   -4.962000    1.895000
  H     -4.794000    2.272000    0.139000
  H     -4.800000   -2.160000   -1.994000
  H     -6.841000   -3.582000   -1.893000
  H     -8.428000   -4.536000    0.546000
  H     -7.956000   -5.337000   -0.981000
  H     -7.456000   -6.037000    0.584000
  H     -5.287000   -0.344000    0.100000
  H     -3.780000   -3.601000    1.947000
  H      3.587000   -6.868000   -1.843000
  H     -2.276000   -4.774000   -0.050000
  H      3.714000   -3.724000    1.926000
  H      5.092000   -5.795000    1.871000
  H      6.205000   -7.329000   -0.439000
  H      5.393000   -7.917000    1.042000
  H      4.759000   -8.373000   -0.564000
  H      0.329000   -5.290000   -0.008000
  H      2.146000   -4.842000   -1.940000
  H      5.808000    4.986000   -1.956000
  H      4.788000   -2.281000   -0.185000
  H      4.860000    2.114000    1.912000
  H      6.901000    3.531000    1.772000
  H      7.383000    6.109000    0.356000
  H      8.414000    4.652000    0.435000
  H      7.921000    5.310000   -1.150000
  H      5.283000    0.336000   -0.179000
  H      3.720000    3.632000   -1.967000

----------------------------
CARTESIAN COORDINATES (A.U.)
----------------------------
  NO LB      ZA    FRAG     MASS         X           Y           Z
   0 C     6.0000    0    12.011   -5.761775   12.262433   -0.204090
   1 C     6.0000    0    12.011    2.785456    7.636383    0.107714
   2 C     6.0000    0    12.011   -5.295013    7.734649    0.092597
   3 C     6.0000    0    12.011   -7.908504    7.591030    0.521564
   4 C     6.0000    0    12.011   -9.350365    9.764215    0.568808
   5 C     6.0000    0    12.011   -9.881378   14.344911    0.205980
   6 C     6.0000    0    12.011    0.249444    8.139050    0.115273
   7 C     6.0000    0    12.011   -1.075254    5.775003    0.088817
   8 C     6.0000    0    12.011    3.116158    4.947303    0.043464
   9 C     6.0000    0    12.011   -4.242435   10.140270   -0.277790
  10 N     7.0000    0    14.007   -8.273221   12.056453    0.215429
  11 N     7.0000    0    14.007    0.733214    3.906064    0.047243
  12 N     7.0000    0    14.007   -3.798350    0.746442   -0.141729
  13 N     7.0000    0    14.007   -0.733214   -3.919292   -0.051023
  14 N     7.0000    0    14.007    3.798350   -0.757780    0.122832
  15 C     6.0000    0    12.011   -3.703863    5.406506    0.045353
  16 C     6.0000    0    12.011   -4.956752    3.051908   -0.034015
  17 C     6.0000    0    12.011  -10.531444   -8.180624    2.014448
  18 C     6.0000    0    12.011   -7.696855    2.779787    0.105825
  19 C     6.0000    0    12.011   -7.759216   -5.208085   -0.049133
  20 C     6.0000    0    12.011   -9.439182   -5.209975   -2.099486
  21 C     6.0000    0    12.011  -11.587801   -6.693410   -2.033345
  22 C     6.0000    0    12.011  -14.458295   -9.662170    0.075589
  23 C     6.0000    0    12.011   -8.171176    0.266451    0.069920
  24 C     6.0000    0    12.011   -5.716422   -0.982658   -0.090707
  25 C     6.0000    0    12.011   -8.356369   -6.738763    2.031456
  26 N     7.0000    0    14.007  -12.107475   -8.150389    0.001890
  27 C     6.0000    0    12.011   -5.417845   -3.632054   -0.075589
  28 C     6.0000    0    12.011   -3.118048   -4.958641   -0.051023
  29 C     6.0000    0    12.011    6.742543  -11.606698   -1.965315
  30 C     6.0000    0    12.011   -2.789236   -7.651501   -0.064251
  31 C     6.0000    0    12.011    5.296902   -7.745987   -0.015118
  32 C     6.0000    0    12.011    6.910728   -8.284559    2.020117
  33 C     6.0000    0    12.011    8.365818  -10.450186    2.001220
  34 C     6.0000    0    12.011    9.911614  -14.339242    0.026456
  35 C     6.0000    0    12.011   -0.253223   -8.154168   -0.041574
  36 C     6.0000    0    12.011    1.073364   -5.790121   -0.051023
  37 C     6.0000    0    12.011    5.243990   -9.471307   -2.029566
  38 N     7.0000    0    14.007    8.269442  -12.077240    0.032125
  39 C     6.0000    0    12.011    3.701973   -5.421624   -0.017008
  40 C     6.0000    0    12.011    4.952972   -3.065136    0.017008
  41 C     6.0000    0    12.011   10.474752    8.199522   -2.135391
  42 C     6.0000    0    12.011    7.691185   -2.794905   -0.177634
  43 C     6.0000    0    12.011    7.755436    5.198637   -0.039684
  44 C     6.0000    0    12.011    9.499653    5.157063    1.957756
  45 C     6.0000    0    12.011   11.652051    6.631049    1.848152
  46 C     6.0000    0    12.011   14.397823    9.737759   -0.217319
  47 C     6.0000    0    12.011    8.165507   -0.279679   -0.173855
  48 C     6.0000    0    12.011    5.716422    0.971319    0.028346
  49 C     6.0000    0    12.011    8.290229    6.768999   -2.107045
  50 C     6.0000    0    12.011    5.415955    3.620715    0.024566
  51 N     7.0000    0    14.007   12.118814    8.118263   -0.179524
  52 H     1.0000    0     1.008   -5.026672   14.155938   -0.455424
  53 H     1.0000    0     1.008    4.297237    9.006435    0.153068
  54 H     1.0000    0     1.008   -8.834470    5.786341    0.803134
  55 H     1.0000    0     1.008  -11.372372    9.747207    0.876833
  56 H     1.0000    0     1.008  -10.639158   14.626480   -1.693195
  57 H     1.0000    0     1.008  -11.421505   14.080349    1.549575
  58 H     1.0000    0     1.008   -8.734314   15.962517    0.757780
  59 H     1.0000    0     1.008   -0.627389    9.981533    0.130391
  60 H     1.0000    0     1.008   -2.231767   10.378376   -0.591484
  61 H     1.0000    0     1.008    0.343930    2.025786    0.009449
  62 H     1.0000    0     1.008   -0.345820   -2.040904   -0.039684
  63 H     1.0000    0     1.008  -11.081354   -9.376821    3.581031
  64 H     1.0000    0     1.008   -9.059347    4.293458    0.262672
  65 H     1.0000    0     1.008   -9.070685   -4.081808   -3.768114
  66 H     1.0000    0     1.008  -12.927616   -6.768999   -3.577252
  67 H     1.0000    0     1.008  -15.926612   -8.571798    1.031790
  68 H     1.0000    0     1.008  -15.034661  -10.085468   -1.853821
  69 H     1.0000    0     1.008  -14.089798  -11.408277    1.103600
  70 H     1.0000    0     1.008   -9.990982   -0.650066    0.188973
  71 H     1.0000    0     1.008   -7.143165   -6.804904    3.679297
  72 H     1.0000    0     1.008    6.778448  -12.978639   -3.482765
  73 H     1.0000    0     1.008   -4.301017   -9.021553   -0.094486
  74 H     1.0000    0     1.008    7.018443   -7.037340    3.639613
  75 H     1.0000    0     1.008    9.622485  -10.950963    3.535678
  76 H     1.0000    0     1.008   11.725751  -13.849803   -0.829590
  77 H     1.0000    0     1.008   10.191293  -14.960962    1.969095
  78 H     1.0000    0     1.008    8.993207  -15.822677   -1.065806
  79 H     1.0000    0     1.008    0.621720   -9.996651   -0.015118
  80 H     1.0000    0     1.008    4.055352   -9.150054   -3.666069
  81 H     1.0000    0     1.008   10.975529    9.422175   -3.696304
  82 H     1.0000    0     1.008    9.048009   -4.310465   -0.349599
  83 H     1.0000    0     1.008    9.184069    3.994881    3.613156
  84 H     1.0000    0     1.008   13.041000    6.672623    3.348595
  85 H     1.0000    0     1.008   13.951848   11.544337    0.672743
  86 H     1.0000    0     1.008   15.900156    8.791006    0.822031
  87 H     1.0000    0     1.008   14.968521   10.034446   -2.173185
  88 H     1.0000    0     1.008    9.983423    0.634948   -0.338261
  89 H     1.0000    0     1.008    7.029781    6.863485   -3.717091

--------------------------------
INTERNAL COORDINATES (ANGSTROEM)
--------------------------------
 C      0   0   0     0.000000000000     0.00000000     0.00000000
 C      1   0   0     5.145625132090     0.00000000     0.00000000
 C      1   2   0     2.413809023100    55.64868391     0.00000000
 C      3   1   2     1.403564747349    87.90474836   170.85026031
 C      4   3   1     1.380323875038   120.16463391     0.11903730
 C      5   4   3     2.447774703685   152.50881919     1.64584515
 C      2   1   3     1.368114030335    17.32606156   356.79280090
 C      7   2   1     1.434084376876   108.05010202   172.63546456
 C      2   1   3     1.434123425651   125.34892195     6.23309722
 C      1   2   3     1.381689545448    26.20068914   349.31719840
 N      1   2   3     1.351815815857   145.13859958    16.22040605
 N      9   2   1     1.376127174356   106.58526707   356.28977773
 N     12   9   2     2.925062050624   168.53581413   171.12065651
 N     13  12   9     2.954513327098    91.55032014    11.12112580
 N     14  13  12     2.925371258490    88.43092389   359.84326247
 C      8   7   2     1.404790019896   127.24786865   181.11170171
 C     13  12   9     1.366535034311    81.72106996   188.00453233
 C     14  13  12     5.758810554272    80.56209567   166.76250791
 C     17  13  12     1.459010623676   111.08861209   183.82872609
 C     18  14  13     2.412235892279    27.27532823    36.33507194
 C     20  18  14     1.402692767501    87.95206320   148.94598259
 C     21  20  18     1.382106725257   120.14573887   359.70382047
 C     18  14  13     2.446510985056   144.15733107    82.80075377
 C     19  17  13     1.353610726908   106.29293361   359.75308708
 C     13  12   9     1.366813447402   172.21332906    33.46711076
 C     18  14  13     1.380960173213    15.08449437   309.23336894
 N     22  21  20     1.352773077792   120.73759875     0.27865223
 C     25  13  17     1.410897586645   125.60330303   182.37774668
 C     14  13  12     1.376642291955    80.24689249   177.85461986
 C     14  13  12     5.764089607215   164.51507311   312.20821879
 C     29  14  13     1.435600919476   106.58649366   178.76395472
 C     30  14  13     2.413316804732    27.10625047    82.12560436
 C     32  30  14     1.403734305344    87.90059683   149.76154742
 C     33  32  30     1.380694028378   120.14881443   359.74174632
 C     34  33  32     2.448777858443   152.49203239     2.45173620
 C     31  29  14     1.368160809262   108.16950133     0.70383075
 C     14  13  12     1.376239804685   169.26375223   353.09862627
 C     30  14  13     1.380907310430    14.68948582   353.70041132
 N     34  33  32     1.352658863128   120.85575621     0.19603406
 C     37  14  29     1.404717053360   126.01551127   180.90772073
 C     15  14  13     1.366491126938    81.61824056   183.09049352
 C      2   1   3     4.249062720177   143.07537161   152.73548283
 C     41  15  14     1.459677704153   111.05201287   175.08990246
 C     42   2   1     2.412953791518    41.78584867   183.15142578
 C     44  42   2     1.403446472082    87.95153797   233.97558675
 C     45  44  42     1.381696421071   120.11137308     0.19721020
 C     42   2   1     2.450019795838   135.97209175    93.46627488
 C     43  41  15     1.354461516618   106.26758155     0.30894352
 C     15  14  13     1.367461151185   171.87382904   332.35056460
 C     42   2   1     1.381886391857    32.59078432   232.00670497
 C      9   2   1     1.404988612053   126.98745415   177.29411526
 N     42   2   1     1.352765315936   113.57249190   121.20286407
 H      1   2   3     1.083057708527    97.37527456   183.61521021
 H      2   1   3     1.079907866440   109.41975100   183.96448158
 H      4   3   1     1.083663231821   121.03096403   179.54378074
 H      5   4   3     1.082381633251   122.83663307   179.47685537
 H      6   5   4     1.092257753463   104.44247343   100.13733657
 H      6   5   4     1.090571409858    84.69404633   209.51654491
 H      6   5   4     1.089242397265   133.88661623   322.34851310
 H      7   2   1     1.079807853278   126.66122480   352.87387835
 H     60   7   2     0.954371520950   125.30857298   150.38797362
 H     12   9   2     1.016297692608   125.29023241   180.00180175
 H     14  13  12     1.014936943854    44.97226959   359.42596618
 H     18  14  13     1.082871645210   128.03556573   234.20482432
 H     55   4   3     0.848561724331   146.87917729   309.47483417
 H     21  20  18     1.083569563987   121.05669627   180.67006309
 H     22  21  20     1.082483256222   122.73097286   180.59748951
 H     23  18  14     1.092105306278   103.92715769   234.93429879
 H     23  18  14     1.088871893291   134.19244188    12.25587044
 H     23  18  14     1.089833473518    84.85857450   125.45241208
 H     24  19  17     1.080075460327   127.28078426   178.44613241
 H     26  18  14     1.083408048706   118.76995697   244.94906660
 H     30  14  13     1.082703098730   127.99711412   279.66882698
 H     31  29  14     1.079759695488   125.22293469   180.92530585
 H     33  32  30     1.083188810873   121.01964473   180.74284758
 H     34  33  32     1.082494341787   122.70821597   180.59516895
 H     35  34  33     1.092652735319   105.73575241    97.19771933
 H     35  34  33     1.089462711615    84.05943581   206.43036958
 H     35  34  33     1.089268102902   133.08365142   318.50306270
 H     36  31  29     1.079439669458   126.61599965   178.98859863
 H     38  30  73     1.083742127999   118.77264435   359.90091293
 H     42   2   1     1.082178358682   119.31790784   337.83439453
 H     43  41  15     1.080281907652   126.36969097   182.06329380
 H     45  44  42     1.083277434455   121.10105945   179.58025624
 H     46  45  44     1.082194529648   122.72144639   179.46906377
 H     47  42   2     1.091546151109   106.65128841   315.16475048
 H     47  42   2     1.088818625851   132.46019523    94.52397119
 H     47  42   2     1.089531091801    83.63838232   206.04504406
 H     48  43  41     1.080402239909   127.23657387   181.62955349
 H     50  42   2     1.083186502870   118.77001737    94.71359229

---------------------------
INTERNAL COORDINATES (A.U.)
---------------------------
 C      0   0   0     0.000000000000     0.00000000     0.00000000
 C      1   0   0     9.723822287473     0.00000000     0.00000000
 C      1   2   0     4.561437993247    55.64868391     0.00000000
 C      3   1   2     2.652352983715    87.90474836   170.85026031
 C      4   3   1     2.608434099935   120.16463391     0.11903730
 C      5   4   3     4.625623827505   152.50881919     1.64584515
 C      2   1   3     2.585360837309    17.32606156   356.79280090
 C      7   2   1     2.710026725231   108.05010202   172.63546456
 C      2   1   3     2.710100516721   125.34892195     6.23309722
 C      1   2   3     2.611014842999    26.20068914   349.31719840
 N      1   2   3     2.554561675472   145.13859958    16.22040605
 N      9   2   1     2.600503484979   106.58526707   356.28977773
 N     12   9   2     5.527566200405   168.53581413   171.12065651
 N     13  12   9     5.583221047236    91.55032014    11.12112580
 N     14  13  12     5.528150518591    88.43092389   359.84326247
 C      8   7   2     2.654668413270   127.24786865   181.11170171
 C     13  12   9     2.582376967257    81.72106996   188.00453233
 C     14  13  12    10.882574804710    80.56209567   166.76250791
 C     17  13  12     2.757130505230   111.08861209   183.82872609
 C     18  14  13     4.558465206823    27.27532823    36.33507194
 C     20  18  14     2.650705180609    87.95206320   148.94598259
 C     21  20  18     2.611803198586   120.14573887   359.70382047
 C     18  14  13     4.623235745386   144.15733107    82.80075377
 C     19  17  13     2.557953565794   106.29293361   359.75308708
 C     13  12   9     2.582903091751   172.21332906    33.46711076
 C     18  14  13     2.609636529225    15.08449437   309.23336894
 N     22  21  20     2.556370638369   120.73759875     0.27865223
 C     25  13  17     2.666210041769   125.60330303   182.37774668
 C     14  13  12     2.601476916169    80.24689249   177.85461986
 C     14  13  12    10.892550769017   164.51507311   312.20821879
 C     29  14  13     2.712892575415   106.58649366   178.76395472
 C     30  14  13     4.560507835333    27.10625047    82.12560436
 C     32  30  14     2.652673401891    87.90059683   149.76154742
 C     33  32  30     2.609133588376   120.14881443   359.74174632
 C     34  33  32     4.627519515267   152.49203239     2.45173620
 C     31  29  14     2.585449236669   108.16950133     0.70383075
 C     14  13  12     2.600716325456   169.26375223   353.09862627
 C     30  14  13     2.609536633043    14.68948582   353.70041132
 N     34  33  32     2.556154803934   120.85575621     0.19603406
 C     37  14  29     2.654530526499   126.01551127   180.90772073
 C     15  14  13     2.582293994346    81.61824056   183.09049352
 C      2   1   3     8.029564866989   143.07537161   152.73548283
 C     41  15  14     2.758391104639   111.05201287   175.08990246
 C     42   2   1     4.559821839776    41.78584867   183.15142578
 C     44  42   2     2.652129475853    87.95153797   233.97558675
 C     45  44  42     2.611027836043   120.11137308     0.19721020
 C     42   2   1     4.629866436820   135.97209175    93.46627488
 C     43  41  15     2.559561325344   106.26758155     0.30894352
 C     15  14  13     2.584127074516   171.87382904   332.35056460
 C     42   2   1     2.611386828803    32.59078432   232.00670497
 C      9   2   1     2.655043698059   126.98745415   177.29411526
 N     42   2   1     2.556355970587   113.57249190   121.20286407
 H      1   2   3     2.046682456349    97.37527456   183.61521021
 H      2   1   3     2.040730117440   109.41975100   183.96448158
 H      4   3   1     2.047826729541   121.03096403   179.54378074
 H      5   4   3     2.045404859232   122.83663307   179.47685537
 H      6   5   4     2.064068021697   104.44247343   100.13733657
 H      6   5   4     2.060881294116    84.69404633   209.51654491
 H      6   5   4     2.058369824287   133.88661623   322.34851310
 H      7   2   1     2.040541119952   126.66122480   352.87387835
 H     60   7   2     1.803500804609   125.30857298   150.38797362
 H     12   9   2     1.920524309565   125.29023241   180.00180175
 H     14  13  12     1.917952867083    44.97226959   359.42596618
 H     18  14  13     2.046330847636   128.03556573   234.20482432
 H     55   4   3     1.603549266714   146.87917729   309.47483417
 H     21  20  18     2.047649722989   121.05669627   180.67006309
 H     22  21  20     2.045596898814   122.73097286   180.59748951
 H     23  18  14     2.063779938267   103.92715769   234.93429879
 H     23  18  14     2.057669673245   134.19244188    12.25587044
 H     23  18  14     2.059486796529    84.85857450   125.45241208
 H     24  19  17     2.041046823986   127.28078426   178.44613241
 H     26  18  14     2.047344503340   118.76995697   244.94906660
 H     30  14  13     2.046012340948   127.99711412   279.66882698
 H     31  29  14     2.040450114918   125.22293469   180.92530585
 H     33  32  30     2.046930203877   121.01964473   180.74284758
 H     34  33  32     2.045617847496   122.70821597   180.59516895
 H     35  34  33     2.064814429233   105.73575241    97.19771933
 H     35  34  33     2.058786158072    84.05943581   206.43036958
 H     35  34  33     2.058418400901   133.08365142   318.50306270
 H     36  31  29     2.039845353366   126.61599965   178.98859863
 H     38  30  73     2.047975821711   118.77264435   359.90091293
 H     42   2   1     2.045020725966   119.31790784   337.83439453
 H     43  41  15     2.041436952892   126.36969097   182.06329380
 H     45  44  42     2.047097678177   121.10105945   179.58025624
 H     46  45  44     2.045051284662   122.72144639   179.46906377
 H     47  42   2     2.062723288131   106.65128841   315.16475048
 H     47  42   2     2.057569012371   132.46019523    94.52397119
 H     47  42   2     2.058915377895    83.63838232   206.04504406
 H     48  43  41     2.041664347903   127.23657387   181.62955349
 H     50  42   2     2.046925842384   118.77001737    94.71359229

---------------------
BASIS SET INFORMATION
---------------------
There are 3 groups of distinct atoms

 Group   1 Type C   : 17s4p1d contracted to 3s2p1d pattern {881/31/1}
 Group   2 Type N   : 17s4p1d contracted to 3s2p1d pattern {881/31/1}
 Group   3 Type H   : 4s1p contracted to 2s1p pattern {31/1}

Atom   0C    basis set group =>   1
Atom   1N    basis set group =>   2
Atom   2C    basis set group =>   1
Atom   3N    basis set group =>   2
Atom   4C    basis set group =>   1
Atom   5N    basis set group =>   2
Atom   6C    basis set group =>   1
Atom   7N    basis set group =>   2
Atom   8C    basis set group =>   1
Atom   9N    basis set group =>   2
Atom  10C    basis set group =>   1
Atom  11N    basis set group =>   2
Atom  12C    basis set group =>   1
Atom  13N    basis set group =>   2
Atom  14C    basis set group =>   1
Atom  15N    basis set group =>   2
Atom  16C    basis set group =>   1
Atom  17C    basis set group =>   1
Atom  18C    basis set group =>   1
Atom  19C    basis set group =>   1
Atom  20C    basis set group =>   1
Atom  21C    basis set group =>   1
Atom  22C    basis set group =>   1
Atom  23C    basis set group =>   1
Atom  24C    basis set group =>   1
Atom  25C    basis set group =>   1
Atom  26C    basis set group =>   1
Atom  27C    basis set group =>   1
Atom  28C    basis set group =>   1
Atom  29C    basis set group =>   1
Atom  30C    basis set group =>   1
Atom  31C    basis set group =>   1
Atom  32C    basis set group =>   1
Atom  33C    basis set group =>   1
Atom  34C    basis set group =>   1
Atom  35C    basis set group =>   1
Atom  36C    basis set group =>   1
Atom  37C    basis set group =>   1
Atom  38C    basis set group =>   1
Atom  39C    basis set group =>   1
Atom  40C    basis set group =>   1
Atom  41C    basis set group =>   1
Atom  42C    basis set group =>   1
Atom  43C    basis set group =>   1
Atom  44C    basis set group =>   1
Atom  45C    basis set group =>   1
Atom  46C    basis set group =>   1
Atom  47C    basis set group =>   1
Atom  48C    basis set group =>   1
Atom  49C    basis set group =>   1
Atom  50C    basis set group =>   1
Atom  51C    basis set group =>   1
Atom  52H    basis set group =>   3
Atom  53H    basis set group =>   3
Atom  54H    basis set group =>   3
Atom  55H    basis set group =>   3
Atom  56H    basis set group =>   3
Atom  57H    basis set group =>   3
Atom  58H    basis set group =>   3
Atom  59H    basis set group =>   3
Atom  60H    basis set group =>   3
Atom  61H    basis set group =>   3
Atom  62H    basis set group =>   3
Atom  63H    basis set group =>   3
Atom  64H    basis set group =>   3
Atom  65H    basis set group =>   3
Atom  66H    basis set group =>   3
Atom  67H    basis set group =>   3
Atom  68H    basis set group =>   3
Atom  69H    basis set group =>   3
Atom  70H    basis set group =>   3
Atom  71H    basis set group =>   3
Atom  72H    basis set group =>   3
Atom  73H    basis set group =>   3
Atom  74H    basis set group =>   3
Atom  75H    basis set group =>   3
Atom  76H    basis set group =>   3
Atom  77H    basis set group =>   3
Atom  78H    basis set group =>   3
Atom  79H    basis set group =>   3
Atom  80H    basis set group =>   3
Atom  81H    basis set group =>   3
Atom  82H    basis set group =>   3
Atom  83H    basis set group =>   3
Atom  84H    basis set group =>   3
Atom  85H    basis set group =>   3
Atom  86H    basis set group =>   3
Atom  87H    basis set group =>   3
Atom  88H    basis set group =>   3
Atom  89H    basis set group =>   3


           ************************************************************
           *        Program running with 16 parallel MPI-processes    *
           *              working on a common directory               *
           ************************************************************
------------------------------------------------------------------------------
                           ORCA GTO INTEGRAL CALCULATION
------------------------------------------------------------------------------
------------------------------------------------------------------------------
                   ___                                                        
                  /   \      - P O W E R E D   B Y -                         
                 /     \                                                     
                 |  |  |   _    _      __       _____    __    __             
                 |  |  |  | |  | |    /  \     |  _  \  |  |  /  |          
                  \  \/   | |  | |   /    \    | | | |  |  | /  /          
                 / \  \   | |__| |  /  /\  \   | |_| |  |  |/  /          
                |  |  |   |  __  | /  /__\  \  |    /   |      \           
                |  |  |   | |  | | |   __   |  |    \   |  |\   \          
                \     /   | |  | | |  |  |  |  | |\  \  |  | \   \       
                 \___/    |_|  |_| |__|  |__|  |_| \__\ |__|  \__/        
                                                                              
                      - O R C A' S   B I G   F R I E N D -                    
                                      &                                       
                       - I N T E G R A L  F E E D E R -                       
                                                                              
 v1 FN, 2020, v2 2021                                                         
------------------------------------------------------------------------------


Reading SHARK input file /scratch/allen/tmpyp4_amber_gaff2/conf1/conf1/Conf12.orca.SHARKINP.tmp ... ok
----------------------
SHARK INTEGRAL PACKAGE
----------------------

Number of atoms                             ...     90
Number of basis functions                   ...   1230
Number of shells                            ...    738
Maximum angular momentum                    ...      2
Integral batch strategy                     ... SHARK/LIBINT Hybrid
RI-J (if used) integral strategy            ... SPLIT-RIJ (Revised 2003 algorithm where possible)
Printlevel                                  ...      1
Contraction scheme used                     ... PARTIAL GENERAL contraction
Coulomb Range Separation                    ... NOT USED
Exchange Range Separation                   ... NOT USED
Finite Nucleus Model                        ... NOT USED
Auxiliary Coulomb fitting basis             ... NOT available
Auxiliary J/K fitting basis                 ... NOT available
Auxiliary Correlation fitting basis         ... NOT available
Auxiliary 'external' fitting basis          ... NOT available
Integral threshold                          ...     2.500000e-11
Primitive cut-off                           ...     2.500000e-12
Primitive pair pre-selection threshold      ...     2.500000e-12

Calculating pre-screening integrals         ... done (  0.1 sec) Dimension = 738
Calculating pre-screening integrals (ORCA)  ... done (  0.3 sec) Dimension = 426
Organizing shell pair data                  ... done (  0.5 sec)
Shell pair information
Total number of shell pairs                 ...    272691
Shell pairs after pre-screening             ...     71730
Total number of primitive shell pairs       ...    422091
Primitive shell pairs kept                  ...     92636
          la=0 lb=0:  29445 shell pairs
          la=1 lb=0:  26031 shell pairs
          la=1 lb=1:   4700 shell pairs
          la=2 lb=0:   7895 shell pairs
          la=2 lb=1:   3130 shell pairs
          la=2 lb=2:    529 shell pairs

Calculating one electron integrals          ... done (  0.2 sec)
Calculating Nuclear repulsion               ... done (  0.0 sec) ENN=   6235.276786923730 Eh

SHARK setup successfully completed in   1.9 seconds

Maximum memory used throughout the entire GTOINT-calculation: 99.1 MB


           ************************************************************
           *        Program running with 16 parallel MPI-processes    *
           *              working on a common directory               *
           ************************************************************
-------------------------------------------------------------------------------
                                 ORCA SCF
-------------------------------------------------------------------------------

------------
SCF SETTINGS
------------
Hamiltonian:
 Ab initio Hamiltonian  Method          .... Hartree-Fock(GTOs)


General Settings:
 Integral files         IntName         .... /scratch/allen/tmpyp4_amber_gaff2/conf1/conf1/Conf12.orca
 Hartree-Fock type      HFTyp           .... RHF
 Total Charge           Charge          ....    0
 Multiplicity           Mult            ....    1
 Number of Electrons    NEL             ....  358
 Basis Dimension        Dim             ....  918
 Nuclear Repulsion      ENuc            ....   6235.2767869237 Eh

Convergence Acceleration:
 DIIS                   CNVDIIS         .... on
   Start iteration      DIISMaxIt       ....    12
   Startup error        DIISStart       ....  0.200000
   # of expansion vecs  DIISMaxEq       ....     5
   Bias factor          DIISBfac        ....   1.050
   Max. coefficient     DIISMaxC        ....  10.000
 Trust-Rad. Augm. Hess. CNVTRAH         .... auto
   Auto Start mean grad. ratio tolernc. ....  1.125000
   Auto Start start iteration           ....    20
   Auto Start num. interpolation iter.  ....    10
   Max. Number of Micro iterations      ....    16
   Max. Number of Macro iterations      .... Maxiter - #DIIS iter
   Number of Davidson start vectors     ....     2
   Converg. threshold I  (grad. norm)   ....   1.000e-05
   Converg. threshold II (energy diff.) ....   1.000e-08
   Grad. Scal. Fac. for Micro threshold ....   0.100
   Minimum threshold for Micro iter.    ....   0.010
   NR start threshold (gradient norm)   ....   0.001
   Initial trust radius                 ....   0.400
   Minimum AH scaling param. (alpha)    ....   1.000
   Maximum AH scaling param. (alpha)    .... 1000.000
   Orbital update algorithm             .... Taylor
   White noise on init. David. guess    .... on
   Maximum white noise                  ....   0.010
   Quad. conv. algorithm                .... NR
 SOSCF                  CNVSOSCF        .... on
   Start iteration      SOSCFMaxIt      ....   150
   Startup grad/error   SOSCFStart      ....  0.003300
 Level Shifting         CNVShift        .... on
   Level shift para.    LevelShift      ....    0.2500
   Turn off err/grad.   ShiftErr        ....    0.0010
 Zerner damping         CNVZerner       .... off
 Static damping         CNVDamp         .... on
   Fraction old density DampFac         ....    0.7000
   Max. Damping (<1)    DampMax         ....    0.9800
   Min. Damping (>=0)   DampMin         ....    0.0000
   Turn off err/grad.   DampErr         ....    0.1000
 Fernandez-Rico         CNVRico         .... off

SCF Procedure:
 Maximum # iterations   MaxIter         ....   125
 SCF integral mode      SCFMode         .... Direct
   Integral package                     .... SHARK and LIBINT hybrid scheme
 Reset frequency        DirectResetFreq ....    20
 Integral Threshold     Thresh          ....  2.500e-11 Eh
 Primitive CutOff       TCut            ....  2.500e-12 Eh

Convergence Tolerance:
 Convergence Check Mode ConvCheckMode   .... Total+1el-Energy
 Convergence forced     ConvForced      .... 1
 Energy Change          TolE            ....  1.000e-08 Eh
 1-El. energy change                    ....  1.000e-05 Eh
 Orbital Gradient       TolG            ....  1.000e-05
 Orbital Rotation angle TolX            ....  1.000e-05
 DIIS Error             TolErr          ....  5.000e-07


Diagonalization of the overlap matrix:
Smallest eigenvalue                        ... 1.772e-04
Time for diagonalization                   ...    0.550 sec
Threshold for overlap eigenvalues          ... 1.000e-08
Number of eigenvalues below threshold      ... 0
Time for construction of square roots      ...    0.191 sec
Total time needed                          ...    0.746 sec

Time for model grid setup =    1.004 sec

------------------------------
INITIAL GUESS: MODEL POTENTIAL
------------------------------
Loading Hartree-Fock densities                     ... done
Calculating cut-offs                               ... done
Initializing the effective Hamiltonian             ... done
Setting up the integral package (SHARK)            ... done
Starting the Coulomb interaction                   ... done (   1.1 sec)
Reading the grid                                   ... done
Mapping shells                                     ... done
Starting the XC term evaluation                    ... done (   0.2 sec)
Transforming the Hamiltonian                       ... done (   0.2 sec)
Diagonalizing the Hamiltonian                      ... done (   0.3 sec)
Back transforming the eigenvectors                 ... done (   0.1 sec)
Now organizing SCF variables                       ... done
                      ------------------
                      INITIAL GUESS DONE (   2.9 sec)
                      ------------------
--------------
SCF ITERATIONS
--------------
ITER       Energy         Delta-E        Max-DP      RMS-DP      [F,P]     Damp
               ***  Starting incremental Fock matrix formation  ***
  0  -2121.5839843530   0.000000000000 0.07438883  0.00129540  0.2311770 0.7000
  1  -2122.2246208570  -0.640636504051 0.07710658  0.00106037  0.1434711 0.7000
                               ***Turning on DIIS***
  2  -2122.6245937720  -0.399972914942 0.13394763  0.00239217  0.0803127 0.0000
  3  -2118.0340811192   4.590512652807 0.10714152  0.00074597  0.0434349 0.0000
  4  -2123.3254988339  -5.291417714703 0.03033901  0.00024126  0.0092995 0.0000
  5  -2123.4525107364  -0.127011902570 0.01383210  0.00013737  0.0048230 0.0000
  6  -2123.4364118226   0.016098913797 0.00834008  0.00008752  0.0022526 0.0000
  7  -2123.5281944981  -0.091782675474 0.00498407  0.00006829  0.0016223 0.0000
  8  -2123.5343106456  -0.006116147495 0.00388274  0.00006502  0.0015205 0.0000
  9  -2123.5080742713   0.026236374253 0.00266224  0.00004636  0.0012235 0.0000
 10  -2123.5154518160  -0.007377544658 0.00534939  0.00009694  0.0009591 0.0000
                      *** Initiating the SOSCF procedure ***
                           *** Shutting down DIIS ***
                      *** Re-Reading the Fockian *** 
                      *** Removing any level shift *** 
ITER      Energy       Delta-E        Grad      Rot      Max-DP    RMS-DP
 11  -2123.41018533   0.1052664900  0.000182  0.000182  0.000247  0.000005
               *** Restarting incremental Fock matrix formation ***
 12  -2123.47580903  -0.0656237037  0.000931  0.006230  0.001486  0.000035
 13  -2123.47592117  -0.0001121429  0.001142  0.030920  0.006735  0.000138
 14  -2123.47610719  -0.0001860185  0.000390  0.001849  0.000605  0.000013
 15  -2123.47612250  -0.0000153118  0.000195  0.002431  0.000509  0.000014
 16  -2123.47612953  -0.0000070276  0.000133  0.002110  0.000483  0.000009
 17  -2123.47613232  -0.0000027915  0.000135  0.002177  0.000309  0.000008
 18  -2123.47613369  -0.0000013725  0.000061  0.001312  0.000225  0.000005
 19  -2123.47613455  -0.0000008542  0.000048  0.001884  0.000279  0.000006
 20  -2123.47613512  -0.0000005705  0.000029  0.001107  0.000183  0.000004
 21  -2123.47613539  -0.0000002678  0.000028  0.001314  0.000214  0.000004
 22  -2123.47613565  -0.0000002611  0.000027  0.001071  0.000164  0.000003
 23  -2123.47613580  -0.0000001530  0.000016  0.000396  0.000070  0.000001
 24  -2123.47613586  -0.0000000560  0.000009  0.000256  0.000056  0.000001
 25  -2123.47613589  -0.0000000305  0.000008  0.000136  0.000043  0.000001
 26  -2123.47613590  -0.0000000114  0.000006  0.000082  0.000029  0.000000
 27  -2123.47613590   0.0000000024  0.000003  0.000063  0.000021  0.000000
                  ***Gradient check signals convergence***
              ***Rediagonalizing the Fockian in SOSCF/NRSCF***

               *****************************************************
               *                     SUCCESS                       *
               *           SCF CONVERGED AFTER  28 CYCLES          *
               *****************************************************


----------------
TOTAL SCF ENERGY
----------------

Total Energy       :        -2123.47613589 Eh          -57782.72327 eV

Components:
Nuclear Repulsion  :         6235.27678692 Eh          169670.50725 eV
Electronic Energy  :        -8358.75292282 Eh         -227453.23053 eV
One Electron Energy:       -15311.00577153 Eh         -416633.64829 eV
Two Electron Energy:         6952.25284871 Eh          189180.41776 eV

Virial components:
Potential Energy   :        -4246.05498591 Eh         -115541.03016 eV
Kinetic Energy     :         2122.57885002 Eh           57758.30688 eV
Virial Ratio       :            2.00042273


---------------
SCF CONVERGENCE
---------------

  Last Energy change         ...    1.7117e-09  Tolerance :   1.0000e-08
  Last MAX-Density change    ...    9.6404e-06  Tolerance :   1.0000e-07
  Last RMS-Density change    ...    1.7377e-07  Tolerance :   5.0000e-09
  Last Orbital Gradient      ...    1.9004e-06  Tolerance :   1.0000e-05
  Last Orbital Rotation      ...    3.3612e-05  Tolerance :   1.0000e-05

             **** THE GBW FILE WAS UPDATED (/scratch/allen/tmpyp4_amber_gaff2/conf1/conf1/Conf12.orca.gbw) ****
             **** DENSITY /scratch/allen/tmpyp4_amber_gaff2/conf1/conf1/Conf12.orca.scfp WAS UPDATED ****
             **** ENERGY FILE WAS UPDATED (/scratch/allen/tmpyp4_amber_gaff2/conf1/conf1/Conf12.orca.en.tmp) ****
             **** THE GBW FILE WAS UPDATED (/scratch/allen/tmpyp4_amber_gaff2/conf1/conf1/Conf12.orca.gbw) ****
             **** DENSITY /scratch/allen/tmpyp4_amber_gaff2/conf1/conf1/Conf12.orca.scfp WAS UPDATED ****
----------------
ORBITAL ENERGIES
----------------

  NO   OCC          E(Eh)            E(eV) 
   0   2.0000     -15.679910      -426.6720 
   1   2.0000     -15.633030      -425.3964 
   2   2.0000     -15.632742      -425.3885 
   3   2.0000     -15.588314      -424.1796 
   4   2.0000     -15.524826      -422.4520 
   5   2.0000     -15.515543      -422.1994 
   6   2.0000     -15.454102      -420.5275 
   7   2.0000     -15.439346      -420.1260 
   8   2.0000     -11.329371      -308.2879 
   9   2.0000     -11.328617      -308.2673 
  10   2.0000     -11.328003      -308.2506 
  11   2.0000     -11.299109      -307.4644 
  12   2.0000     -11.298565      -307.4496 
  13   2.0000     -11.292247      -307.2777 
  14   2.0000     -11.291998      -307.2709 
  15   2.0000     -11.287521      -307.1491 
  16   2.0000     -11.285464      -307.0931 
  17   2.0000     -11.282142      -307.0027 
  18   2.0000     -11.269837      -306.6679 
  19   2.0000     -11.263432      -306.4936 
  20   2.0000     -11.262428      -306.4663 
  21   2.0000     -11.251863      -306.1787 
  22   2.0000     -11.248173      -306.0783 
  23   2.0000     -11.237743      -305.7945 
  24   2.0000     -11.236565      -305.7625 
  25   2.0000     -11.230619      -305.6007 
  26   2.0000     -11.230458      -305.5963 
  27   2.0000     -11.230212      -305.5896 
  28   2.0000     -11.229461      -305.5692 
  29   2.0000     -11.210631      -305.0568 
  30   2.0000     -11.209302      -305.0206 
  31   2.0000     -11.194132      -304.6078 
  32   2.0000     -11.191812      -304.5447 
  33   2.0000     -11.191473      -304.5355 
  34   2.0000     -11.188932      -304.4663 
  35   2.0000     -11.188304      -304.4492 
  36   2.0000     -11.187483      -304.4269 
  37   2.0000     -11.174927      -304.0852 
  38   2.0000     -11.174413      -304.0712 
  39   2.0000     -11.171463      -303.9910 
  40   2.0000     -11.171424      -303.9899 
  41   2.0000     -11.169134      -303.9276 
  42   2.0000     -11.167836      -303.8923 
  43   2.0000     -11.162334      -303.7426 
  44   2.0000     -11.160596      -303.6953 
  45   2.0000     -11.157268      -303.6047 
  46   2.0000     -11.156164      -303.5747 
  47   2.0000     -11.151596      -303.4504 
  48   2.0000     -11.147278      -303.3329 
  49   2.0000     -11.135358      -303.0085 
  50   2.0000     -11.129144      -302.8394 
  51   2.0000     -11.117167      -302.5135 
  52   2.0000      -1.360480       -37.0205 
  53   2.0000      -1.320640       -35.9364 
  54   2.0000      -1.320165       -35.9235 
  55   2.0000      -1.280642       -34.8480 
  56   2.0000      -1.225878       -33.3578 
  57   2.0000      -1.210414       -32.9370 
  58   2.0000      -1.173833       -31.9416 
  59   2.0000      -1.150499       -31.3067 
  60   2.0000      -1.143745       -31.1229 
  61   2.0000      -1.110438       -30.2166 
  62   2.0000      -1.108760       -30.1709 
  63   2.0000      -1.082160       -29.4471 
  64   2.0000      -1.077310       -29.3151 
  65   2.0000      -1.045233       -28.4422 
  66   2.0000      -1.044402       -28.4196 
  67   2.0000      -1.041163       -28.3315 
  68   2.0000      -1.014938       -27.6179 
  69   2.0000      -1.014112       -27.5954 
  70   2.0000      -1.009093       -27.4588 
  71   2.0000      -0.993265       -27.0281 
  72   2.0000      -0.985656       -26.8211 
  73   2.0000      -0.981697       -26.7133 
  74   2.0000      -0.973458       -26.4891 
  75   2.0000      -0.962488       -26.1906 
  76   2.0000      -0.955016       -25.9873 
  77   2.0000      -0.946246       -25.7487 
  78   2.0000      -0.938933       -25.5497 
  79   2.0000      -0.916897       -24.9500 
  80   2.0000      -0.910627       -24.7794 
  81   2.0000      -0.897577       -24.4243 
  82   2.0000      -0.876972       -23.8636 
  83   2.0000      -0.871694       -23.7200 
  84   2.0000      -0.871125       -23.7045 
  85   2.0000      -0.860815       -23.4240 
  86   2.0000      -0.845069       -22.9955 
  87   2.0000      -0.836467       -22.7614 
  88   2.0000      -0.828626       -22.5481 
  89   2.0000      -0.796496       -21.6738 
  90   2.0000      -0.789154       -21.4740 
  91   2.0000      -0.769587       -20.9415 
  92   2.0000      -0.753048       -20.4915 
  93   2.0000      -0.733651       -19.9637 
  94   2.0000      -0.727469       -19.7954 
  95   2.0000      -0.725453       -19.7406 
  96   2.0000      -0.719895       -19.5894 
  97   2.0000      -0.717603       -19.5270 
  98   2.0000      -0.713937       -19.4272 
  99   2.0000      -0.699021       -19.0213 
 100   2.0000      -0.698177       -18.9984 
 101   2.0000      -0.694332       -18.8937 
 102   2.0000      -0.685368       -18.6498 
 103   2.0000      -0.684426       -18.6242 
 104   2.0000      -0.678744       -18.4696 
 105   2.0000      -0.674604       -18.3569 
 106   2.0000      -0.672827       -18.3086 
 107   2.0000      -0.660896       -17.9839 
 108   2.0000      -0.658127       -17.9086 
 109   2.0000      -0.652897       -17.7662 
 110   2.0000      -0.651991       -17.7416 
 111   2.0000      -0.646248       -17.5853 
 112   2.0000      -0.645657       -17.5692 
 113   2.0000      -0.637698       -17.3526 
 114   2.0000      -0.635888       -17.3034 
 115   2.0000      -0.628664       -17.1068 
 116   2.0000      -0.623283       -16.9604 
 117   2.0000      -0.620815       -16.8932 
 118   2.0000      -0.612926       -16.6786 
 119   2.0000      -0.612373       -16.6635 
 120   2.0000      -0.611484       -16.6393 
 121   2.0000      -0.611383       -16.6366 
 122   2.0000      -0.601643       -16.3715 
 123   2.0000      -0.588710       -16.0196 
 124   2.0000      -0.581484       -15.8230 
 125   2.0000      -0.580817       -15.8048 
 126   2.0000      -0.580102       -15.7854 
 127   2.0000      -0.571230       -15.5440 
 128   2.0000      -0.567269       -15.4362 
 129   2.0000      -0.560049       -15.2397 
 130   2.0000      -0.554825       -15.0975 
 131   2.0000      -0.547911       -14.9094 
 132   2.0000      -0.542697       -14.7675 
 133   2.0000      -0.540480       -14.7072 
 134   2.0000      -0.538276       -14.6472 
 135   2.0000      -0.536483       -14.5984 
 136   2.0000      -0.531553       -14.4643 
 137   2.0000      -0.518666       -14.1136 
 138   2.0000      -0.516428       -14.0527 
 139   2.0000      -0.514843       -14.0096 
 140   2.0000      -0.512329       -13.9412 
 141   2.0000      -0.510049       -13.8791 
 142   2.0000      -0.507665       -13.8143 
 143   2.0000      -0.505394       -13.7525 
 144   2.0000      -0.502638       -13.6775 
 145   2.0000      -0.495749       -13.4900 
 146   2.0000      -0.488392       -13.2898 
 147   2.0000      -0.481242       -13.0953 
 148   2.0000      -0.477296       -12.9879 
 149   2.0000      -0.467816       -12.7299 
 150   2.0000      -0.466360       -12.6903 
 151   2.0000      -0.456746       -12.4287 
 152   2.0000      -0.451833       -12.2950 
 153   2.0000      -0.444880       -12.1058 
 154   2.0000      -0.438182       -11.9235 
 155   2.0000      -0.427538       -11.6339 
 156   2.0000      -0.409560       -11.1447 
 157   2.0000      -0.395338       -10.7577 
 158   2.0000      -0.390235       -10.6188 
 159   2.0000      -0.387712       -10.5502 
 160   2.0000      -0.378679       -10.3044 
 161   2.0000      -0.373333       -10.1589 
 162   2.0000      -0.364030        -9.9058 
 163   2.0000      -0.356784        -9.7086 
 164   2.0000      -0.355709        -9.6793 
 165   2.0000      -0.342156        -9.3105 
 166   2.0000      -0.337617        -9.1870 
 167   2.0000      -0.324432        -8.8282 
 168   2.0000      -0.321412        -8.7461 
 169   2.0000      -0.305051        -8.3008 
 170   2.0000      -0.299466        -8.1489 
 171   2.0000      -0.285705        -7.7744 
 172   2.0000      -0.278582        -7.5806 
 173   2.0000      -0.263869        -7.1802 
 174   2.0000      -0.241749        -6.5783 
 175   2.0000      -0.189951        -5.1688 
 176   2.0000      -0.181173        -4.9300 
 177   2.0000      -0.079663        -2.1677 
 178   2.0000      -0.059760        -1.6261 
 179   0.0000       0.028381         0.7723 
 180   0.0000       0.065340         1.7780 
 181   0.0000       0.090164         2.4535 
 182   0.0000       0.106186         2.8895 
 183   0.0000       0.116017         3.1570 
 184   0.0000       0.137160         3.7323 
 185   0.0000       0.139307         3.7907 
 186   0.0000       0.140887         3.8337 
 187   0.0000       0.164128         4.4661 
 188   0.0000       0.165071         4.4918 
 189   0.0000       0.165723         4.5095 
 190   0.0000       0.173799         4.7293 
 191   0.0000       0.180312         4.9065 
 192   0.0000       0.183716         4.9992 
 193   0.0000       0.189216         5.1488 
 194   0.0000       0.204788         5.5726 
 195   0.0000       0.205646         5.5959 
 196   0.0000       0.208004         5.6601 
 197   0.0000       0.208907         5.6847 
 198   0.0000       0.216490         5.8910 
 199   0.0000       0.228499         6.2178 
 200   0.0000       0.233711         6.3596 
 201   0.0000       0.233826         6.3627 
 202   0.0000       0.238920         6.5013 
 203   0.0000       0.239781         6.5248 
 204   0.0000       0.246226         6.7002 
 205   0.0000       0.255031         6.9398 
 206   0.0000       0.256224         6.9722 
 207   0.0000       0.257749         7.0137 
 208   0.0000       0.258938         7.0461 
 209   0.0000       0.260483         7.0881 
 210   0.0000       0.263518         7.1707 
 211   0.0000       0.265615         7.2278 
 212   0.0000       0.268617         7.3094 
 213   0.0000       0.271280         7.3819 
 214   0.0000       0.272933         7.4269 
 215   0.0000       0.275779         7.5043 
 216   0.0000       0.277920         7.5626 
 217   0.0000       0.283000         7.7008 
 218   0.0000       0.286710         7.8018 
 219   0.0000       0.287429         7.8213 
 220   0.0000       0.289961         7.8903 
 221   0.0000       0.292185         7.9507 
 222   0.0000       0.294877         8.0240 
 223   0.0000       0.296619         8.0714 
 224   0.0000       0.297245         8.0885 
 225   0.0000       0.301224         8.1967 
 226   0.0000       0.305265         8.3067 
 227   0.0000       0.308333         8.3902 
 228   0.0000       0.314962         8.5706 
 229   0.0000       0.324479         8.8295 
 230   0.0000       0.328140         8.9291 
 231   0.0000       0.335098         9.1185 
 232   0.0000       0.343314         9.3420 
 233   0.0000       0.356493         9.7007 
 234   0.0000       0.368730        10.0337 
 235   0.0000       0.370834        10.0909 
 236   0.0000       0.378475        10.2988 
 237   0.0000       0.390346        10.6218 
 238   0.0000       0.396079        10.7779 
 239   0.0000       0.401008        10.9120 
 240   0.0000       0.406867        11.0714 
 241   0.0000       0.411115        11.1870 
 242   0.0000       0.415116        11.2959 
 243   0.0000       0.418021        11.3749 
 244   0.0000       0.429741        11.6938 
 245   0.0000       0.434363        11.8196 
 246   0.0000       0.439444        11.9579 
 247   0.0000       0.440970        11.9994 
 248   0.0000       0.442378        12.0377 
 249   0.0000       0.449478        12.2309 
 250   0.0000       0.452994        12.3266 
 251   0.0000       0.465191        12.6585 
 252   0.0000       0.466210        12.6862 
 253   0.0000       0.467515        12.7217 
 254   0.0000       0.471136        12.8203 
 255   0.0000       0.474777        12.9193 
 256   0.0000       0.475311        12.9339 
 257   0.0000       0.480643        13.0790 
 258   0.0000       0.489392        13.3170 
 259   0.0000       0.495523        13.4839 
 260   0.0000       0.503681        13.7059 
 261   0.0000       0.504717        13.7341 
 262   0.0000       0.506550        13.7839 
 263   0.0000       0.512242        13.9388 
 264   0.0000       0.516298        14.0492 
 265   0.0000       0.521592        14.1932 
 266   0.0000       0.523098        14.2342 
 267   0.0000       0.528074        14.3696 
 268   0.0000       0.535333        14.5671 
 269   0.0000       0.536629        14.6024 
 270   0.0000       0.545443        14.8423 
 271   0.0000       0.551962        15.0196 
 272   0.0000       0.558356        15.1936 
 273   0.0000       0.559806        15.2331 
 274   0.0000       0.565812        15.3965 
 275   0.0000       0.566269        15.4090 
 276   0.0000       0.572941        15.5905 
 277   0.0000       0.574322        15.6281 
 278   0.0000       0.580541        15.7973 
 279   0.0000       0.586416        15.9572 
 280   0.0000       0.592831        16.1317 
 281   0.0000       0.593381        16.1467 
 282   0.0000       0.594725        16.1833 
 283   0.0000       0.595868        16.2144 
 284   0.0000       0.598362        16.2823 
 285   0.0000       0.600470        16.3396 
 286   0.0000       0.604259        16.4427 
 287   0.0000       0.611035        16.6271 
 288   0.0000       0.616902        16.7868 
 289   0.0000       0.624075        16.9819 
 290   0.0000       0.624813        17.0020 
 291   0.0000       0.628897        17.1131 
 292   0.0000       0.632666        17.2157 
 293   0.0000       0.635844        17.3022 
 294   0.0000       0.645799        17.5731 
 295   0.0000       0.648747        17.6533 
 296   0.0000       0.652747        17.7621 
 297   0.0000       0.655356        17.8332 
 298   0.0000       0.661531        18.0012 
 299   0.0000       0.665988        18.1225 
 300   0.0000       0.670835        18.2543 
 301   0.0000       0.675345        18.3771 
 302   0.0000       0.677572        18.4377 
 303   0.0000       0.680521        18.5179 
 304   0.0000       0.681633        18.5482 
 305   0.0000       0.685651        18.6575 
 306   0.0000       0.688786        18.7428 
 307   0.0000       0.692543        18.8450 
 308   0.0000       0.695073        18.9139 
 309   0.0000       0.700433        19.0598 
 310   0.0000       0.702585        19.1183 
 311   0.0000       0.704372        19.1669 
 312   0.0000       0.706391        19.2219 
 313   0.0000       0.711265        19.3545 
 314   0.0000       0.711989        19.3742 
 315   0.0000       0.716122        19.4867 
 316   0.0000       0.716983        19.5101 
 317   0.0000       0.718269        19.5451 
 318   0.0000       0.724785        19.7224 
 319   0.0000       0.727726        19.8024 
 320   0.0000       0.727999        19.8099 
 321   0.0000       0.729895        19.8614 
 322   0.0000       0.731595        19.9077 
 323   0.0000       0.732896        19.9431 
 324   0.0000       0.736041        20.0287 
 325   0.0000       0.740904        20.1610 
 326   0.0000       0.743553        20.2331 
 327   0.0000       0.748372        20.3642 
 328   0.0000       0.752756        20.4835 
 329   0.0000       0.756089        20.5742 
 330   0.0000       0.757854        20.6222 
 331   0.0000       0.764182        20.7945 
 332   0.0000       0.767067        20.8730 
 333   0.0000       0.767664        20.8892 
 334   0.0000       0.769288        20.9334 
 335   0.0000       0.774332        21.0706 
 336   0.0000       0.779732        21.2176 
 337   0.0000       0.781170        21.2567 
 338   0.0000       0.785332        21.3700 
 339   0.0000       0.790177        21.5018 
 340   0.0000       0.792555        21.5665 
 341   0.0000       0.795267        21.6403 
 342   0.0000       0.800619        21.7860 
 343   0.0000       0.802608        21.8401 
 344   0.0000       0.806125        21.9358 
 345   0.0000       0.808368        21.9968 
 346   0.0000       0.812185        22.1007 
 347   0.0000       0.814466        22.1627 
 348   0.0000       0.815736        22.1973 
 349   0.0000       0.817282        22.2394 
 350   0.0000       0.819807        22.3081 
 351   0.0000       0.823283        22.4027 
 352   0.0000       0.825680        22.4679 
 353   0.0000       0.827123        22.5072 
 354   0.0000       0.831376        22.6229 
 355   0.0000       0.832444        22.6520 
 356   0.0000       0.834473        22.7072 
 357   0.0000       0.837200        22.7814 
 358   0.0000       0.838590        22.8192 
 359   0.0000       0.839877        22.8542 
 360   0.0000       0.842514        22.9260 
 361   0.0000       0.843534        22.9537 
 362   0.0000       0.845931        23.0190 
 363   0.0000       0.849214        23.1083 
 364   0.0000       0.852334        23.1932 
 365   0.0000       0.855951        23.2916 
 366   0.0000       0.859473        23.3875 
 367   0.0000       0.862193        23.4615 
 368   0.0000       0.867805        23.6142 
 369   0.0000       0.870185        23.6789 
 370   0.0000       0.872299        23.7365 
 371   0.0000       0.873540        23.7702 
 372   0.0000       0.876372        23.8473 
 373   0.0000       0.878214        23.8974 
 374   0.0000       0.879312        23.9273 
 375   0.0000       0.882511        24.0143 
 376   0.0000       0.889576        24.2066 
 377   0.0000       0.890944        24.2438 
 378   0.0000       0.893035        24.3007 
 379   0.0000       0.894684        24.3456 
 380   0.0000       0.897265        24.4158 
 381   0.0000       0.899038        24.4641 
 382   0.0000       0.900799        24.5120 
 383   0.0000       0.901678        24.5359 
 384   0.0000       0.906265        24.6607 
 385   0.0000       0.907435        24.6926 
 386   0.0000       0.908366        24.7179 
 387   0.0000       0.911859        24.8130 
 388   0.0000       0.915594        24.9146 
 389   0.0000       0.918896        25.0044 
 390   0.0000       0.921133        25.0653 
 391   0.0000       0.926042        25.1989 
 392   0.0000       0.927097        25.2276 
 393   0.0000       0.928777        25.2733 
 394   0.0000       0.930089        25.3090 
 395   0.0000       0.933042        25.3894 
 396   0.0000       0.935492        25.4560 
 397   0.0000       0.941243        25.6125 
 398   0.0000       0.944356        25.6972 
 399   0.0000       0.944987        25.7144 
 400   0.0000       0.948843        25.8193 
 401   0.0000       0.954015        25.9601 
 402   0.0000       0.955098        25.9895 
 403   0.0000       0.958691        26.0873 
 404   0.0000       0.960983        26.1497 
 405   0.0000       0.962510        26.1912 
 406   0.0000       0.971699        26.4413 
 407   0.0000       0.978837        26.6355 
 408   0.0000       0.982536        26.7362 
 409   0.0000       0.987239        26.8641 
 410   0.0000       0.988961        26.9110 
 411   0.0000       0.993739        27.0410 
 412   0.0000       0.999465        27.1968 
 413   0.0000       1.004976        27.3468 
 414   0.0000       1.009455        27.4687 
 415   0.0000       1.011734        27.5307 
 416   0.0000       1.018282        27.7089 
 417   0.0000       1.020328        27.7645 
 418   0.0000       1.029509        28.0144 
 419   0.0000       1.032467        28.0949 
 420   0.0000       1.035610        28.1804 
 421   0.0000       1.038517        28.2595 
 422   0.0000       1.044209        28.4144 
 423   0.0000       1.053195        28.6589 
 424   0.0000       1.062974        28.9250 
 425   0.0000       1.068578        29.0775 
 426   0.0000       1.072932        29.1960 
 427   0.0000       1.076933        29.3048 
 428   0.0000       1.079203        29.3666 
 429   0.0000       1.087991        29.6057 
 430   0.0000       1.089439        29.6451 
 431   0.0000       1.093158        29.7463 
 432   0.0000       1.099122        29.9086 
 433   0.0000       1.102841        30.0098 
 434   0.0000       1.107514        30.1370 
 435   0.0000       1.111795        30.2535 
 436   0.0000       1.114977        30.3401 
 437   0.0000       1.116975        30.3944 
 438   0.0000       1.121317        30.5126 
 439   0.0000       1.122863        30.5547 
 440   0.0000       1.124958        30.6117 
 441   0.0000       1.129521        30.7358 
 442   0.0000       1.133722        30.8501 
 443   0.0000       1.135241        30.8915 
 444   0.0000       1.137965        30.9656 
 445   0.0000       1.141662        31.0662 
 446   0.0000       1.148082        31.2409 
 447   0.0000       1.150164        31.2976 
 448   0.0000       1.154233        31.4083 
 449   0.0000       1.159392        31.5487 
 450   0.0000       1.160268        31.5725 
 451   0.0000       1.164909        31.6988 
 452   0.0000       1.166476        31.7414 
 453   0.0000       1.168864        31.8064 
 454   0.0000       1.171135        31.8682 
 455   0.0000       1.172619        31.9086 
 456   0.0000       1.183177        32.1959 
 457   0.0000       1.186519        32.2868 
 458   0.0000       1.195015        32.5180 
 459   0.0000       1.197297        32.5801 
 460   0.0000       1.202904        32.7327 
 461   0.0000       1.203638        32.7526 
 462   0.0000       1.208089        32.8738 
 463   0.0000       1.209252        32.9054 
 464   0.0000       1.212269        32.9875 
 465   0.0000       1.217324        33.1251 
 466   0.0000       1.221677        33.2435 
 467   0.0000       1.227992        33.4154 
 468   0.0000       1.228725        33.4353 
 469   0.0000       1.230172        33.4747 
 470   0.0000       1.233969        33.5780 
 471   0.0000       1.237466        33.6732 
 472   0.0000       1.241329        33.7783 
 473   0.0000       1.243936        33.8492 
 474   0.0000       1.245818        33.9004 
 475   0.0000       1.248764        33.9806 
 476   0.0000       1.251352        34.0510 
 477   0.0000       1.251733        34.0614 
 478   0.0000       1.258069        34.2338 
 479   0.0000       1.261189        34.3187 
 480   0.0000       1.263586        34.3839 
 481   0.0000       1.264028        34.3959 
 482   0.0000       1.270531        34.5729 
 483   0.0000       1.272202        34.6184 
 484   0.0000       1.278925        34.8013 
 485   0.0000       1.282186        34.8901 
 486   0.0000       1.285073        34.9686 
 487   0.0000       1.289473        35.0884 
 488   0.0000       1.291842        35.1528 
 489   0.0000       1.294002        35.2116 
 490   0.0000       1.300303        35.3830 
 491   0.0000       1.301772        35.4230 
 492   0.0000       1.306742        35.5583 
 493   0.0000       1.311430        35.6858 
 494   0.0000       1.314443        35.7678 
 495   0.0000       1.319280        35.8994 
 496   0.0000       1.321973        35.9727 
 497   0.0000       1.325559        36.0703 
 498   0.0000       1.328687        36.1554 
 499   0.0000       1.331748        36.2387 
 500   0.0000       1.337965        36.4079 
 501   0.0000       1.341274        36.4979 
 502   0.0000       1.341930        36.5158 
 503   0.0000       1.344123        36.5754 
 504   0.0000       1.347854        36.6770 
 505   0.0000       1.350231        36.7416 
 506   0.0000       1.351989        36.7895 
 507   0.0000       1.359164        36.9847 
 508   0.0000       1.361165        37.0392 
 509   0.0000       1.364043        37.1175 
[...]
      px      :     0.043612
      py      :     0.014046
 77 H s       :     0.884455  s :     0.884455
      pz      :     0.047979  p :     0.079296
      px      :     0.015024
      py      :     0.016293
 78 H s       :     0.884774  s :     0.884774
      pz      :     0.025886  p :     0.079271
      px      :     0.020454
      py      :     0.032931
 79 H s       :     0.910884  s :     0.910884
      pz      :     0.021789  p :     0.086284
      px      :     0.021657
      py      :     0.042838
 80 H s       :     0.864282  s :     0.864282
      pz      :     0.039397  p :     0.084833
      px      :     0.030284
      py      :     0.015151
 81 H s       :     0.886584  s :     0.886584
      pz      :     0.037841  p :     0.084134
      px      :     0.016168
      py      :     0.030125
 82 H s       :     0.915948  s :     0.915948
      pz      :     0.021945  p :     0.086732
      px      :     0.031661
      py      :     0.033125
 83 H s       :     0.873176  s :     0.873176
      pz      :     0.039298  p :     0.084129
      px      :     0.015270
      py      :     0.029561
 84 H s       :     0.886435  s :     0.886435
      pz      :     0.035784  p :     0.083422
      px      :     0.031706
      py      :     0.015933
 85 H s       :     0.892587  s :     0.892587
      pz      :     0.022496  p :     0.079796
      px      :     0.014059
      py      :     0.043241
 86 H s       :     0.890833  s :     0.890833
      pz      :     0.024737  p :     0.078842
      px      :     0.032992
      py      :     0.021114
 87 H s       :     0.889688  s :     0.889688
      pz      :     0.048031  p :     0.078756
      px      :     0.015586
      py      :     0.015139
 88 H s       :     0.910541  s :     0.910541
      pz      :     0.021601  p :     0.087007
      px      :     0.042952
      py      :     0.022455
 89 H s       :     0.870933  s :     0.870933
      pz      :     0.037972  p :     0.083874
      px      :     0.030516
      py      :     0.015386


                      *****************************
                      * MAYER POPULATION ANALYSIS *
                      *****************************

  NA   - Mulliken gross atomic population
  ZA   - Total nuclear charge
  QA   - Mulliken gross atomic charge
  VA   - Mayer's total valence
  BVA  - Mayer's bonded valence
  FA   - Mayer's free valence

  ATOM       NA         ZA         QA         VA         BVA        FA
  0 C      5.7792     6.0000     0.2208     3.8495     3.8495    -0.0000
  1 N      7.4549     7.0000    -0.4549     3.3469     3.3469    -0.0000
  2 C      6.0719     6.0000    -0.0719     3.9233     3.9233     0.0000
  3 N      7.3415     7.0000    -0.3415     3.4543     3.4543     0.0000
  4 C      6.0789     6.0000    -0.0789     4.1306     4.1306    -0.0000
  5 N      7.5685     7.0000    -0.5685     3.0953     3.0953     0.0000
  6 C      6.0998     6.0000    -0.0998     3.9275     3.9275    -0.0000
  7 N      7.3410     7.0000    -0.3410     3.4323     3.4323     0.0000
  8 C      5.7865     6.0000     0.2135     3.8511     3.8511     0.0000
  9 N      7.5621     7.0000    -0.5621     3.0767     3.0767     0.0000
 10 C      5.8809     6.0000     0.1191     3.9090     3.9090    -0.0000
 11 N      7.4387     7.0000    -0.4387     3.3768     3.3768    -0.0000
 12 C      6.0538     6.0000    -0.0538     3.8416     3.8416     0.0000
 13 N      7.4293     7.0000    -0.4293     3.4286     3.4286     0.0000
 14 C      5.7810     6.0000     0.2190     3.8003     3.8003    -0.0000
 15 N      7.4407     7.0000    -0.4407     3.3739     3.3739     0.0000
 16 C      5.7681     6.0000     0.2319     3.7758     3.7758    -0.0000
 17 C      6.1167     6.0000    -0.1167     3.9461     3.9461    -0.0000
 18 C      6.1808     6.0000    -0.1808     3.7541     3.7541    -0.0000
 19 C      5.7858     6.0000     0.2142     3.8783     3.8783     0.0000
 20 C      5.7868     6.0000     0.2132     3.8293     3.8293     0.0000
 21 C      6.0529     6.0000    -0.0529     3.8018     3.8018     0.0000
 22 C      6.0912     6.0000    -0.0912     3.9830     3.9830    -0.0000
 23 C      6.0395     6.0000    -0.0395     3.9927     3.9927     0.0000
 24 C      5.8070     6.0000     0.1930     3.8212     3.8212    -0.0000
 25 C      5.8852     6.0000     0.1148     3.8920     3.8920    -0.0000
 26 C      6.0892     6.0000    -0.0892     3.9083     3.9083    -0.0000
 27 C      5.7827     6.0000     0.2173     3.8623     3.8623     0.0000
 28 C      6.0619     6.0000    -0.0619     3.9888     3.9888     0.0000
 29 C      6.1824     6.0000    -0.1824     3.7464     3.7464     0.0000
 30 C      5.7540     6.0000     0.2460     3.8013     3.8013     0.0000
 31 C      5.7701     6.0000     0.2299     3.8169     3.8169     0.0000
 32 C      6.0618     6.0000    -0.0618     3.9229     3.9229     0.0000
 33 C      6.0600     6.0000    -0.0600     3.9711     3.9711    -0.0000
 34 C      6.0517     6.0000    -0.0517     3.9833     3.9833     0.0000
 35 C      5.7708     6.0000     0.2292     3.8165     3.8165    -0.0000
 36 C      5.8918     6.0000     0.1082     3.8746     3.8746     0.0000
 37 C      6.0643     6.0000    -0.0643     3.9178     3.9178     0.0000
 38 C      5.7694     6.0000     0.2306     3.8006     3.8006    -0.0000
 39 C      6.0572     6.0000    -0.0572     3.9831     3.9831     0.0000
 40 C      6.1816     6.0000    -0.1816     3.7264     3.7264    -0.0000
 41 C      5.7735     6.0000     0.2265     3.8880     3.8880     0.0000
 42 C      5.8023     6.0000     0.1977     3.8254     3.8254    -0.0000
 43 C      6.0724     6.0000    -0.0724     3.9000     3.9000    -0.0000
 44 C      6.0890     6.0000    -0.0890     3.9849     3.9849    -0.0000
 45 C      6.0616     6.0000    -0.0616     3.9918     3.9918     0.0000
 46 C      5.7875     6.0000     0.2125     3.8283     3.8283    -0.0000
 47 C      5.8848     6.0000     0.1152     3.8924     3.8924     0.0000
 48 C      6.0665     6.0000    -0.0665     3.9096     3.9096    -0.0000
 49 C      5.7612     6.0000     0.2388     3.8944     3.8944     0.0000
 50 C      6.0460     6.0000    -0.0460     3.9902     3.9902     0.0000
 51 C      6.1927     6.0000    -0.1927     3.7370     3.7370     0.0000
 52 H      0.9648     1.0000     0.0352     0.9856     0.9856    -0.0000
 53 H      1.0182     1.0000    -0.0182     0.9988     0.9988     0.0000
 54 H      0.9527     1.0000     0.0473     1.0029     1.0029     0.0000
 55 H      0.9666     1.0000     0.0334     0.9861     0.9861    -0.0000
 56 H      0.9505     1.0000     0.0495     0.9695     0.9695    -0.0000
 57 H      0.9523     1.0000     0.0477     0.9825     0.9825    -0.0000
 58 H      0.9534     1.0000     0.0466     0.9847     0.9847    -0.0000
 59 H      1.0143     1.0000    -0.0143     0.9941     0.9941     0.0000
 60 H      0.9571     1.0000     0.0429     1.0076     1.0076    -0.0000
 61 H      0.8288     1.0000     0.1712     1.0422     1.0422     0.0000
 62 H      0.8246     1.0000     0.1754     1.0436     1.0436    -0.0000
 63 H      0.9452     1.0000     0.0548     0.9853     0.9853    -0.0000
 64 H      1.0382     1.0000    -0.0382     0.9874     0.9874     0.0000
 65 H      0.9532     1.0000     0.0468     1.0099     1.0099     0.0000
 66 H      0.9448     1.0000     0.0552     0.9855     0.9855     0.0000
 67 H      0.9380     1.0000     0.0620     0.9719     0.9719    -0.0000
 68 H      0.9430     1.0000     0.0570     0.9868     0.9868    -0.0000
 69 H      0.9440     1.0000     0.0560     0.9828     0.9828    -0.0000
 70 H      1.0306     1.0000    -0.0306     0.9943     0.9943    -0.0000
 71 H      0.9557     1.0000     0.0443     1.0059     1.0059     0.0000
 72 H      0.9285     1.0000     0.0715     0.9836     0.9836    -0.0000
 73 H      1.0079     1.0000    -0.0079     1.0010     1.0010     0.0000
 74 H      0.9395     1.0000     0.0605     1.0100     1.0100     0.0000
 75 H      0.9290     1.0000     0.0710     0.9838     0.9838    -0.0000
 76 H      0.9249     1.0000     0.0751     0.9721     0.9721    -0.0000
 77 H      0.9319     1.0000     0.0681     0.9855     0.9855     0.0000
 78 H      0.9325     1.0000     0.0675     0.9854     0.9854    -0.0000
 79 H      1.0169     1.0000    -0.0169     0.9974     0.9974     0.0000
 80 H      0.9384     1.0000     0.0616     1.0072     1.0072    -0.0000
 81 H      0.9452     1.0000     0.0548     0.9856     0.9856    -0.0000
 82 H      1.0247     1.0000    -0.0247     0.9935     0.9935    -0.0000
 83 H      0.9576     1.0000     0.0424     1.0082     1.0082    -0.0000
 84 H      0.9453     1.0000     0.0547     0.9852     0.9852    -0.0000
 85 H      0.9387     1.0000     0.0613     0.9716     0.9716    -0.0000
 86 H      0.9442     1.0000     0.0558     0.9839     0.9839     0.0000
 87 H      0.9425     1.0000     0.0575     0.9857     0.9857     0.0000
 88 H      1.0144     1.0000    -0.0144     0.9968     0.9968    -0.0000
 89 H      0.9527     1.0000     0.0473     1.0077     1.0077     0.0000

  Mayer bond orders larger than 0.100000
B(  0-C ,  1-N ) :   1.1026 B(  0-C , 17-C ) :   1.7133 B(  0-C , 52-H ) :   0.9620 
B(  1-N ,  8-C ) :   1.0898 B(  1-N , 10-C ) :   0.9771 B(  2-C , 12-C ) :   1.4890 
B(  2-C , 16-C ) :   1.3725 B(  2-C , 53-H ) :   0.9720 B(  3-N , 14-C ) :   1.2227 
B(  3-N , 16-C ) :   1.1793 B(  3-N , 61-H ) :   0.8985 B(  4-C ,  6-C ) :   1.2193 
B(  4-C , 17-C ) :   1.2212 B(  4-C , 18-C ) :   1.4766 B(  5-N , 19-C ) :   1.4609 
B(  5-N , 27-C ) :   1.3699 B(  6-C ,  8-C ) :   1.7279 B(  6-C , 54-H ) :   0.8618 
B(  7-N , 30-C ) :   1.1958 B(  7-N , 38-C ) :   1.1890 B(  7-N , 62-H ) :   0.8968 
B(  8-C , 55-H ) :   0.9614 B(  9-N , 41-C ) :   1.3953 B(  9-N , 49-C ) :   1.4241 
B( 10-C , 56-H ) :   0.9777 B( 10-C , 57-H ) :   0.9823 B( 10-C , 58-H ) :   0.9840 
B( 11-N , 20-C ) :   1.1303 B( 11-N , 24-C ) :   1.1057 B( 11-N , 25-C ) :   0.9607 
B( 12-C , 14-C ) :   1.3577 B( 12-C , 59-H ) :   0.9283 B( 13-N , 31-C ) :   1.1612 
B( 13-N , 35-C ) :   1.1614 B( 13-N , 36-C ) :   0.9412 B( 14-C , 18-C ) :   1.1189 
B( 15-N , 42-C ) :   1.1085 B( 15-N , 46-C ) :   1.1258 B( 15-N , 47-C ) :   0.9607 
B( 16-C , 51-C ) :   1.1683 B( 17-C , 60-H ) :   0.8925 B( 18-C , 19-C ) :   1.1164 
B( 19-C , 21-C ) :   1.2549 B( 20-C , 28-C ) :   1.6299 B( 20-C , 63-H ) :   0.9703 
B( 21-C , 26-C ) :   1.5758 B( 21-C , 64-H ) :   0.8986 B( 22-C , 23-C ) :   1.2883 
B( 22-C , 28-C ) :   1.2626 B( 22-C , 29-C ) :   1.2282 B( 23-C , 24-C ) :   1.6215 
B( 23-C , 65-H ) :   0.9703 B( 24-C , 66-H ) :   0.9696 B( 25-C , 67-H ) :   0.9761 
B( 25-C , 68-H ) :   0.9828 B( 25-C , 69-H ) :   0.9824 B( 26-C , 27-C ) :   1.2658 
B( 26-C , 70-H ) :   0.9667 B( 27-C , 29-C ) :   1.2044 B( 28-C , 71-H ) :   0.9720 
B( 29-C , 30-C ) :   1.2469 B( 30-C , 32-C ) :   1.2791 B( 31-C , 39-C ) :   1.5872 
B( 31-C , 72-H ) :   0.9681 B( 32-C , 37-C ) :   1.5794 B( 32-C , 73-H ) :   0.9787 
B( 33-C , 34-C ) :   1.3066 B( 33-C , 39-C ) :   1.3049 B( 33-C , 40-C ) :   1.1759 
B( 34-C , 35-C ) :   1.5852 B( 34-C , 74-H ) :   0.9696 B( 35-C , 75-H ) :   0.9681 
B( 36-C , 76-H ) :   0.9768 B( 36-C , 77-H ) :   0.9816 B( 36-C , 78-H ) :   0.9823 
B( 37-C , 38-C ) :   1.2855 B( 37-C , 79-H ) :   0.9764 B( 38-C , 40-C ) :   1.2337 
B( 39-C , 80-H ) :   0.9705 B( 40-C , 41-C ) :   1.2509 B( 41-C , 43-C ) :   1.1833 
B( 42-C , 50-C ) :   1.6316 B( 42-C , 81-H ) :   0.9696 B( 43-C , 48-C ) :   1.6698 
B( 43-C , 82-H ) :   0.9721 B( 44-C , 45-C ) :   1.2644 B( 44-C , 50-C ) :   1.2738 
B( 44-C , 51-C ) :   1.2581 B( 45-C , 46-C ) :   1.6332 B( 45-C , 83-H ) :   0.9718 
B( 46-C , 84-H ) :   0.9699 B( 47-C , 85-H ) :   0.9762 B( 47-C , 86-H ) :   0.9829 
B( 47-C , 87-H ) :   0.9824 B( 48-C , 49-C ) :   1.1867 B( 48-C , 88-H ) :   0.9748 
B( 49-C , 51-C ) :   1.2465 B( 50-C , 89-H ) :   0.9708 B( 54-H , 64-H ) :   0.1212 


-------
TIMINGS
-------

Total SCF time: 0 days 0 hours 22 min 59 sec 

Total time                  ....    1379.377 sec
Sum of individual times     ....    1375.313 sec  ( 99.7%)

Fock matrix formation       ....    1354.913 sec  ( 98.2%)
Diagonalization             ....       6.574 sec  (  0.5%)
Density matrix formation    ....       0.380 sec  (  0.0%)
Population analysis         ....       0.428 sec  (  0.0%)
Initial guess               ....       1.907 sec  (  0.1%)
Orbital Transformation      ....       0.000 sec  (  0.0%)
Orbital Orthonormalization  ....       0.000 sec  (  0.0%)
DIIS solution               ....       2.881 sec  (  0.2%)
SOSCF solution              ....       7.227 sec  (  0.5%)

Maximum memory used throughout the entire SCF-calculation: 302.7 MB


           ************************************************************
           *        Program running with 16 parallel MPI-processes    *
           *              working on a common directory               *
           ************************************************************

------------------------------------------------------------------------------
                                ORCA  MP2 
------------------------------------------------------------------------------

Freezing NCore=104 chemical core electrons

----------
MP2 ENERGY (disk based algorithm)
----------

Dimension of the basis                    ...  918
Memory devoted to MP2                     ... 2000 MB   
Data format for buffers                   ... DOUBLE
Compression type for matrix containers    ... UNCOMPRESSED

-------------------------------
PARTIAL EXCHANGE TRANSFORMATION
-------------------------------

Transformation type                        ... one-operator
Generation of integrals (i,mue|j,nue)      ... ON
Generation of integrals (mue,kappa|nue,tau)... OFF
Generation of integrals (i,mue|a,nue)      ... OFF
Dimension of the basis                     ...  918
Number of internal MOs                     ...  127 (  52- 178)
Pair cutoff                                ... 2.500e-12 Eh
Number of AO pairs in the trafo            ... 421821
Total Number of distinct AO pairs          ... 421821
Memory devoted for trafo                   ... 2000.0 MB 
Max. Number of MO pairs treated together   ...  311      
Number Format for Storage                  ... Double (8 Byte)
Integral package used                      ... LIBINT

Starting integral evaluation:
    ... done with AO integral generation
Closing buffer AOK     (38.28 GB; CompressionRatio= 1.32)
Collecting buffer AOK 
Number of MO pairs included in the trafo   ... 8128
------------------------
SORTING OF (i,mue|j,nue)
------------------------

IBATCH = 1 of  2
IBATCH = 2 of  2
Closing buffer KAO     (51.03 GB; CompressionRatio= 1.00)
Collecting buffer KAO 
N(AO-Batches) Done                         ...  86192222 
N(AO-Batches) Skipped                      ...  82284326 
N(IJ)-pairs Skipped                        ...         0 
TOTAL TIME for half transformation         ...  2485.291 sec
AO-integral generation                     ...   174.234 sec
Half transformation                        ...   307.210 sec
K-integral sorting                         ...  1841.294 sec
Process 10:   Internal MO 132
Process 13:   Internal MO 156
Process  4:   Internal MO  84
Process  7:   Internal MO 108

Finished integral transformation - now doing MP2 part

OPERATOR COMBINATION   0   0: ij=( 52..178, 52..178)
Process  1:   Internal MO  60
Process  2:   Internal MO  69
Process  5:   Internal MO  93
Process  2:   Internal MO  72
Process  3:   Internal MO  78
Process  8:   Internal MO 117
Process  6:   Internal MO 102
Process  1:   Internal MO  63
Process 14:   Internal MO 165
Process  0:   Internal MO  54
Process 11:   Internal MO 141
Process  2:   Internal MO  75
Process  9:   Internal MO 126
Process  1:   Internal MO  66
Process  4:   Internal MO  87
Process  0:   Internal MO  57
Process  3:   Internal MO  81
Process 12:   Internal MO 150
Process  7:   Internal MO 111
Process  5:   Internal MO  96
Process 10:   Internal MO 135
Process  6:   Internal MO 105
Process  4:   Internal MO  90
Process  8:   Internal MO 120
Process  7:   Internal MO 114
Process  5:   Internal MO  99
Process  9:   Internal MO 129
Process 13:   Internal MO 159
Process 15:   Internal MO 174
Process 11:   Internal MO 144
Process 14:   Internal MO 168
Process 12:   Internal MO 153
Process 10:   Internal MO 138
Process  8:   Internal MO 123
Process 13:   Internal MO 162
Process 11:   Internal MO 147
Process 15:   Internal MO 177
Process 14:   Internal MO 171
-----------------------------------------------
 MP2 CORRELATION ENERGY   :     -7.291523174 Eh
-----------------------------------------------


-------
TIMINGS
-------
Total time                : 2778.485 sec
Integral trafo            : 2487.231 sec ( 89.5%)
K(i,j)                    :   44.489 sec (  1.6%)
T(i,j)                    :    1.591 sec (  0.1%)

---------------------------------------
MP2 TOTAL ENERGY:    -2130.767659069 Eh
---------------------------------------

Maximum memory used throughout the entire MP2-calculation: 2275.3 MB

-------------------------   --------------------
FINAL SINGLE POINT ENERGY     -2130.767659069084
-------------------------   --------------------


                            ***************************************
                            *     ORCA property calculations      *
                            ***************************************


  WARNING: The energy has been calculated at the MP2 level but the densities
           used in the property calculations are still SCF densities
           MP2 response densities have not been calculated 
           use %mp2 Density relaxed end
           or  %mp2 Density unrelaxed end

                                    ---------------------
                                    Active property flags
                                    ---------------------
   (+) Dipole Moment


------------------------------------------------------------------------------
                       ORCA ELECTRIC PROPERTIES CALCULATION
------------------------------------------------------------------------------

Dipole Moment Calculation                       ... on
Quadrupole Moment Calculation                   ... off
Polarizability Calculation                      ... off
GBWName                                         ... /scratch/allen/tmpyp4_amber_gaff2/conf1/conf1/Conf12.orca.gbw
Electron density                                ... /scratch/allen/tmpyp4_amber_gaff2/conf1/conf1/Conf12.orca.scfp
The origin for moment calculation is the CENTER OF MASS  = (-0.001105, -0.004877  0.002522)

-------------
DIPOLE MOMENT
-------------
                                X             Y             Z
Electronic contribution:      2.96788      -4.23169      -0.09585
Nuclear contribution   :     -0.04291       0.15850       0.11199
                        -----------------------------------------
Total Dipole Moment    :      2.92498      -4.07319       0.01615
                        -----------------------------------------
Magnitude (a.u.)       :      5.01464
Magnitude (Debye)      :     12.74620



--------------------
Rotational spectrum 
--------------------
 
Rotational constants in cm-1:     0.001503     0.001478     0.000760 
Rotational constants in MHz :    45.067387    44.298712    22.782932 

 Dipole components along the rotational axes: 
x,y,z [a.u.] :     3.599461     3.491429     0.020199 
x,y,z [Debye]:     9.149103     8.874508     0.051341 

 

Timings for individual modules:

Sum of individual times         ...     4184.816 sec (=  69.747 min)
GTO integral calculation        ...        6.978 sec (=   0.116 min)   0.2 %
SCF iterations                  ...     1380.307 sec (=  23.005 min)  33.0 %
MP2 module                      ...     2797.531 sec (=  46.626 min)  66.8 %
                             ****ORCA TERMINATED NORMALLY****
TOTAL RUN TIME: 0 days 1 hours 9 minutes 48 seconds 338 msec
# of primitive gaussian functions

