
                                 *****************
                                 * O   R   C   A *
                                 *****************

                                            #,                                       
                                            ###                                      
                                            ####                                     
                                            #####                                    
                                            ######                                   
                                           ########,                                 
                                     ,,################,,,,,                         
                               ,,#################################,,                 
                          ,,##########################################,,             
                       ,#########################################, ''#####,          
                    ,#############################################,,   '####,        
                  ,##################################################,,,,####,       
                ,###########''''           ''''###############################       
              ,#####''   ,,,,##########,,,,          '''####'''          '####       
            ,##' ,,,,###########################,,,                        '##       
           ' ,,###''''                  '''############,,,                           
         ,,##''                                '''############,,,,        ,,,,,,###''
      ,#''                                            '''#######################'''  
     '                                                          ''''####''''         
             ,#######,   #######,   ,#######,      ##                                
            ,#'     '#,  ##    ##  ,#'     '#,    #''#        ######   ,####,        
            ##       ##  ##   ,#'  ##            #'  '#       #        #'  '#        
            ##       ##  #######   ##           ,######,      #####,   #    #        
            '#,     ,#'  ##    ##  '#,     ,#' ,#      #,         ##   #,  ,#        
             '#######'   ##     ##  '#######'  #'      '#     #####' # '####'        



                  #######################################################
                  #                        -***-                        #
                  #          Department of theory and spectroscopy      #
                  #    Directorship and core code : Frank Neese         #
                  #        Max Planck Institute fuer Kohlenforschung    #
                  #                Kaiser Wilhelm Platz 1               #
                  #                 D-45470 Muelheim/Ruhr               #
                  #                      Germany                        #
                  #                                                     #
                  #                  All rights reserved                #
                  #                        -***-                        #
                  #######################################################


                         Program Version 5.0.4 -  RELEASE  -


 With contributions from (in alphabetic order):
   Daniel Aravena         : Magnetic Suceptibility
   Michael Atanasov       : Ab Initio Ligand Field Theory (pilot matlab implementation)
   Alexander A. Auer      : GIAO ZORA, VPT2 properties, NMR spectrum
   Ute Becker             : Parallelization
   Giovanni Bistoni       : ED, misc. LED, open-shell LED, HFLD
   Martin Brehm           : Molecular dynamics
   Dmytro Bykov           : SCF Hessian
   Vijay G. Chilkuri      : MRCI spin determinant printing, contributions to CSF-ICE
   Dipayan Datta          : RHF DLPNO-CCSD density
   Achintya Kumar Dutta   : EOM-CC, STEOM-CC
   Dmitry Ganyushin       : Spin-Orbit,Spin-Spin,Magnetic field MRCI
   Miquel Garcia          : C-PCM and meta-GGA Hessian, CC/C-PCM, Gaussian charge scheme
   Yang Guo               : DLPNO-NEVPT2, F12-NEVPT2, CIM, IAO-localization
   Andreas Hansen         : Spin unrestricted coupled pair/coupled cluster methods
   Benjamin Helmich-Paris : MC-RPA, TRAH-SCF, COSX integrals
   Lee Huntington         : MR-EOM, pCC
   Robert Izsak           : Overlap fitted RIJCOSX, COSX-SCS-MP3, EOM
   Marcus Kettner         : VPT2
   Christian Kollmar      : KDIIS, OOCD, Brueckner-CCSD(T), CCSD density, CASPT2, CASPT2-K
   Simone Kossmann        : Meta GGA functionals, TD-DFT gradient, OOMP2, MP2 Hessian
   Martin Krupicka        : Initial AUTO-CI
   Lucas Lang             : DCDCAS
   Marvin Lechner         : AUTO-CI (C++ implementation), FIC-MRCC
   Dagmar Lenk            : GEPOL surface, SMD
   Dimitrios Liakos       : Extrapolation schemes; Compound Job, initial MDCI parallelization
   Dimitrios Manganas     : Further ROCIS development; embedding schemes
   Dimitrios Pantazis     : SARC Basis sets
   Anastasios Papadopoulos: AUTO-CI, single reference methods and gradients
   Taras Petrenko         : DFT Hessian,TD-DFT gradient, ASA, ECA, R-Raman, ABS, FL, XAS/XES, NRVS
   Peter Pinski           : DLPNO-MP2, DLPNO-MP2 Gradient
   Christoph Reimann      : Effective Core Potentials
   Marius Retegan         : Local ZFS, SOC
   Christoph Riplinger    : Optimizer, TS searches, QM/MM, DLPNO-CCSD(T), (RO)-DLPNO pert. Triples
   Tobias Risthaus        : Range-separated hybrids, TD-DFT gradient, RPA, STAB
   Michael Roemelt        : Original ROCIS implementation
   Masaaki Saitow         : Open-shell DLPNO-CCSD energy and density
   Barbara Sandhoefer     : DKH picture change effects
   Avijit Sen             : IP-ROCIS
   Kantharuban Sivalingam : CASSCF convergence, NEVPT2, FIC-MRCI
   Bernardo de Souza      : ESD, SOC TD-DFT
   Georgi Stoychev        : AutoAux, RI-MP2 NMR, DLPNO-MP2 response
   Willem Van den Heuvel  : Paramagnetic NMR
   Boris Wezisla          : Elementary symmetry handling
   Frank Wennmohs         : Technical directorship


 We gratefully acknowledge several colleagues who have allowed us to
 interface, adapt or use parts of their codes:
   Stefan Grimme, W. Hujo, H. Kruse, P. Pracht,  : VdW corrections, initial TS optimization,
                  C. Bannwarth, S. Ehlert          DFT functionals, gCP, sTDA/sTD-DF
   Ed Valeev, F. Pavosevic, A. Kumar             : LibInt (2-el integral package), F12 methods
   Garnet Chan, S. Sharma, J. Yang, R. Olivares  : DMRG
   Ulf Ekstrom                                   : XCFun DFT Library
   Mihaly Kallay                                 : mrcc  (arbitrary order and MRCC methods)
   Jiri Pittner, Ondrej Demel                    : Mk-CCSD
   Frank Weinhold                                : gennbo (NPA and NBO analysis)
   Christopher J. Cramer and Donald G. Truhlar   : smd solvation model
   Lars Goerigk                                  : TD-DFT with DH, B97 family of functionals
   V. Asgeirsson, H. Jonsson                     : NEB implementation
   FAccTs GmbH                                   : IRC, NEB, NEB-TS, DLPNO-Multilevel, CI-OPT
                                                   MM, QMMM, 2- and 3-layer-ONIOM, Crystal-QMMM,
                                                   LR-CPCM, SF, NACMEs, symmetry and pop. for TD-DFT,
                                                   nearIR, NL-DFT gradient (VV10), updates on ESD,
                                                   ML-optimized integration grids
   S Lehtola, MJT Oliveira, MAL Marques          : LibXC Library
   Liviu Ungur et al                             : ANISO software


 Your calculation uses the libint2 library for the computation of 2-el integrals
 For citations please refer to: http://libint.valeyev.net

 Your ORCA version has been built with support for libXC version: 5.1.0
 For citations please refer to: https://tddft.org/programs/libxc/

 This ORCA versions uses:
   CBLAS   interface :  Fast vector & matrix operations
   LAPACKE interface :  Fast linear algebra routines
   SCALAPACK package :  Parallel linear algebra routines
   Shared memory     :  Shared parallel matrices
   BLAS/LAPACK       :  OpenBLAS 0.3.15  USE64BITINT DYNAMIC_ARCH NO_AFFINITY Sandybridge SINGLE_THREADED
        Core in use  :  Sandybridge
   Copyright (c) 2011-2014, The OpenBLAS Project


================================================================================

----- Orbital basis set information -----
Your calculation utilizes the basis: cc-pVDZ 
       H, B-Ne : Obtained from the ccRepo (grant-hill.group.shef.ac.uk/ccrepo) Feb. 2017
                 T. H. Dunning, Jr., J. Chem. Phys. 90, 1007 (1989)
            He : Obtained from the ccRepo (grant-hill.group.shef.ac.uk/ccrepo) Feb. 2017
                 D. E. Woon, T. H. Dunning, Jr., J. Chem. Phys. 100, 2975 (1994)
  Li-Be, Na-Mg : Obtained from the ccRepo (grant-hill.group.shef.ac.uk/ccrepo) Feb. 2017
                 B. P. Prascher, D. E. Woon, K. A. Peterson, T. H. Dunning, Jr., A. K. Wilson, Theor. Chem. Acc. 128, 69 (2011)
         Al-Ar : Obtained from the ccRepo (grant-hill.group.shef.ac.uk/ccrepo) Feb. 2017
                 D. E. Woon, T. H. Dunning, Jr., J. Chem. Phys. 98, 1358 (1993)
            Ca : Obtained from the Peterson Research Group Website (tyr0.chem.wsu.edu/~kipeters) Feb. 2017
                 J. Koput, K. A. Peterson, J. Phys. Chem. 106, 9595 (2002)
         Sc-Zn : Obtained from the ccRepo (grant-hill.group.shef.ac.uk/ccrepo) Feb. 2017
                 N. B. Balabanov, K. A. Peterson, J. Chem. Phys. 123, 064107 (2005)
                 N. B. Balabanov, K. A. Peterson, J. Chem. Phys. 125, 074110 (2006)
         Ga-Kr : Obtained from the ccRepo (grant-hill.group.shef.ac.uk/ccrepo) Feb. 2017
                 A. K. Wilson, D. E. Woon, K. A. Peterson, T. H. Dunning, Jr., J. Chem. Phys. 110, 7667 (1999)

================================================================================
                                        WARNINGS
                       Please study these warnings very carefully!
================================================================================


WARNING: No MP2 level density has been requested!
         To caclulate MP2 level properties use
         %mp2 Density relaxed end
         or
         %mp2 Density unrelaxed end

WARNING: Post HF methods need fully converged wavefunctions
  ===> : Setting SCFConvForced true
         You can overwrite this default with %scf ConvForced false 


INFO   : the flag for use of the SHARK integral package has been found!

================================================================================
                                       INPUT FILE
================================================================================
NAME = /scratch/allen/tmpyp4_amber_gaff2/2.Mdgx/conf11/conf11/Conf347.orca
|  1> ! PAL2
|  2> ! mp2 cc-pvdz TightSCF  NoKeepInts
|  3> 
|  4> %scf
|  5>   MaxCore 2000
|  6> end
|  7> %mp2
|  8>   MaxCore 2000
|  9> end
| 10> * xyz 0 1
| 11>    C       -3.06600         6.46600         0.39800
| 12>    C        1.47400         4.04100         0.05700
| 13>    C       -2.80200         4.09300         0.04900
| 14>    C       -4.17300         4.03600        -0.24700
| 15>    C       -4.93800         5.18400        -0.21400
| 16>    C       -5.22300         7.59500         0.09700
| 17>    C        0.13200         4.30700         0.06100
| 18>    C       -0.56900         3.05600         0.04700
| 19>    C        1.64900         2.61800         0.02300
| 20>    C       -2.25900         5.34600         0.37300
| 21>    N       -4.38400         6.37700         0.10800
| 22>    N        0.38800         2.06700         0.02500
| 23>    N       -2.01000         0.39500        -0.07500
| 24>    N       -0.38800        -2.07400        -0.02700
| 25>    N        2.01000        -0.40100         0.06500
| 26>    C       -1.96000         2.86100         0.02400
| 27>    C       -2.62300         1.61500        -0.01800
| 28>    C       -5.57300        -4.32900         1.06600
| 29>    C       -4.07300         1.47100         0.05600
| 30>    C       -4.10600        -2.75600        -0.02600
| 31>    C       -4.99500        -2.75700        -1.11100
| 32>    C       -6.13200        -3.54200        -1.07600
| 33>    C       -7.65100        -5.11300         0.04000
| 34>    C       -4.32400         0.14100         0.03700
| 35>    C       -3.02500        -0.52000        -0.04800
| 36>    C       -4.42200        -3.56600         1.07500
| 37>    N       -6.40700        -4.31300         0.00100
| 38>    C       -2.86700        -1.92200        -0.04000
| 39>    C       -1.65000        -2.62400        -0.02700
| 40>    C        3.56800        -6.14200        -1.04000
| 41>    C       -1.47600        -4.04900        -0.03400
| 42>    C        2.80300        -4.09900        -0.00800
| 43>    C        3.65700        -4.38400         1.06900
| 44>    C        4.42700        -5.53000         1.05900
| 45>    C        5.24500        -7.58800         0.01400
| 46>    C       -0.13400        -4.31500        -0.02200
| 47>    C        0.56800        -3.06400        -0.02700
| 48>    C        2.77500        -5.01200        -1.07400
| 49>    N        4.37600        -6.39100         0.01700
| 50>    C        1.95900        -2.86900        -0.00900
| 51>    C        2.62100        -1.62200         0.00900
| 52>    C        5.54300         4.33900        -1.13000
| 53>    C        4.07000        -1.47900        -0.09400
| 54>    C        4.10400         2.75100        -0.02100
| 55>    C        5.02700         2.72900         1.03600
| 56>    C        6.16600         3.50900         0.97800
| 57>    C        7.61900         5.15300        -0.11500
| 58>    C        4.32100        -0.14800        -0.09200
| 59>    C        3.02500         0.51400         0.01500
| 60>    C        4.38700         3.58200        -1.11500
| 61>    C        2.86600         1.91600         0.01300
| 62>    N        6.41300         4.29600        -0.09500
| 63>    H       -2.69300         7.45000         0.65400
| 64>    H        2.27400         4.76600         0.08100
| 65>    H       -4.64800         3.10000        -0.51300
| 66>    H       -5.99600         5.19100        -0.44300
| 67>    H       -5.25000         8.00000        -0.91700
| 68>    H       -6.22900         7.33200         0.42300
| 69>    H       -4.78900         8.32500         0.78000
| 70>    H       -0.33200         5.28200         0.06900
| 71>    H       -1.21000         5.45300         0.62400
| 72>    H        0.18200         1.07200         0.00500
| 73>    H       -0.18300        -1.08000        -0.02100
| 74>    H       -5.86400        -4.96200         1.89500
| 75>    H       -4.79400         2.27200         0.13900
| 76>    H       -4.80000        -2.16000        -1.99400
| 77>    H       -6.84100        -3.58200        -1.89300
| 78>    H       -8.42800        -4.53600         0.54600
| 79>    H       -7.95600        -5.33700        -0.98100
| 80>    H       -7.45600        -6.03700         0.58400
| 81>    H       -5.28700        -0.34400         0.10000
| 82>    H       -3.78000        -3.60100         1.94700
| 83>    H        3.58700        -6.86800        -1.84300
| 84>    H       -2.27600        -4.77400        -0.05000
| 85>    H        3.71400        -3.72400         1.92600
| 86>    H        5.09200        -5.79500         1.87100
| 87>    H        6.20500        -7.32900        -0.43900
| 88>    H        5.39300        -7.91700         1.04200
| 89>    H        4.75900        -8.37300        -0.56400
| 90>    H        0.32900        -5.29000        -0.00800
| 91>    H        2.14600        -4.84200        -1.94000
| 92>    H        5.80800         4.98600        -1.95600
| 93>    H        4.78800        -2.28100        -0.18500
| 94>    H        4.86000         2.11400         1.91200
| 95>    H        6.90100         3.53100         1.77200
| 96>    H        7.38300         6.10900         0.35600
| 97>    H        8.41400         4.65200         0.43500
| 98>    H        7.92100         5.31000        -1.15000
| 99>    H        5.28300         0.33600        -0.17900
|100>    H        3.72000         3.63200        -1.96700
|101> *
|102> 
|103>                          ****END OF INPUT****
================================================================================

                       ****************************
                       * Single Point Calculation *
                       ****************************

---------------------------------
CARTESIAN COORDINATES (ANGSTROEM)
---------------------------------
  C     -3.066000    6.466000    0.398000
  C      1.474000    4.041000    0.057000
  C     -2.802000    4.093000    0.049000
  C     -4.173000    4.036000   -0.247000
  C     -4.938000    5.184000   -0.214000
  C     -5.223000    7.595000    0.097000
  C      0.132000    4.307000    0.061000
  C     -0.569000    3.056000    0.047000
  C      1.649000    2.618000    0.023000
  C     -2.259000    5.346000    0.373000
  N     -4.384000    6.377000    0.108000
  N      0.388000    2.067000    0.025000
  N     -2.010000    0.395000   -0.075000
  N     -0.388000   -2.074000   -0.027000
  N      2.010000   -0.401000    0.065000
  C     -1.960000    2.861000    0.024000
  C     -2.623000    1.615000   -0.018000
  C     -5.573000   -4.329000    1.066000
  C     -4.073000    1.471000    0.056000
  C     -4.106000   -2.756000   -0.026000
  C     -4.995000   -2.757000   -1.111000
  C     -6.132000   -3.542000   -1.076000
  C     -7.651000   -5.113000    0.040000
  C     -4.324000    0.141000    0.037000
  C     -3.025000   -0.520000   -0.048000
  C     -4.422000   -3.566000    1.075000
  N     -6.407000   -4.313000    0.001000
  C     -2.867000   -1.922000   -0.040000
  C     -1.650000   -2.624000   -0.027000
  C      3.568000   -6.142000   -1.040000
  C     -1.476000   -4.049000   -0.034000
  C      2.803000   -4.099000   -0.008000
  C      3.657000   -4.384000    1.069000
  C      4.427000   -5.530000    1.059000
  C      5.245000   -7.588000    0.014000
  C     -0.134000   -4.315000   -0.022000
  C      0.568000   -3.064000   -0.027000
  C      2.775000   -5.012000   -1.074000
  N      4.376000   -6.391000    0.017000
  C      1.959000   -2.869000   -0.009000
  C      2.621000   -1.622000    0.009000
  C      5.543000    4.339000   -1.130000
  C      4.070000   -1.479000   -0.094000
  C      4.104000    2.751000   -0.021000
  C      5.027000    2.729000    1.036000
  C      6.166000    3.509000    0.978000
  C      7.619000    5.153000   -0.115000
  C      4.321000   -0.148000   -0.092000
  C      3.025000    0.514000    0.015000
  C      4.387000    3.582000   -1.115000
  C      2.866000    1.916000    0.013000
  N      6.413000    4.296000   -0.095000
  H     -2.693000    7.450000    0.654000
  H      2.274000    4.766000    0.081000
  H     -4.648000    3.100000   -0.513000
  H     -5.996000    5.191000   -0.443000
  H     -5.250000    8.000000   -0.917000
  H     -6.229000    7.332000    0.423000
  H     -4.789000    8.325000    0.780000
  H     -0.332000    5.282000    0.069000
  H     -1.210000    5.453000    0.624000
  H      0.182000    1.072000    0.005000
  H     -0.183000   -1.080000   -0.021000
  H     -5.864000   -4.962000    1.895000
  H     -4.794000    2.272000    0.139000
  H     -4.800000   -2.160000   -1.994000
  H     -6.841000   -3.582000   -1.893000
  H     -8.428000   -4.536000    0.546000
  H     -7.956000   -5.337000   -0.981000
  H     -7.456000   -6.037000    0.584000
  H     -5.287000   -0.344000    0.100000
  H     -3.780000   -3.601000    1.947000
  H      3.587000   -6.868000   -1.843000
  H     -2.276000   -4.774000   -0.050000
  H      3.714000   -3.724000    1.926000
  H      5.092000   -5.795000    1.871000
  H      6.205000   -7.329000   -0.439000
  H      5.393000   -7.917000    1.042000
  H      4.759000   -8.373000   -0.564000
  H      0.329000   -5.290000   -0.008000
  H      2.146000   -4.842000   -1.940000
  H      5.808000    4.986000   -1.956000
  H      4.788000   -2.281000   -0.185000
  H      4.860000    2.114000    1.912000
  H      6.901000    3.531000    1.772000
  H      7.383000    6.109000    0.356000
  H      8.414000    4.652000    0.435000
  H      7.921000    5.310000   -1.150000
  H      5.283000    0.336000   -0.179000
  H      3.720000    3.632000   -1.967000

----------------------------
CARTESIAN COORDINATES (A.U.)
----------------------------
  NO LB      ZA    FRAG     MASS         X           Y           Z
   0 C     6.0000    0    12.011   -5.793900   12.218969    0.752111
   1 C     6.0000    0    12.011    2.785456    7.636383    0.107714
   2 C     6.0000    0    12.011   -5.295013    7.734649    0.092597
   3 C     6.0000    0    12.011   -7.885827    7.626935   -0.466762
   4 C     6.0000    0    12.011   -9.331468    9.796340   -0.404401
   5 C     6.0000    0    12.011   -9.870040   14.352470    0.183303
   6 C     6.0000    0    12.011    0.249444    8.139050    0.115273
   7 C     6.0000    0    12.011   -1.075254    5.775003    0.088817
   8 C     6.0000    0    12.011    3.116158    4.947303    0.043464
   9 C     6.0000    0    12.011   -4.268891   10.102476    0.704868
  10 N     7.0000    0    14.007   -8.284559   12.050784    0.204090
  11 N     7.0000    0    14.007    0.733214    3.906064    0.047243
  12 N     7.0000    0    14.007   -3.798350    0.746442   -0.141729
  13 N     7.0000    0    14.007   -0.733214   -3.919292   -0.051023
  14 N     7.0000    0    14.007    3.798350   -0.757780    0.122832
  15 C     6.0000    0    12.011   -3.703863    5.406506    0.045353
  16 C     6.0000    0    12.011   -4.956752    3.051908   -0.034015
  17 C     6.0000    0    12.011  -10.531444   -8.180624    2.014448
  18 C     6.0000    0    12.011   -7.696855    2.779787    0.105825
  19 C     6.0000    0    12.011   -7.759216   -5.208085   -0.049133
  20 C     6.0000    0    12.011   -9.439182   -5.209975   -2.099486
  21 C     6.0000    0    12.011  -11.587801   -6.693410   -2.033345
  22 C     6.0000    0    12.011  -14.458295   -9.662170    0.075589
  23 C     6.0000    0    12.011   -8.171176    0.266451    0.069920
  24 C     6.0000    0    12.011   -5.716422   -0.982658   -0.090707
  25 C     6.0000    0    12.011   -8.356369   -6.738763    2.031456
  26 N     7.0000    0    14.007  -12.107475   -8.150389    0.001890
  27 C     6.0000    0    12.011   -5.417845   -3.632054   -0.075589
  28 C     6.0000    0    12.011   -3.118048   -4.958641   -0.051023
  29 C     6.0000    0    12.011    6.742543  -11.606698   -1.965315
  30 C     6.0000    0    12.011   -2.789236   -7.651501   -0.064251
  31 C     6.0000    0    12.011    5.296902   -7.745987   -0.015118
  32 C     6.0000    0    12.011    6.910728   -8.284559    2.020117
  33 C     6.0000    0    12.011    8.365818  -10.450186    2.001220
  34 C     6.0000    0    12.011    9.911614  -14.339242    0.026456
  35 C     6.0000    0    12.011   -0.253223   -8.154168   -0.041574
  36 C     6.0000    0    12.011    1.073364   -5.790121   -0.051023
  37 C     6.0000    0    12.011    5.243990   -9.471307   -2.029566
  38 N     7.0000    0    14.007    8.269442  -12.077240    0.032125
  39 C     6.0000    0    12.011    3.701973   -5.421624   -0.017008
  40 C     6.0000    0    12.011    4.952972   -3.065136    0.017008
  41 C     6.0000    0    12.011   10.474752    8.199522   -2.135391
  42 C     6.0000    0    12.011    7.691185   -2.794905   -0.177634
  43 C     6.0000    0    12.011    7.755436    5.198637   -0.039684
  44 C     6.0000    0    12.011    9.499653    5.157063    1.957756
  45 C     6.0000    0    12.011   11.652051    6.631049    1.848152
  46 C     6.0000    0    12.011   14.397823    9.737759   -0.217319
  47 C     6.0000    0    12.011    8.165507   -0.279679   -0.173855
  48 C     6.0000    0    12.011    5.716422    0.971319    0.028346
  49 C     6.0000    0    12.011    8.290229    6.768999   -2.107045
  50 C     6.0000    0    12.011    5.415955    3.620715    0.024566
  51 N     7.0000    0    14.007   12.118814    8.118263   -0.179524
  52 H     1.0000    0     1.008   -5.089032   14.078460    1.235881
  53 H     1.0000    0     1.008    4.297237    9.006435    0.153068
  54 H     1.0000    0     1.008   -8.783447    5.858151   -0.969430
  55 H     1.0000    0     1.008  -11.330798    9.809568   -0.837149
  56 H     1.0000    0     1.008   -9.921062   15.117809   -1.732879
  57 H     1.0000    0     1.008  -11.771104   13.855472    0.799354
  58 H     1.0000    0     1.008   -9.049898   15.731970    1.473986
  59 H     1.0000    0     1.008   -0.627389    9.981533    0.130391
  60 H     1.0000    0     1.008   -2.286569   10.304677    1.179189
  61 H     1.0000    0     1.008    0.343930    2.025786    0.009449
  62 H     1.0000    0     1.008   -0.345820   -2.040904   -0.039684
  63 H     1.0000    0     1.008  -11.081354   -9.376821    3.581031
  64 H     1.0000    0     1.008   -9.059347    4.293458    0.262672
  65 H     1.0000    0     1.008   -9.070685   -4.081808   -3.768114
  66 H     1.0000    0     1.008  -12.927616   -6.768999   -3.577252
  67 H     1.0000    0     1.008  -15.926612   -8.571798    1.031790
  68 H     1.0000    0     1.008  -15.034661  -10.085468   -1.853821
  69 H     1.0000    0     1.008  -14.089798  -11.408277    1.103600
  70 H     1.0000    0     1.008   -9.990982   -0.650066    0.188973
  71 H     1.0000    0     1.008   -7.143165   -6.804904    3.679297
  72 H     1.0000    0     1.008    6.778448  -12.978639   -3.482765
  73 H     1.0000    0     1.008   -4.301017   -9.021553   -0.094486
  74 H     1.0000    0     1.008    7.018443   -7.037340    3.639613
  75 H     1.0000    0     1.008    9.622485  -10.950963    3.535678
  76 H     1.0000    0     1.008   11.725751  -13.849803   -0.829590
  77 H     1.0000    0     1.008   10.191293  -14.960962    1.969095
  78 H     1.0000    0     1.008    8.993207  -15.822677   -1.065806
  79 H     1.0000    0     1.008    0.621720   -9.996651   -0.015118
  80 H     1.0000    0     1.008    4.055352   -9.150054   -3.666069
  81 H     1.0000    0     1.008   10.975529    9.422175   -3.696304
  82 H     1.0000    0     1.008    9.048009   -4.310465   -0.349599
  83 H     1.0000    0     1.008    9.184069    3.994881    3.613156
  84 H     1.0000    0     1.008   13.041000    6.672623    3.348595
  85 H     1.0000    0     1.008   13.951848   11.544337    0.672743
  86 H     1.0000    0     1.008   15.900156    8.791006    0.822031
  87 H     1.0000    0     1.008   14.968521   10.034446   -2.173185
  88 H     1.0000    0     1.008    9.983423    0.634948   -0.338261
  89 H     1.0000    0     1.008    7.029781    6.863485   -3.717091

--------------------------------
INTERNAL COORDINATES (ANGSTROEM)
--------------------------------
 C      0   0   0     0.000000000000     0.00000000     0.00000000
 C      1   0   0     5.158343338709     0.00000000     0.00000000
 C      1   2   0     2.413011810995    55.37728439     0.00000000
 C      3   1   2     1.403747128225    87.91257140   191.49449126
 C      4   3   1     1.379934056395   120.17337407     0.12799422
 C      5   4   3     2.447624766994   152.50672395     1.68598208
 C      2   1   3     1.368114030335    17.26845869     4.23444120
 C      7   2   1     1.434084376876   108.05010202   191.67229452
 C      2   1   3     1.434123425651   125.12984470   351.50100323
 C      1   2   3     1.380678818553    26.23610848    12.85063743
 N      1   2   3     1.352458871833   144.34995271   340.03620595
 N      9   2   1     1.376127174356   106.58526707     3.18743217
 N     12   9   2     2.925062050624   168.53581413   171.12065651
 N     13  12   9     2.954513327098    91.55032014    11.12112580
 N     14  13  12     2.925371258490    88.43092389   359.84326247
 C      8   7   2     1.404790019896   127.24786865   181.11170171
 C     13  12   9     1.366535034311    81.72106996   188.00453233
 C     14  13  12     5.758810554272    80.56209567   166.76250791
 C     17  13  12     1.459010623676   111.08861209   183.82872609
 C     18  14  13     2.412235892279    27.27532823    36.33507194
 C     20  18  14     1.402692767501    87.95206320   148.94598259
 C     21  20  18     1.382106725257   120.14573887   359.70382047
 C     18  14  13     2.446510985056   144.15733107    82.80075377
 C     19  17  13     1.353610726908   106.29293361   359.75308708
 C     13  12   9     1.366813447402   172.21332906    33.46711076
 C     18  14  13     1.380960173213    15.08449437   309.23336894
 N     22  21  20     1.352773077792   120.73759875     0.27865223
 C     25  13  17     1.410897586645   125.60330303   182.37774668
 C     14  13  12     1.376642291955    80.24689249   177.85461986
 C     14  13  12     5.764089607215   164.51507311   312.20821879
 C     29  14  13     1.435600919476   106.58649366   178.76395472
 C     30  14  13     2.413316804732    27.10625047    82.12560436
 C     32  30  14     1.403734305344    87.90059683   149.76154742
 C     33  32  30     1.380694028378   120.14881443   359.74174632
 C     34  33  32     2.448777858443   152.49203239     2.45173620
 C     31  29  14     1.368160809262   108.16950133     0.70383075
 C     14  13  12     1.376239804685   169.26375223   353.09862627
 C     30  14  13     1.380907310430    14.68948582   353.70041132
 N     34  33  32     1.352658863128   120.85575621     0.19603406
 C     37  14  29     1.404717053360   126.01551127   180.90772073
 C     15  14  13     1.366491126938    81.61824056   183.09049352
 C      2   1   3     4.249062720177   145.92727507   148.81833758
 C     41  15  14     1.459677704153   111.05201287   175.08990246
 C     42   2   1     2.412953791518    41.78584867   174.76748219
 C     44  42   2     1.403446472082    87.95153797   233.97558675
 C     45  44  42     1.381696421071   120.11137308     0.19721020
 C     42   2   1     2.450019795838   135.97209175    85.08233130
 C     43  41  15     1.354461516618   106.26758155     0.30894352
 C     15  14  13     1.367461151185   171.87382904   332.35056460
 C     42   2   1     1.381886391857    32.59078432   223.62276139
 C      9   2   1     1.404988612053   126.98745415   184.19176970
 N     42   2   1     1.352765315936   113.57249190   112.81892049
 H      1   2   3     1.083014773676    98.02668863   174.20171174
 H      2   1   3     1.079907866440   109.56775222   175.21192427
 H      4   3   1     1.082809770920   121.02021822   179.55841310
 H      5   4   3     1.082522055203   122.82922534   179.44386180
 H      6   5   4     1.092222504804   104.48765663   100.05859386
 H      6   5   4     1.089716018052    84.70809659   209.52824169
 H      6   5   4     1.089837143797   133.87302976   322.30457698
 H      7   2   1     1.079807853278   126.66122480    11.91070831
 H     60   7   2     1.052687038013   120.59588680   217.56158073
 H     12   9   2     1.016297692608   125.29023241   180.00180175
 H     14  13  12     1.014936943854    44.97226959   359.42596618
 H     18  14  13     1.082871645210   128.03556573   234.20482432
 H     55   4   3     1.063956766039   125.61735995    67.75677865
 H     21  20  18     1.083569563987   121.05669627   180.67006309
 H     22  21  20     1.082483256222   122.73097286   180.59748951
 H     23  18  14     1.092105306278   103.92715769   234.93429879
 H     23  18  14     1.088871893291   134.19244188    12.25587044
 H     23  18  14     1.089833473518    84.85857450   125.45241208
 H     24  19  17     1.080075460327   127.28078426   178.44613241
 H     26  18  14     1.083408048706   118.76995697   244.94906660
 H     30  14  13     1.082703098730   127.99711412   279.66882698
 H     31  29  14     1.079759695488   125.22293469   180.92530585
 H     33  32  30     1.083188810873   121.01964473   180.74284758
 H     34  33  32     1.082494341787   122.70821597   180.59516895
 H     35  34  33     1.092652735319   105.73575241    97.19771933
 H     35  34  33     1.089462711615    84.05943581   206.43036958
 H     35  34  33     1.089268102902   133.08365142   318.50306270
 H     36  31  29     1.079439669458   126.61599965   178.98859863
 H     38  30  73     1.083742127999   118.77264435   359.90091293
 H     42   2   1     1.082178358682   119.31790784   329.45045094
 H     43  41  15     1.080281907652   126.36969097   182.06329380
 H     45  44  42     1.083277434455   121.10105945   179.58025624
 H     46  45  44     1.082194529648   122.72144639   179.46906377
 H     47  42   2     1.091546151109   106.65128841   315.16475048
 H     47  42   2     1.088818625851   132.46019523    94.52397119
 H     47  42   2     1.089531091801    83.63838232   206.04504406
 H     48  43  41     1.080402239909   127.23657387   181.62955349
 H     50  42   2     1.083186502870   118.77001737    94.71359229

---------------------------
INTERNAL COORDINATES (A.U.)
---------------------------
 C      0   0   0     0.000000000000     0.00000000     0.00000000
 C      1   0   0     9.747856214896     0.00000000     0.00000000
 C      1   2   0     4.559931480697    55.37728439     0.00000000
 C      3   1   2     2.652697633624    87.91257140   191.49449126
 C      4   3   1     2.607697449458   120.17337407     0.12799422
 C      5   4   3     4.625340488221   152.50672395     1.68598208
 C      2   1   3     2.585360837309    17.26845869     4.23444120
 C      7   2   1     2.710026725231   108.05010202   191.67229452
 C      2   1   3     2.710100516721   125.12984470   351.50100323
 C      1   2   3     2.609104845971    26.23610848    12.85063743
 N      1   2   3     2.555776875157   144.34995271   340.03620595
 N      9   2   1     2.600503484979   106.58526707     3.18743217
 N     12   9   2     5.527566200405   168.53581413   171.12065651
 N     13  12   9     5.583221047236    91.55032014    11.12112580
 N     14  13  12     5.528150518591    88.43092389   359.84326247
 C      8   7   2     2.654668413270   127.24786865   181.11170171
 C     13  12   9     2.582376967257    81.72106996   188.00453233
 C     14  13  12    10.882574804710    80.56209567   166.76250791
 C     17  13  12     2.757130505230   111.08861209   183.82872609
 C     18  14  13     4.558465206823    27.27532823    36.33507194
 C     20  18  14     2.650705180609    87.95206320   148.94598259
 C     21  20  18     2.611803198586   120.14573887   359.70382047
 C     18  14  13     4.623235745386   144.15733107    82.80075377
 C     19  17  13     2.557953565794   106.29293361   359.75308708
 C     13  12   9     2.582903091751   172.21332906    33.46711076
 C     18  14  13     2.609636529225    15.08449437   309.23336894
 N     22  21  20     2.556370638369   120.73759875     0.27865223
 C     25  13  17     2.666210041769   125.60330303   182.37774668
 C     14  13  12     2.601476916169    80.24689249   177.85461986
 C     14  13  12    10.892550769017   164.51507311   312.20821879
 C     29  14  13     2.712892575415   106.58649366   178.76395472
 C     30  14  13     4.560507835333    27.10625047    82.12560436
 C     32  30  14     2.652673401891    87.90059683   149.76154742
 C     33  32  30     2.609133588376   120.14881443   359.74174632
 C     34  33  32     4.627519515267   152.49203239     2.45173620
 C     31  29  14     2.585449236669   108.16950133     0.70383075
 C     14  13  12     2.600716325456   169.26375223   353.09862627
 C     30  14  13     2.609536633043    14.68948582   353.70041132
 N     34  33  32     2.556154803934   120.85575621     0.19603406
 C     37  14  29     2.654530526499   126.01551127   180.90772073
 C     15  14  13     2.582293994346    81.61824056   183.09049352
 C      2   1   3     8.029564866989   145.92727507   148.81833758
 C     41  15  14     2.758391104639   111.05201287   175.08990246
 C     42   2   1     4.559821839776    41.78584867   174.76748219
 C     44  42   2     2.652129475853    87.95153797   233.97558675
 C     45  44  42     2.611027836043   120.11137308     0.19721020
 C     42   2   1     4.629866436820   135.97209175    85.08233130
 C     43  41  15     2.559561325344   106.26758155     0.30894352
 C     15  14  13     2.584127074516   171.87382904   332.35056460
 C     42   2   1     2.611386828803    32.59078432   223.62276139
 C      9   2   1     2.655043698059   126.98745415   184.19176970
 N     42   2   1     2.556355970587   113.57249190   112.81892049
 H      1   2   3     2.046601321238    98.02668863   174.20171174
 H      2   1   3     2.040730117440   109.56775222   175.21192427
 H      4   3   1     2.046213922173   121.02021822   179.55841310
 H      5   4   3     2.045670218262   122.82922534   179.44386180
 H      6   5   4     2.064001411385   104.48765663   100.05859386
 H      6   5   4     2.059264837866    84.70809659   209.52824169
 H      6   5   4     2.059493732352   133.87302976   322.30457698
 H      7   2   1     2.040541119952   126.66122480    11.91070831
 H     60   7   2     1.989290206573   120.59588680   217.56158073
 H     12   9   2     1.920524309565   125.29023241   180.00180175
 H     14  13  12     1.917952867083    44.97226959   359.42596618
 H     18  14  13     2.046330847636   128.03556573   234.20482432
 H     55   4   3     2.010586906146   125.61735995    67.75677865
 H     21  20  18     2.047649722989   121.05669627   180.67006309
 H     22  21  20     2.045596898814   122.73097286   180.59748951
 H     23  18  14     2.063779938267   103.92715769   234.93429879
 H     23  18  14     2.057669673245   134.19244188    12.25587044
 H     23  18  14     2.059486796529    84.85857450   125.45241208
 H     24  19  17     2.041046823986   127.28078426   178.44613241
 H     26  18  14     2.047344503340   118.76995697   244.94906660
 H     30  14  13     2.046012340948   127.99711412   279.66882698
 H     31  29  14     2.040450114918   125.22293469   180.92530585
 H     33  32  30     2.046930203877   121.01964473   180.74284758
 H     34  33  32     2.045617847496   122.70821597   180.59516895
 H     35  34  33     2.064814429233   105.73575241    97.19771933
 H     35  34  33     2.058786158072    84.05943581   206.43036958
 H     35  34  33     2.058418400901   133.08365142   318.50306270
 H     36  31  29     2.039845353366   126.61599965   178.98859863
 H     38  30  73     2.047975821711   118.77264435   359.90091293
 H     42   2   1     2.045020725966   119.31790784   329.45045094
 H     43  41  15     2.041436952892   126.36969097   182.06329380
 H     45  44  42     2.047097678177   121.10105945   179.58025624
 H     46  45  44     2.045051284662   122.72144639   179.46906377
 H     47  42   2     2.062723288131   106.65128841   315.16475048
 H     47  42   2     2.057569012371   132.46019523    94.52397119
 H     47  42   2     2.058915377895    83.63838232   206.04504406
 H     48  43  41     2.041664347903   127.23657387   181.62955349
 H     50  42   2     2.046925842384   118.77001737    94.71359229

---------------------
BASIS SET INFORMATION
---------------------
There are 3 groups of distinct atoms

 Group   1 Type C   : 17s4p1d contracted to 3s2p1d pattern {881/31/1}
 Group   2 Type N   : 17s4p1d contracted to 3s2p1d pattern {881/31/1}
 Group   3 Type H   : 4s1p contracted to 2s1p pattern {31/1}

Atom   0C    basis set group =>   1
Atom   1N    basis set group =>   2
Atom   2C    basis set group =>   1
Atom   3N    basis set group =>   2
Atom   4C    basis set group =>   1
Atom   5N    basis set group =>   2
Atom   6C    basis set group =>   1
Atom   7N    basis set group =>   2
Atom   8C    basis set group =>   1
Atom   9N    basis set group =>   2
Atom  10C    basis set group =>   1
Atom  11N    basis set group =>   2
Atom  12C    basis set group =>   1
Atom  13N    basis set group =>   2
Atom  14C    basis set group =>   1
Atom  15N    basis set group =>   2
Atom  16C    basis set group =>   1
Atom  17C    basis set group =>   1
Atom  18C    basis set group =>   1
Atom  19C    basis set group =>   1
Atom  20C    basis set group =>   1
Atom  21C    basis set group =>   1
Atom  22C    basis set group =>   1
Atom  23C    basis set group =>   1
Atom  24C    basis set group =>   1
Atom  25C    basis set group =>   1
Atom  26C    basis set group =>   1
Atom  27C    basis set group =>   1
Atom  28C    basis set group =>   1
Atom  29C    basis set group =>   1
Atom  30C    basis set group =>   1
Atom  31C    basis set group =>   1
Atom  32C    basis set group =>   1
Atom  33C    basis set group =>   1
Atom  34C    basis set group =>   1
Atom  35C    basis set group =>   1
Atom  36C    basis set group =>   1
Atom  37C    basis set group =>   1
Atom  38C    basis set group =>   1
Atom  39C    basis set group =>   1
Atom  40C    basis set group =>   1
Atom  41C    basis set group =>   1
Atom  42C    basis set group =>   1
Atom  43C    basis set group =>   1
Atom  44C    basis set group =>   1
Atom  45C    basis set group =>   1
Atom  46C    basis set group =>   1
Atom  47C    basis set group =>   1
Atom  48C    basis set group =>   1
Atom  49C    basis set group =>   1
Atom  50C    basis set group =>   1
Atom  51C    basis set group =>   1
Atom  52H    basis set group =>   3
Atom  53H    basis set group =>   3
Atom  54H    basis set group =>   3
Atom  55H    basis set group =>   3
Atom  56H    basis set group =>   3
Atom  57H    basis set group =>   3
Atom  58H    basis set group =>   3
Atom  59H    basis set group =>   3
Atom  60H    basis set group =>   3
Atom  61H    basis set group =>   3
Atom  62H    basis set group =>   3
Atom  63H    basis set group =>   3
Atom  64H    basis set group =>   3
Atom  65H    basis set group =>   3
Atom  66H    basis set group =>   3
Atom  67H    basis set group =>   3
Atom  68H    basis set group =>   3
Atom  69H    basis set group =>   3
Atom  70H    basis set group =>   3
Atom  71H    basis set group =>   3
Atom  72H    basis set group =>   3
Atom  73H    basis set group =>   3
Atom  74H    basis set group =>   3
Atom  75H    basis set group =>   3
Atom  76H    basis set group =>   3
Atom  77H    basis set group =>   3
Atom  78H    basis set group =>   3
Atom  79H    basis set group =>   3
Atom  80H    basis set group =>   3
Atom  81H    basis set group =>   3
Atom  82H    basis set group =>   3
Atom  83H    basis set group =>   3
Atom  84H    basis set group =>   3
Atom  85H    basis set group =>   3
Atom  86H    basis set group =>   3
Atom  87H    basis set group =>   3
Atom  88H    basis set group =>   3
Atom  89H    basis set group =>   3


           ************************************************************
           *        Program running with 8 parallel MPI-processes     *
           *              working on a common directory               *
           ************************************************************
------------------------------------------------------------------------------
                           ORCA GTO INTEGRAL CALCULATION
------------------------------------------------------------------------------
------------------------------------------------------------------------------
                   ___                                                        
                  /   \      - P O W E R E D   B Y -                         
                 /     \                                                     
                 |  |  |   _    _      __       _____    __    __             
                 |  |  |  | |  | |    /  \     |  _  \  |  |  /  |          
                  \  \/   | |  | |   /    \    | | | |  |  | /  /          
                 / \  \   | |__| |  /  /\  \   | |_| |  |  |/  /          
                |  |  |   |  __  | /  /__\  \  |    /   |      \           
                |  |  |   | |  | | |   __   |  |    \   |  |\   \          
                \     /   | |  | | |  |  |  |  | |\  \  |  | \   \       
                 \___/    |_|  |_| |__|  |__|  |_| \__\ |__|  \__/        
                                                                              
                      - O R C A' S   B I G   F R I E N D -                    
                                      &                                       
                       - I N T E G R A L  F E E D E R -                       
                                                                              
 v1 FN, 2020, v2 2021                                                         
------------------------------------------------------------------------------


Reading SHARK input file /scratch/chu_02/allen/tmpyp4_amber_gaff2/conf1/conf1/Conf347.orca.SHARKINP.tmp ... ok
----------------------
SHARK INTEGRAL PACKAGE
----------------------

Number of atoms                             ...     90
Number of basis functions                   ...   1230
Number of shells                            ...    738
Maximum angular momentum                    ...      2
Integral batch strategy                     ... SHARK/LIBINT Hybrid
RI-J (if used) integral strategy            ... SPLIT-RIJ (Revised 2003 algorithm where possible)
Printlevel                                  ...      1
Contraction scheme used                     ... PARTIAL GENERAL contraction
Coulomb Range Separation                    ... NOT USED
Exchange Range Separation                   ... NOT USED
Finite Nucleus Model                        ... NOT USED
Auxiliary Coulomb fitting basis             ... NOT available
Auxiliary J/K fitting basis                 ... NOT available
Auxiliary Correlation fitting basis         ... NOT available
Auxiliary 'external' fitting basis          ... NOT available
Integral threshold                          ...     2.500000e-11
Primitive cut-off                           ...     2.500000e-12
Primitive pair pre-selection threshold      ...     2.500000e-12

Calculating pre-screening integrals         ... done (  0.1 sec) Dimension = 738
Calculating pre-screening integrals (ORCA)  ... done (  0.4 sec) Dimension = 426
Organizing shell pair data                  ... done (  0.5 sec)
Shell pair information
Total number of shell pairs                 ...    272691
Shell pairs after pre-screening             ...     71724
Total number of primitive shell pairs       ...    422091
Primitive shell pairs kept                  ...     92632
          la=0 lb=0:  29439 shell pairs
          la=1 lb=0:  26038 shell pairs
          la=1 lb=1:   4703 shell pairs
          la=2 lb=0:   7890 shell pairs
          la=2 lb=1:   3125 shell pairs
          la=2 lb=2:    529 shell pairs

Calculating one electron integrals          ... done (  0.2 sec)
Calculating Nuclear repulsion               ... done (  0.0 sec) ENN=   6234.531701991903 Eh

SHARK setup successfully completed in   1.8 seconds

Maximum memory used throughout the entire GTOINT-calculation: 99.1 MB


           ************************************************************
           *        Program running with 8 parallel MPI-processes     *
           *              working on a common directory               *
           ************************************************************
-------------------------------------------------------------------------------
                                 ORCA SCF
-------------------------------------------------------------------------------

------------
SCF SETTINGS
------------
Hamiltonian:
 Ab initio Hamiltonian  Method          .... Hartree-Fock(GTOs)


General Settings:
 Integral files         IntName         .... /scratch/chu_02/allen/tmpyp4_amber_gaff2/conf1/conf1/Conf347.orca
 Hartree-Fock type      HFTyp           .... RHF
 Total Charge           Charge          ....    0
 Multiplicity           Mult            ....    1
 Number of Electrons    NEL             ....  358
 Basis Dimension        Dim             ....  918
 Nuclear Repulsion      ENuc            ....   6234.5317019919 Eh

Convergence Acceleration:
 DIIS                   CNVDIIS         .... on
   Start iteration      DIISMaxIt       ....    12
   Startup error        DIISStart       ....  0.200000
   # of expansion vecs  DIISMaxEq       ....     5
   Bias factor          DIISBfac        ....   1.050
   Max. coefficient     DIISMaxC        ....  10.000
 Trust-Rad. Augm. Hess. CNVTRAH         .... auto
   Auto Start mean grad. ratio tolernc. ....  1.125000
   Auto Start start iteration           ....    20
   Auto Start num. interpolation iter.  ....    10
   Max. Number of Micro iterations      ....    16
   Max. Number of Macro iterations      .... Maxiter - #DIIS iter
   Number of Davidson start vectors     ....     2
   Converg. threshold I  (grad. norm)   ....   1.000e-05
   Converg. threshold II (energy diff.) ....   1.000e-08
   Grad. Scal. Fac. for Micro threshold ....   0.100
   Minimum threshold for Micro iter.    ....   0.010
   NR start threshold (gradient norm)   ....   0.001
   Initial trust radius                 ....   0.400
   Minimum AH scaling param. (alpha)    ....   1.000
   Maximum AH scaling param. (alpha)    .... 1000.000
   Orbital update algorithm             .... Taylor
   White noise on init. David. guess    .... on
   Maximum white noise                  ....   0.010
   Quad. conv. algorithm                .... NR
 SOSCF                  CNVSOSCF        .... on
   Start iteration      SOSCFMaxIt      ....   150
   Startup grad/error   SOSCFStart      ....  0.003300
 Level Shifting         CNVShift        .... on
   Level shift para.    LevelShift      ....    0.2500
   Turn off err/grad.   ShiftErr        ....    0.0010
 Zerner damping         CNVZerner       .... off
 Static damping         CNVDamp         .... on
   Fraction old density DampFac         ....    0.7000
   Max. Damping (<1)    DampMax         ....    0.9800
   Min. Damping (>=0)   DampMin         ....    0.0000
   Turn off err/grad.   DampErr         ....    0.1000
 Fernandez-Rico         CNVRico         .... off

SCF Procedure:
 Maximum # iterations   MaxIter         ....   125
 SCF integral mode      SCFMode         .... Direct
   Integral package                     .... SHARK and LIBINT hybrid scheme
 Reset frequency        DirectResetFreq ....    20
 Integral Threshold     Thresh          ....  2.500e-11 Eh
 Primitive CutOff       TCut            ....  2.500e-12 Eh

Convergence Tolerance:
 Convergence Check Mode ConvCheckMode   .... Total+1el-Energy
 Convergence forced     ConvForced      .... 1
 Energy Change          TolE            ....  1.000e-08 Eh
 1-El. energy change                    ....  1.000e-05 Eh
 Orbital Gradient       TolG            ....  1.000e-05
 Orbital Rotation angle TolX            ....  1.000e-05
 DIIS Error             TolErr          ....  5.000e-07


Diagonalization of the overlap matrix:
Smallest eigenvalue                        ... 1.802e-04
Time for diagonalization                   ...    0.214 sec
Threshold for overlap eigenvalues          ... 1.000e-08
Number of eigenvalues below threshold      ... 0
Time for construction of square roots      ...    0.140 sec
Total time needed                          ...    0.359 sec

Time for model grid setup =    1.331 sec

------------------------------
INITIAL GUESS: MODEL POTENTIAL
------------------------------
Loading Hartree-Fock densities                     ... done
Calculating cut-offs                               ... done
Initializing the effective Hamiltonian             ... done
Setting up the integral package (SHARK)            ... done
Starting the Coulomb interaction                   ... done (   1.6 sec)
Reading the grid                                   ... done
Mapping shells                                     ... done
Starting the XC term evaluation                    ... done (   0.3 sec)
Transforming the Hamiltonian                       ... done (   0.1 sec)
Diagonalizing the Hamiltonian                      ... done (   0.2 sec)
Back transforming the eigenvectors                 ... done (   0.0 sec)
Now organizing SCF variables                       ... done
                      ------------------
                      INITIAL GUESS DONE (   3.7 sec)
                      ------------------
--------------
SCF ITERATIONS
--------------
ITER       Energy         Delta-E        Max-DP      RMS-DP      [F,P]     Damp
               ***  Starting incremental Fock matrix formation  ***
  0  -2121.6330917479   0.000000000000 0.08201638  0.00126178  0.2312568 0.7000
  1  -2122.2770935263  -0.644001778443 0.06204460  0.00102776  0.1434970 0.7000
                               ***Turning on DIIS***
  2  -2122.6787266285  -0.401633102227 0.14424465  0.00233417  0.0803034 0.0000
  3  -2118.0429360839   4.635790544666 0.05534401  0.00069222  0.0434670 0.0000
  4  -2123.3727172097  -5.329781125851 0.01644171  0.00023029  0.0091865 0.0000
  5  -2123.5078779852  -0.135160775457 0.00801510  0.00013322  0.0048538 0.0000
  6  -2123.4922303040   0.015647681164 0.00501818  0.00008522  0.0022173 0.0000
  7  -2123.5848876204  -0.092657316405 0.00317087  0.00006716  0.0016229 0.0000
  8  -2123.5918346630  -0.006947042588 0.00334848  0.00006417  0.0015182 0.0000
  9  -2123.5647393297   0.027095333280 0.00268087  0.00004574  0.0012211 0.0000
 10  -2123.5725779606  -0.007838630867 0.00539612  0.00009631  0.0009548 0.0000
                      *** Initiating the SOSCF procedure ***
                           *** Shutting down DIIS ***
                      *** Re-Reading the Fockian *** 
                      *** Removing any level shift *** 
ITER      Energy       Delta-E        Grad      Rot      Max-DP    RMS-DP
 11  -2123.46689465   0.1056833110  0.000177  0.000177  0.000241  0.000005
               *** Restarting incremental Fock matrix formation ***
 12  -2123.53242725  -0.0655326046  0.000898  0.006375  0.001491  0.000035
 13  -2123.53253961  -0.0001123561  0.001111  0.031103  0.006782  0.000138
 14  -2123.53272606  -0.0001864510  0.000384  0.001851  0.000599  0.000013
 15  -2123.53274106  -0.0000149969  0.000164  0.001942  0.000511  0.000013
 16  -2123.53274773  -0.0000066690  0.000138  0.002139  0.000475  0.000008
 17  -2123.53275015  -0.0000024231  0.000116  0.001656  0.000280  0.000006
 18  -2123.53275122  -0.0000010682  0.000056  0.000738  0.000214  0.000003
 19  -2123.53275179  -0.0000005761  0.000041  0.001118  0.000200  0.000004
 20  -2123.53275212  -0.0000003278  0.000022  0.000688  0.000100  0.000002
 21  -2123.53275227  -0.0000001490  0.000025  0.000932  0.000137  0.000003
 22  -2123.53275242  -0.0000001459  0.000019  0.000890  0.000138  0.000003
 23  -2123.53275251  -0.0000000944  0.000014  0.000448  0.000074  0.000001
 24  -2123.53275256  -0.0000000460  0.000008  0.000339  0.000055  0.000001
 25  -2123.53275259  -0.0000000312  0.000008  0.000130  0.000037  0.000001
 26  -2123.53275261  -0.0000000170  0.000006  0.000084  0.000030  0.000000
 27  -2123.53275261  -0.0000000068  0.000003  0.000067  0.000020  0.000000
                  ***Gradient check signals convergence***
              ***Rediagonalizing the Fockian in SOSCF/NRSCF***

               *****************************************************
               *                     SUCCESS                       *
               *           SCF CONVERGED AFTER  28 CYCLES          *
               *****************************************************


----------------
TOTAL SCF ENERGY
----------------

Total Energy       :        -2123.53275262 Eh          -57784.26389 eV

Components:
Nuclear Repulsion  :         6234.53170199 Eh          169650.23246 eV
Electronic Energy  :        -8358.06445461 Eh         -227434.49636 eV
One Electron Energy:       -15309.63474568 Eh         -416596.34078 eV
Two Electron Energy:         6951.57029107 Eh          189161.84442 eV

Virial components:
Potential Energy   :        -4245.98895329 Eh         -115539.23332 eV
Kinetic Energy     :         2122.45620067 Eh           57754.96943 eV
Virial Ratio       :            2.00050722


---------------
SCF CONVERGENCE
---------------

  Last Energy change         ...   -5.2914e-09  Tolerance :   1.0000e-08
  Last MAX-Density change    ...    9.8183e-06  Tolerance :   1.0000e-07
  Last RMS-Density change    ...    1.9414e-07  Tolerance :   5.0000e-09
  Last Orbital Gradient      ...    1.8158e-06  Tolerance :   1.0000e-05
  Last Orbital Rotation      ...    4.8866e-05  Tolerance :   1.0000e-05

             **** THE GBW FILE WAS UPDATED (/scratch/chu_02/allen/tmpyp4_amber_gaff2/conf1/conf1/Conf347.orca.gbw) ****
             **** DENSITY /scratch/chu_02/allen/tmpyp4_amber_gaff2/conf1/conf1/Conf347.orca.scfp WAS UPDATED ****
             **** ENERGY FILE WAS UPDATED (/scratch/chu_02/allen/tmpyp4_amber_gaff2/conf1/conf1/Conf347.orca.en.tmp) ****
             **** THE GBW FILE WAS UPDATED (/scratch/chu_02/allen/tmpyp4_amber_gaff2/conf1/conf1/Conf347.orca.gbw) ****
             **** DENSITY /scratch/chu_02/allen/tmpyp4_amber_gaff2/conf1/conf1/Conf347.orca.scfp WAS UPDATED ****
----------------
ORBITAL ENERGIES
----------------

  NO   OCC          E(Eh)            E(eV) 
   0   2.0000     -15.680098      -426.6772 
   1   2.0000     -15.635082      -425.4522 
   2   2.0000     -15.630946      -425.3397 
   3   2.0000     -15.586908      -424.1413 
   4   2.0000     -15.525542      -422.4715 
   5   2.0000     -15.515403      -422.1956 
   6   2.0000     -15.453662      -420.5155 
   7   2.0000     -15.440487      -420.1570 
   8   2.0000     -11.329812      -308.2999 
   9   2.0000     -11.328470      -308.2634 
  10   2.0000     -11.328120      -308.2538 
  11   2.0000     -11.300016      -307.4891 
  12   2.0000     -11.297804      -307.4289 
  13   2.0000     -11.293929      -307.3234 
  14   2.0000     -11.290477      -307.2295 
  15   2.0000     -11.287584      -307.1508 
  16   2.0000     -11.285763      -307.1012 
  17   2.0000     -11.282349      -307.0083 
  18   2.0000     -11.269368      -306.6551 
  19   2.0000     -11.263607      -306.4983 
  20   2.0000     -11.262620      -306.4715 
  21   2.0000     -11.251674      -306.1736 
  22   2.0000     -11.248087      -306.0760 
  23   2.0000     -11.238837      -305.8243 
  24   2.0000     -11.235763      -305.7406 
  25   2.0000     -11.231988      -305.6379 
  26   2.0000     -11.231342      -305.6204 
  27   2.0000     -11.229084      -305.5589 
  28   2.0000     -11.228774      -305.5505 
  29   2.0000     -11.211692      -305.0857 
  30   2.0000     -11.210265      -305.0468 
  31   2.0000     -11.193616      -304.5938 
  32   2.0000     -11.191748      -304.5429 
  33   2.0000     -11.190490      -304.5087 
  34   2.0000     -11.188079      -304.4431 
  35   2.0000     -11.188052      -304.4424 
  36   2.0000     -11.186718      -304.4061 
  37   2.0000     -11.177158      -304.1459 
  38   2.0000     -11.175301      -304.0954 
  39   2.0000     -11.174935      -304.0855 
  40   2.0000     -11.173077      -304.0349 
  41   2.0000     -11.169970      -303.9503 
  42   2.0000     -11.169175      -303.9287 
  43   2.0000     -11.161672      -303.7245 
  44   2.0000     -11.160342      -303.6884 
  45   2.0000     -11.157119      -303.6006 
  46   2.0000     -11.156197      -303.5756 
  47   2.0000     -11.153284      -303.4963 
  48   2.0000     -11.146139      -303.3019 
  49   2.0000     -11.134987      -302.9984 
  50   2.0000     -11.129993      -302.8625 
  51   2.0000     -11.117402      -302.5199 
  52   2.0000      -1.360640       -37.0249 
  53   2.0000      -1.322184       -35.9785 
  54   2.0000      -1.318855       -35.8879 
  55   2.0000      -1.279901       -34.8279 
  56   2.0000      -1.226718       -33.3807 
  57   2.0000      -1.209943       -32.9242 
  58   2.0000      -1.173261       -31.9261 
  59   2.0000      -1.151095       -31.3229 
  60   2.0000      -1.143870       -31.1263 
  61   2.0000      -1.110982       -30.2314 
  62   2.0000      -1.108405       -30.1612 
  63   2.0000      -1.082320       -29.4514 
  64   2.0000      -1.076774       -29.3005 
  65   2.0000      -1.046338       -28.4723 
  66   2.0000      -1.043535       -28.3960 
  67   2.0000      -1.041357       -28.3368 
  68   2.0000      -1.015224       -27.6257 
  69   2.0000      -1.012345       -27.5473 
  70   2.0000      -1.008650       -27.4468 
  71   2.0000      -0.994106       -27.0510 
  72   2.0000      -0.985490       -26.8165 
  73   2.0000      -0.981973       -26.7208 
  74   2.0000      -0.972511       -26.4634 
  75   2.0000      -0.961777       -26.1713 
  76   2.0000      -0.954429       -25.9713 
  77   2.0000      -0.945520       -25.7289 
  78   2.0000      -0.936439       -25.4818 
  79   2.0000      -0.917004       -24.9530 
  80   2.0000      -0.910735       -24.7824 
  81   2.0000      -0.896596       -24.3976 
  82   2.0000      -0.876690       -23.8560 
  83   2.0000      -0.873131       -23.7591 
  84   2.0000      -0.869903       -23.6713 
  85   2.0000      -0.859000       -23.3746 
  86   2.0000      -0.840678       -22.8760 
  87   2.0000      -0.836525       -22.7630 
  88   2.0000      -0.826838       -22.4994 
  89   2.0000      -0.796690       -21.6790 
  90   2.0000      -0.788993       -21.4696 
  91   2.0000      -0.759156       -20.6577 
  92   2.0000      -0.752779       -20.4842 
  93   2.0000      -0.733985       -19.9728 
  94   2.0000      -0.726484       -19.7686 
  95   2.0000      -0.723751       -19.6943 
  96   2.0000      -0.718433       -19.5495 
  97   2.0000      -0.716279       -19.4910 
  98   2.0000      -0.711301       -19.3555 
  99   2.0000      -0.698539       -19.0082 
 100   2.0000      -0.696886       -18.9632 
 101   2.0000      -0.689238       -18.7551 
 102   2.0000      -0.685283       -18.6475 
 103   2.0000      -0.684414       -18.6238 
 104   2.0000      -0.679103       -18.4793 
 105   2.0000      -0.674102       -18.3433 
 106   2.0000      -0.672220       -18.2920 
 107   2.0000      -0.660179       -17.9644 
 108   2.0000      -0.657438       -17.8898 
 109   2.0000      -0.653591       -17.7851 
 110   2.0000      -0.651244       -17.7213 
 111   2.0000      -0.646366       -17.5885 
 112   2.0000      -0.645230       -17.5576 
 113   2.0000      -0.637627       -17.3507 
 114   2.0000      -0.636133       -17.3101 
 115   2.0000      -0.627590       -17.0776 
 116   2.0000      -0.621826       -16.9208 
 117   2.0000      -0.620659       -16.8890 
 118   2.0000      -0.613598       -16.6968 
 119   2.0000      -0.613032       -16.6815 
 120   2.0000      -0.611587       -16.6421 
 121   2.0000      -0.610724       -16.6187 
 122   2.0000      -0.600248       -16.3336 
 123   2.0000      -0.587653       -15.9909 
 124   2.0000      -0.582285       -15.8448 
 125   2.0000      -0.580695       -15.8015 
 126   2.0000      -0.579730       -15.7753 
 127   2.0000      -0.571653       -15.5555 
 128   2.0000      -0.568607       -15.4726 
 129   2.0000      -0.559655       -15.2290 
 130   2.0000      -0.553395       -15.0586 
 131   2.0000      -0.548162       -14.9162 
 132   2.0000      -0.543053       -14.7772 
 133   2.0000      -0.541656       -14.7392 
 134   2.0000      -0.539104       -14.6698 
 135   2.0000      -0.535454       -14.5705 
 136   2.0000      -0.530465       -14.4347 
 137   2.0000      -0.518638       -14.1129 
 138   2.0000      -0.518125       -14.0989 
 139   2.0000      -0.514375       -13.9968 
 140   2.0000      -0.512189       -13.9374 
 141   2.0000      -0.510514       -13.8918 
 142   2.0000      -0.509200       -13.8560 
 143   2.0000      -0.504155       -13.7188 
 144   2.0000      -0.501474       -13.6458 
 145   2.0000      -0.495277       -13.4772 
 146   2.0000      -0.490181       -13.3385 
 147   2.0000      -0.481520       -13.1028 
 148   2.0000      -0.477272       -12.9872 
 149   2.0000      -0.467787       -12.7291 
 150   2.0000      -0.466093       -12.6830 
 151   2.0000      -0.456864       -12.4319 
 152   2.0000      -0.451307       -12.2807 
 153   2.0000      -0.445377       -12.1193 
 154   2.0000      -0.438993       -11.9456 
 155   2.0000      -0.427474       -11.6321 
 156   2.0000      -0.409331       -11.1385 
 157   2.0000      -0.403711       -10.9855 
 158   2.0000      -0.394782       -10.7426 
 159   2.0000      -0.387849       -10.5539 
 160   2.0000      -0.384675       -10.4675 
 161   2.0000      -0.377460       -10.2712 
 162   2.0000      -0.370886       -10.0923 
 163   2.0000      -0.357432        -9.7262 
 164   2.0000      -0.355252        -9.6669 
 165   2.0000      -0.341676        -9.2975 
 166   2.0000      -0.337888        -9.1944 
 167   2.0000      -0.325413        -8.8549 
 168   2.0000      -0.320327        -8.7165 
 169   2.0000      -0.305969        -8.3258 
 170   2.0000      -0.299282        -8.1439 
 171   2.0000      -0.285056        -7.7568 
 172   2.0000      -0.278827        -7.5873 
 173   2.0000      -0.263332        -7.1656 
 174   2.0000      -0.241603        -6.5744 
 175   2.0000      -0.190123        -5.1735 
 176   2.0000      -0.181037        -4.9263 
 177   2.0000      -0.079656        -2.1676 
 178   2.0000      -0.059666        -1.6236 
 179   0.0000       0.028163         0.7664 
 180   0.0000       0.065103         1.7716 
 181   0.0000       0.090263         2.4562 
 182   0.0000       0.106028         2.8852 
 183   0.0000       0.114916         3.1270 
 184   0.0000       0.136366         3.7107 
 185   0.0000       0.139873         3.8061 
 186   0.0000       0.140789         3.8311 
 187   0.0000       0.164300         4.4708 
 188   0.0000       0.164828         4.4852 
 189   0.0000       0.166160         4.5214 
 190   0.0000       0.173775         4.7286 
 191   0.0000       0.180196         4.9034 
 192   0.0000       0.183609         4.9963 
 193   0.0000       0.189685         5.1616 
 194   0.0000       0.204224         5.5572 
 195   0.0000       0.206045         5.6068 
 196   0.0000       0.207584         5.6486 
 197   0.0000       0.209218         5.6931 
 198   0.0000       0.216373         5.8878 
 199   0.0000       0.228583         6.2201 
 200   0.0000       0.233559         6.3555 
 201   0.0000       0.235215         6.4005 
 202   0.0000       0.238691         6.4951 
 203   0.0000       0.240029         6.5315 
 204   0.0000       0.245938         6.6923 
 205   0.0000       0.254695         6.9306 
 206   0.0000       0.256303         6.9744 
 207   0.0000       0.257849         7.0164 
 208   0.0000       0.259477         7.0607 
 209   0.0000       0.260518         7.0890 
 210   0.0000       0.264457         7.1962 
 211   0.0000       0.265510         7.2249 
 212   0.0000       0.268533         7.3072 
 213   0.0000       0.269418         7.3312 
 214   0.0000       0.273010         7.4290 
 215   0.0000       0.276263         7.5175 
 216   0.0000       0.278623         7.5817 
 217   0.0000       0.281152         7.6505 
 218   0.0000       0.286468         7.7952 
 219   0.0000       0.288222         7.8429 
 220   0.0000       0.289507         7.8779 
 221   0.0000       0.291933         7.9439 
 222   0.0000       0.294825         8.0226 
 223   0.0000       0.296020         8.0551 
 224   0.0000       0.297844         8.1047 
 225   0.0000       0.299866         8.1598 
 226   0.0000       0.304369         8.2823 
 227   0.0000       0.309146         8.4123 
 228   0.0000       0.311535         8.4773 
 229   0.0000       0.324527         8.8308 
 230   0.0000       0.328142         8.9292 
 231   0.0000       0.335022         9.1164 
 232   0.0000       0.343002         9.3335 
 233   0.0000       0.355220         9.6660 
 234   0.0000       0.358423         9.7532 
 235   0.0000       0.363907         9.9024 
 236   0.0000       0.375270        10.2116 
 237   0.0000       0.390863        10.6359 
 238   0.0000       0.395588        10.7645 
 239   0.0000       0.398031        10.8310 
 240   0.0000       0.406472        11.0607 
 241   0.0000       0.409694        11.1483 
 242   0.0000       0.411098        11.1866 
 243   0.0000       0.419216        11.4075 
 244   0.0000       0.428216        11.6523 
 245   0.0000       0.434547        11.8246 
 246   0.0000       0.436737        11.8842 
 247   0.0000       0.440522        11.9872 
 248   0.0000       0.441719        12.0198 
 249   0.0000       0.447912        12.1883 
 250   0.0000       0.458376        12.4730 
 251   0.0000       0.465810        12.6753 
 252   0.0000       0.468995        12.7620 
 253   0.0000       0.470609        12.8059 
 254   0.0000       0.471794        12.8382 
 255   0.0000       0.474612        12.9148 
 256   0.0000       0.478036        13.0080 
 257   0.0000       0.479412        13.0455 
 258   0.0000       0.489793        13.3279 
 259   0.0000       0.494902        13.4670 
 260   0.0000       0.503814        13.7095 
 261   0.0000       0.504970        13.7409 
 262   0.0000       0.506614        13.7857 
 263   0.0000       0.513052        13.9609 
 264   0.0000       0.516708        14.0603 
 265   0.0000       0.517856        14.0916 
 266   0.0000       0.525183        14.2910 
 267   0.0000       0.528075        14.3697 
 268   0.0000       0.531875        14.4731 
 269   0.0000       0.535829        14.5806 
 270   0.0000       0.541835        14.7441 
 271   0.0000       0.548027        14.9126 
 272   0.0000       0.558101        15.1867 
 273   0.0000       0.559642        15.2286 
 274   0.0000       0.560634        15.2556 
 275   0.0000       0.566599        15.4179 
 276   0.0000       0.571640        15.5551 
 277   0.0000       0.573609        15.6087 
 278   0.0000       0.579172        15.7601 
 279   0.0000       0.585597        15.9349 
 280   0.0000       0.590684        16.0733 
 281   0.0000       0.592731        16.1290 
 282   0.0000       0.594749        16.1839 
 283   0.0000       0.595265        16.1980 
 284   0.0000       0.597927        16.2704 
 285   0.0000       0.602347        16.3907 
 286   0.0000       0.606501        16.5037 
 287   0.0000       0.610399        16.6098 
 288   0.0000       0.615348        16.7445 
 289   0.0000       0.624629        16.9970 
 290   0.0000       0.625781        17.0284 
 291   0.0000       0.629241        17.1225 
 292   0.0000       0.634116        17.2552 
 293   0.0000       0.637157        17.3379 
 294   0.0000       0.644451        17.5364 
 295   0.0000       0.648006        17.6331 
 296   0.0000       0.653127        17.7725 
 297   0.0000       0.655653        17.8412 
 298   0.0000       0.661178        17.9916 
 299   0.0000       0.664653        18.0861 
 300   0.0000       0.670507        18.2454 
 301   0.0000       0.675029        18.3685 
 302   0.0000       0.677415        18.4334 
 303   0.0000       0.678268        18.4566 
 304   0.0000       0.680427        18.5154 
 305   0.0000       0.683902        18.6099 
 306   0.0000       0.689052        18.7501 
 307   0.0000       0.692723        18.8500 
 308   0.0000       0.696075        18.9412 
 309   0.0000       0.700248        19.0547 
 310   0.0000       0.702216        19.1083 
 311   0.0000       0.704368        19.1668 
 312   0.0000       0.707236        19.2449 
 313   0.0000       0.710487        19.3333 
 314   0.0000       0.711159        19.3516 
 315   0.0000       0.714525        19.4432 
 316   0.0000       0.716908        19.5081 
 317   0.0000       0.718921        19.5628 
 318   0.0000       0.723444        19.6859 
 319   0.0000       0.726560        19.7707 
 320   0.0000       0.728524        19.8241 
 321   0.0000       0.729043        19.8383 
 322   0.0000       0.730196        19.8696 
 323   0.0000       0.732472        19.9316 
 324   0.0000       0.737770        20.0757 
 325   0.0000       0.741593        20.1798 
 326   0.0000       0.744159        20.2496 
 327   0.0000       0.749028        20.3821 
 328   0.0000       0.753826        20.5126 
 329   0.0000       0.756239        20.5783 
 330   0.0000       0.758825        20.6487 
 331   0.0000       0.762769        20.7560 
 332   0.0000       0.764028        20.7903 
 333   0.0000       0.766432        20.8557 
 334   0.0000       0.768826        20.9208 
 335   0.0000       0.773488        21.0477 
 336   0.0000       0.777748        21.1636 
 337   0.0000       0.781792        21.2736 
 338   0.0000       0.786438        21.4001 
 339   0.0000       0.788621        21.4595 
 340   0.0000       0.792170        21.5561 
 341   0.0000       0.795332        21.6421 
 342   0.0000       0.797571        21.7030 
 343   0.0000       0.803901        21.8753 
 344   0.0000       0.806747        21.9527 
 345   0.0000       0.808136        21.9905 
 346   0.0000       0.808411        21.9980 
 347   0.0000       0.813887        22.1470 
 348   0.0000       0.816188        22.2096 
 349   0.0000       0.816654        22.2223 
 350   0.0000       0.818774        22.2800 
 351   0.0000       0.821056        22.3421 
 352   0.0000       0.826470        22.4894 
 353   0.0000       0.827397        22.5146 
 354   0.0000       0.829688        22.5770 
 355   0.0000       0.831390        22.6233 
 356   0.0000       0.832904        22.6645 
 357   0.0000       0.836241        22.7553 
 358   0.0000       0.839248        22.8371 
 359   0.0000       0.841800        22.9065 
 360   0.0000       0.842473        22.9248 
 361   0.0000       0.842633        22.9292 
 362   0.0000       0.845875        23.0174 
 363   0.0000       0.848307        23.0836 
 364   0.0000       0.849240        23.1090 
 365   0.0000       0.856030        23.2938 
 366   0.0000       0.857819        23.3425 
 367   0.0000       0.863413        23.4947 
 368   0.0000       0.865134        23.5415 
 369   0.0000       0.868362        23.6293 
 370   0.0000       0.870515        23.6879 
 371   0.0000       0.873284        23.7633 
 372   0.0000       0.874731        23.8026 
 373   0.0000       0.877364        23.8743 
 374   0.0000       0.878715        23.9110 
 375   0.0000       0.881227        23.9794 
 376   0.0000       0.888264        24.1709 
 377   0.0000       0.890410        24.2293 
 378   0.0000       0.891502        24.2590 
 379   0.0000       0.895044        24.3554 
 380   0.0000       0.897038        24.4096 
 381   0.0000       0.898453        24.4481 
 382   0.0000       0.900679        24.5087 
 383   0.0000       0.901482        24.5306 
 384   0.0000       0.905142        24.6302 
 385   0.0000       0.906675        24.6719 
 386   0.0000       0.909500        24.7487 
 387   0.0000       0.910148        24.7664 
 388   0.0000       0.913451        24.8563 
 389   0.0000       0.916607        24.9422 
 390   0.0000       0.920132        25.0381 
 391   0.0000       0.925247        25.1773 
 392   0.0000       0.926721        25.2174 
 393   0.0000       0.927943        25.2506 
 394   0.0000       0.929672        25.2977 
 395   0.0000       0.931898        25.3582 
 396   0.0000       0.936043        25.4710 
 397   0.0000       0.941094        25.6085 
 398   0.0000       0.943090        25.6628 
 399   0.0000       0.945965        25.7410 
 400   0.0000       0.948387        25.8069 
 401   0.0000       0.952129        25.9088 
 402   0.0000       0.954906        25.9843 
 403   0.0000       0.956076        26.0162 
 404   0.0000       0.960475        26.1358 
 405   0.0000       0.964636        26.2491 
 406   0.0000       0.969207        26.3735 
 407   0.0000       0.978849        26.6358 
 408   0.0000       0.980881        26.6911 
 409   0.0000       0.984545        26.7908 
 410   0.0000       0.987067        26.8595 
 411   0.0000       0.990215        26.9451 
 412   0.0000       0.994795        27.0698 
 413   0.0000       1.002646        27.2834 
 414   0.0000       1.006896        27.3990 
 415   0.0000       1.013123        27.5685 
 416   0.0000       1.014721        27.6120 
 417   0.0000       1.020249        27.7624 
 418   0.0000       1.023276        27.8448 
 419   0.0000       1.028793        27.9949 
 420   0.0000       1.032958        28.1082 
 421   0.0000       1.037466        28.2309 
 422   0.0000       1.048882        28.5415 
 423   0.0000       1.050214        28.5778 
 424   0.0000       1.053505        28.6673 
 425   0.0000       1.071700        29.1624 
 426   0.0000       1.076275        29.2869 
 427   0.0000       1.077017        29.3071 
 428   0.0000       1.081802        29.4373 
 429   0.0000       1.082565        29.4581 
 430   0.0000       1.085977        29.5509 
 431   0.0000       1.088365        29.6159 
 432   0.0000       1.094834        29.7919 
 433   0.0000       1.102972        30.0134 
 434   0.0000       1.104888        30.0655 
 435   0.0000       1.110225        30.2108 
 436   0.0000       1.111555        30.2469 
 437   0.0000       1.114389        30.3241 
 438   0.0000       1.116927        30.3931 
 439   0.0000       1.120125        30.4802 
 440   0.0000       1.122236        30.5376 
 441   0.0000       1.126526        30.6543 
 442   0.0000       1.130715        30.7683 
 443   0.0000       1.133078        30.8326 
 444   0.0000       1.135749        30.9053 
 445   0.0000       1.139164        30.9982 
 446   0.0000       1.143130        31.1061 
 447   0.0000       1.149445        31.2780 
 448   0.0000       1.152688        31.3662 
 449   0.0000       1.154664        31.4200 
 450   0.0000       1.160296        31.5733 
 451   0.0000       1.163537        31.6614 
 452   0.0000       1.163813        31.6690 
 453   0.0000       1.167495        31.7692 
 454   0.0000       1.168986        31.8097 
 455   0.0000       1.174498        31.9597 
 456   0.0000       1.180984        32.1362 
 457   0.0000       1.186509        32.2865 
 458   0.0000       1.189997        32.3815 
 459   0.0000       1.195274        32.5250 
 460   0.0000       1.200337        32.6628 
 461   0.0000       1.201942        32.7065 
 462   0.0000       1.204416        32.7738 
 463   0.0000       1.206072        32.8189 
 464   0.0000       1.208706        32.8906 
 465   0.0000       1.214839        33.0574 
 466   0.0000       1.219193        33.1759 
 467   0.0000       1.219594        33.1868 
 468   0.0000       1.223857        33.3029 
 469   0.0000       1.230085        33.4723 
 470   0.0000       1.236531        33.6477 
 471   0.0000       1.236667        33.6514 
 472   0.0000       1.239694        33.7338 
 473   0.0000       1.240858        33.7655 
 474   0.0000       1.242141        33.8004 
 475   0.0000       1.245398        33.8890 
 476   0.0000       1.248665        33.9779 
 477   0.0000       1.252899        34.0931 
 478   0.0000       1.255354        34.1599 
 479   0.0000       1.256377        34.1878 
 480   0.0000       1.261471        34.3264 
 481   0.0000       1.268473        34.5169 
 482   0.0000       1.270682        34.5770 
 483   0.0000       1.273114        34.6432 
 484   0.0000       1.274939        34.6929 
 485   0.0000       1.280604        34.8470 
 486   0.0000       1.285661        34.9846 
 487   0.0000       1.286189        34.9990 
 488   0.0000       1.290900        35.1272 
 489   0.0000       1.297391        35.3038 
 490   0.0000       1.297994        35.3202 
 491   0.0000       1.302659        35.4471 
 492   0.0000       1.304376        35.4939 
 493   0.0000       1.308750        35.6129 
 494   0.0000       1.313091        35.7310 
 495   0.0000       1.317450        35.8496 
 496   0.0000       1.319500        35.9054 
 497   0.0000       1.322968        35.9998 
 498   0.0000       1.326414        36.0935 
 499   0.0000       1.327660        36.1275 
 500   0.0000       1.330937        36.2166 
 501   0.0000       1.337472        36.3945 
 502   0.0000       1.341461        36.5030 
 503   0.0000       1.343830        36.5675 
 504   0.0000       1.348969        36.7073 
 505   0.0000       1.349140        36.7120 
 506   0.0000       1.354098        36.8469 
 507   0.0000       1.354868        36.8678 
 508   0.0000       1.359101        36.9830 
[...]
 76 H s       :     0.885269  s :     0.885269
      pz      :     0.022122  p :     0.079788
      px      :     0.043622
      py      :     0.014044
 77 H s       :     0.884430  s :     0.884430
      pz      :     0.047987  p :     0.079301
      px      :     0.015024
      py      :     0.016290
 78 H s       :     0.884799  s :     0.884799
      pz      :     0.025887  p :     0.079268
      px      :     0.020452
      py      :     0.032929
 79 H s       :     0.910665  s :     0.910665
      pz      :     0.021784  p :     0.086304
      px      :     0.021659
      py      :     0.042861
 80 H s       :     0.864337  s :     0.864337
      pz      :     0.039401  p :     0.084852
      px      :     0.030299
      py      :     0.015152
 81 H s       :     0.886826  s :     0.886826
      pz      :     0.037824  p :     0.084122
      px      :     0.016183
      py      :     0.030115
 82 H s       :     0.916157  s :     0.916157
      pz      :     0.021958  p :     0.086719
      px      :     0.031655
      py      :     0.033106
 83 H s       :     0.873597  s :     0.873597
      pz      :     0.039259  p :     0.084086
      px      :     0.015279
      py      :     0.029547
 84 H s       :     0.886819  s :     0.886819
      pz      :     0.035758  p :     0.083425
      px      :     0.031691
      py      :     0.015976
 85 H s       :     0.892922  s :     0.892922
      pz      :     0.022487  p :     0.079779
      px      :     0.014073
      py      :     0.043220
 86 H s       :     0.891093  s :     0.891093
      pz      :     0.024727  p :     0.078819
      px      :     0.032974
      py      :     0.021119
 87 H s       :     0.889887  s :     0.889887
      pz      :     0.048015  p :     0.078737
      px      :     0.015585
      py      :     0.015137
 88 H s       :     0.910516  s :     0.910516
      pz      :     0.021639  p :     0.087034
      px      :     0.042938
      py      :     0.022458
 89 H s       :     0.870994  s :     0.870994
      pz      :     0.037963  p :     0.083855
      px      :     0.030500
      py      :     0.015391


                      *****************************
                      * MAYER POPULATION ANALYSIS *
                      *****************************

  NA   - Mulliken gross atomic population
  ZA   - Total nuclear charge
  QA   - Mulliken gross atomic charge
  VA   - Mayer's total valence
  BVA  - Mayer's bonded valence
  FA   - Mayer's free valence

  ATOM       NA         ZA         QA         VA         BVA        FA
  0 C      5.7784     6.0000     0.2216     3.8491     3.8491     0.0000
  1 N      7.4572     7.0000    -0.4572     3.3390     3.3390     0.0000
  2 C      6.0768     6.0000    -0.0768     3.9251     3.9251    -0.0000
  3 N      7.3408     7.0000    -0.3408     3.4573     3.4573     0.0000
  4 C      6.0663     6.0000    -0.0663     4.1076     4.1076    -0.0000
  5 N      7.5669     7.0000    -0.5669     3.0962     3.0962    -0.0000
  6 C      6.1135     6.0000    -0.1135     3.9445     3.9445     0.0000
  7 N      7.3410     7.0000    -0.3410     3.4322     3.4322     0.0000
  8 C      5.7891     6.0000     0.2109     3.8447     3.8447     0.0000
  9 N      7.5624     7.0000    -0.5624     3.0771     3.0771    -0.0000
 10 C      5.8805     6.0000     0.1195     3.9101     3.9101     0.0000
 11 N      7.4382     7.0000    -0.4382     3.3793     3.3793     0.0000
 12 C      6.0579     6.0000    -0.0579     3.8545     3.8545    -0.0000
 13 N      7.4293     7.0000    -0.4293     3.4288     3.4288    -0.0000
 14 C      5.7878     6.0000     0.2122     3.7928     3.7928     0.0000
 15 N      7.4411     7.0000    -0.4411     3.3716     3.3716     0.0000
 16 C      5.7667     6.0000     0.2333     3.7762     3.7762    -0.0000
 17 C      6.1270     6.0000    -0.1270     3.9565     3.9565     0.0000
 18 C      6.1555     6.0000    -0.1555     3.7495     3.7495     0.0000
 19 C      5.7986     6.0000     0.2014     3.8688     3.8688    -0.0000
 20 C      5.7857     6.0000     0.2143     3.8289     3.8289    -0.0000
 21 C      6.0704     6.0000    -0.0704     3.8485     3.8485    -0.0000
 22 C      6.0894     6.0000    -0.0894     3.9822     3.9822     0.0000
 23 C      6.0397     6.0000    -0.0397     3.9925     3.9925     0.0000
 24 C      5.8060     6.0000     0.1940     3.8211     3.8211    -0.0000
 25 C      5.8855     6.0000     0.1145     3.8911     3.8911     0.0000
 26 C      6.0906     6.0000    -0.0906     3.9093     3.9093    -0.0000
 27 C      5.7859     6.0000     0.2141     3.8611     3.8611    -0.0000
 28 C      6.0617     6.0000    -0.0617     3.9888     3.9888     0.0000
 29 C      6.1832     6.0000    -0.1832     3.7470     3.7470     0.0000
 30 C      5.7537     6.0000     0.2463     3.7993     3.7993     0.0000
 31 C      5.7691     6.0000     0.2309     3.8171     3.8171    -0.0000
 32 C      6.0614     6.0000    -0.0614     3.9235     3.9235    -0.0000
 33 C      6.0601     6.0000    -0.0601     3.9709     3.9709    -0.0000
 34 C      6.0507     6.0000    -0.0507     3.9835     3.9835    -0.0000
 35 C      5.7717     6.0000     0.2283     3.8162     3.8162    -0.0000
 36 C      5.8918     6.0000     0.1082     3.8746     3.8746    -0.0000
 37 C      6.0642     6.0000    -0.0642     3.9177     3.9177    -0.0000
 38 C      5.7686     6.0000     0.2314     3.8017     3.8017    -0.0000
 39 C      6.0580     6.0000    -0.0580     3.9829     3.9829    -0.0000
 40 C      6.1809     6.0000    -0.1809     3.7264     3.7264     0.0000
 41 C      5.7746     6.0000     0.2254     3.8873     3.8873    -0.0000
 42 C      5.8028     6.0000     0.1972     3.8257     3.8257     0.0000
 43 C      6.0726     6.0000    -0.0726     3.8999     3.8999    -0.0000
 44 C      6.0902     6.0000    -0.0902     3.9857     3.9857     0.0000
 45 C      6.0617     6.0000    -0.0617     3.9918     3.9918     0.0000
 46 C      5.7887     6.0000     0.2113     3.8287     3.8287     0.0000
 47 C      5.8846     6.0000     0.1154     3.8932     3.8932     0.0000
 48 C      6.0669     6.0000    -0.0669     3.9093     3.9093    -0.0000
 49 C      5.7615     6.0000     0.2385     3.8961     3.8961    -0.0000
 50 C      6.0461     6.0000    -0.0461     3.9903     3.9903    -0.0000
 51 C      6.1950     6.0000    -0.1950     3.7371     3.7371    -0.0000
 52 H      0.9639     1.0000     0.0361     0.9856     0.9856     0.0000
 53 H      1.0180     1.0000    -0.0180     0.9991     0.9991    -0.0000
 54 H      0.9510     1.0000     0.0490     1.0278     1.0278     0.0000
 55 H      0.9658     1.0000     0.0342     0.9867     0.9867     0.0000
 56 H      0.9514     1.0000     0.0486     0.9694     0.9694     0.0000
 57 H      0.9520     1.0000     0.0480     0.9824     0.9824     0.0000
 58 H      0.9542     1.0000     0.0458     0.9848     0.9848     0.0000
 59 H      1.0077     1.0000    -0.0077     0.9993     0.9993    -0.0000
 60 H      0.9538     1.0000     0.0462     1.0157     1.0157    -0.0000
 61 H      0.8290     1.0000     0.1710     1.0421     1.0421    -0.0000
 62 H      0.8243     1.0000     0.1757     1.0436     1.0436    -0.0000
 63 H      0.9443     1.0000     0.0557     0.9852     0.9852     0.0000
 64 H      1.0135     1.0000    -0.0135     0.9949     0.9949    -0.0000
 65 H      0.9531     1.0000     0.0469     1.0100     1.0100     0.0000
 66 H      0.9441     1.0000     0.0559     0.9855     0.9855     0.0000
 67 H      0.9372     1.0000     0.0628     0.9719     0.9719    -0.0000
 68 H      0.9426     1.0000     0.0574     0.9868     0.9868    -0.0000
 69 H      0.9434     1.0000     0.0566     0.9828     0.9828     0.0000
 70 H      1.0299     1.0000    -0.0299     0.9939     0.9939     0.0000
 71 H      0.9548     1.0000     0.0452     1.0058     1.0058     0.0000
 72 H      0.9284     1.0000     0.0716     0.9835     0.9835    -0.0000
 73 H      1.0078     1.0000    -0.0078     1.0010     1.0010    -0.0000
 74 H      0.9393     1.0000     0.0607     1.0101     1.0101     0.0000
 75 H      0.9290     1.0000     0.0710     0.9838     0.9838    -0.0000
 76 H      0.9248     1.0000     0.0752     0.9721     0.9721    -0.0000
 77 H      0.9318     1.0000     0.0682     0.9855     0.9855    -0.0000
 78 H      0.9326     1.0000     0.0674     0.9854     0.9854    -0.0000
 79 H      1.0165     1.0000    -0.0165     0.9975     0.9975    -0.0000
 80 H      0.9385     1.0000     0.0615     1.0072     1.0072    -0.0000
 81 H      0.9457     1.0000     0.0543     0.9856     0.9856     0.0000
 82 H      1.0251     1.0000    -0.0251     0.9933     0.9933     0.0000
 83 H      0.9585     1.0000     0.0415     1.0083     1.0083     0.0000
 84 H      0.9461     1.0000     0.0539     0.9852     0.9852     0.0000
 85 H      0.9393     1.0000     0.0607     0.9716     0.9716     0.0000
 86 H      0.9447     1.0000     0.0553     0.9839     0.9839     0.0000
 87 H      0.9429     1.0000     0.0571     0.9856     0.9856    -0.0000
 88 H      1.0144     1.0000    -0.0144     0.9968     0.9968    -0.0000
 89 H      0.9528     1.0000     0.0472     1.0074     1.0074     0.0000

  Mayer bond orders larger than 0.100000
B(  0-C ,  1-N ) :   1.0995 B(  0-C , 17-C ) :   1.7153 B(  0-C , 52-H ) :   0.9626 
B(  1-N ,  8-C ) :   1.0854 B(  1-N , 10-C ) :   0.9786 B(  2-C , 12-C ) :   1.4895 
B(  2-C , 16-C ) :   1.3708 B(  2-C , 53-H ) :   0.9736 B(  3-N , 14-C ) :   1.2207 
B(  3-N , 16-C ) :   1.1836 B(  3-N , 61-H ) :   0.8990 B(  4-C ,  6-C ) :   1.2150 
B(  4-C , 17-C ) :   1.2154 B(  4-C , 18-C ) :   1.4723 B(  5-N , 19-C ) :   1.4573 
B(  5-N , 27-C ) :   1.3723 B(  6-C ,  8-C ) :   1.7221 B(  6-C , 54-H ) :   0.9067 
B(  7-N , 30-C ) :   1.1949 B(  7-N , 38-C ) :   1.1898 B(  7-N , 62-H ) :   0.8966 
B(  8-C , 55-H ) :   0.9639 B(  9-N , 41-C ) :   1.3928 B(  9-N , 49-C ) :   1.4269 
B( 10-C , 56-H ) :   0.9774 B( 10-C , 57-H ) :   0.9830 B( 10-C , 58-H ) :   0.9835 
B( 11-N , 20-C ) :   1.1320 B( 11-N , 24-C ) :   1.1077 B( 11-N , 25-C ) :   0.9598 
B( 12-C , 14-C ) :   1.3590 B( 12-C , 59-H ) :   0.9452 B( 13-N , 31-C ) :   1.1625 
B( 13-N , 35-C ) :   1.1603 B( 13-N , 36-C ) :   0.9411 B( 14-C , 18-C ) :   1.1177 
B( 15-N , 42-C ) :   1.1072 B( 15-N , 46-C ) :   1.1240 B( 15-N , 47-C ) :   0.9615 
B( 16-C , 51-C ) :   1.1669 B( 17-C , 60-H ) :   0.9092 B( 18-C , 19-C ) :   1.1157 
B( 19-C , 21-C ) :   1.2525 B( 20-C , 28-C ) :   1.6277 B( 20-C , 63-H ) :   0.9702 
B( 21-C , 26-C ) :   1.5862 B( 21-C , 64-H ) :   0.9433 B( 22-C , 23-C ) :   1.2903 
B( 22-C , 28-C ) :   1.2647 B( 22-C , 29-C ) :   1.2249 B( 23-C , 24-C ) :   1.6191 
B( 23-C , 65-H ) :   0.9703 B( 24-C , 66-H ) :   0.9695 B( 25-C , 67-H ) :   0.9760 
B( 25-C , 68-H ) :   0.9828 B( 25-C , 69-H ) :   0.9823 B( 26-C , 27-C ) :   1.2574 
B( 26-C , 70-H ) :   0.9675 B( 27-C , 29-C ) :   1.2060 B( 28-C , 71-H ) :   0.9720 
B( 29-C , 30-C ) :   1.2480 B( 30-C , 32-C ) :   1.2774 B( 31-C , 39-C ) :   1.5872 
B( 31-C , 72-H ) :   0.9681 B( 32-C , 37-C ) :   1.5815 B( 32-C , 73-H ) :   0.9786 
B( 33-C , 34-C ) :   1.3080 B( 33-C , 39-C ) :   1.3042 B( 33-C , 40-C ) :   1.1744 
B( 34-C , 35-C ) :   1.5845 B( 34-C , 74-H ) :   0.9696 B( 35-C , 75-H ) :   0.9681 
B( 36-C , 76-H ) :   0.9768 B( 36-C , 77-H ) :   0.9815 B( 36-C , 78-H ) :   0.9823 
B( 37-C , 38-C ) :   1.2833 B( 37-C , 79-H ) :   0.9765 B( 38-C , 40-C ) :   1.2353 
B( 39-C , 80-H ) :   0.9705 B( 40-C , 41-C ) :   1.2509 B( 41-C , 43-C ) :   1.1849 
B( 42-C , 50-C ) :   1.6341 B( 42-C , 81-H ) :   0.9696 B( 43-C , 48-C ) :   1.6678 
B( 43-C , 82-H ) :   0.9720 B( 44-C , 45-C ) :   1.2627 B( 44-C , 50-C ) :   1.2715 
B( 44-C , 51-C ) :   1.2626 B( 45-C , 46-C ) :   1.6353 B( 45-C , 83-H ) :   0.9719 
B( 46-C , 84-H ) :   0.9700 B( 47-C , 85-H ) :   0.9762 B( 47-C , 86-H ) :   0.9829 
B( 47-C , 87-H ) :   0.9825 B( 48-C , 49-C ) :   1.1884 B( 48-C , 88-H ) :   0.9749 
B( 49-C , 51-C ) :   1.2439 B( 50-C , 89-H ) :   0.9708 

-------
TIMINGS
-------

Total SCF time: 0 days 0 hours 43 min 50 sec 

Total time                  ....    2630.583 sec
Sum of individual times     ....    2627.449 sec  ( 99.9%)

Fock matrix formation       ....    2609.915 sec  ( 99.2%)
Diagonalization             ....       4.648 sec  (  0.2%)
Density matrix formation    ....       0.501 sec  (  0.0%)
Population analysis         ....       0.312 sec  (  0.0%)
Initial guess               ....       2.331 sec  (  0.1%)
Orbital Transformation      ....       0.000 sec  (  0.0%)
Orbital Orthonormalization  ....       0.000 sec  (  0.0%)
DIIS solution               ....       2.495 sec  (  0.1%)
SOSCF solution              ....       5.917 sec  (  0.2%)

Maximum memory used throughout the entire SCF-calculation: 304.3 MB


           ************************************************************
           *        Program running with 8 parallel MPI-processes     *
           *              working on a common directory               *
           ************************************************************

------------------------------------------------------------------------------
                                ORCA  MP2 
------------------------------------------------------------------------------

Freezing NCore=104 chemical core electrons

----------
MP2 ENERGY (disk based algorithm)
----------

Dimension of the basis                    ...  918
Memory devoted to MP2                     ... 7000 MB   
Data format for buffers                   ... DOUBLE
Compression type for matrix containers    ... UNCOMPRESSED

-------------------------------
PARTIAL EXCHANGE TRANSFORMATION
-------------------------------

Transformation type                        ... one-operator
Generation of integrals (i,mue|j,nue)      ... ON
Generation of integrals (mue,kappa|nue,tau)... OFF
Generation of integrals (i,mue|a,nue)      ... OFF
Dimension of the basis                     ...  918
Number of internal MOs                     ...  127 (  52- 178)
Pair cutoff                                ... 2.500e-12 Eh
Number of AO pairs in the trafo            ... 421821
Total Number of distinct AO pairs          ... 421821
Memory devoted for trafo                   ... 7000.0 MB 
Max. Number of MO pairs treated together   ... 1088      
Number Format for Storage                  ... Double (8 Byte)
Integral package used                      ... LIBINT

Starting integral evaluation:
    ... done with AO integral generation
Closing buffer AOK     (38.24 GB; CompressionRatio= 1.33)
Collecting buffer AOK 
Number of MO pairs included in the trafo   ... 8128
------------------------
SORTING OF (i,mue|j,nue)
------------------------

IBATCH = 1 of  1
Closing buffer KAO     (51.03 GB; CompressionRatio= 1.00)
Collecting buffer KAO 
N(AO-Batches) Done                         ... 175203461 
N(AO-Batches) Skipped                      ... 167144422 
N(IJ)-pairs Skipped                        ...         0 
TOTAL TIME for half transformation         ...  1156.174 sec
AO-integral generation                     ...   255.271 sec
Half transformation                        ...   467.977 sec
K-integral sorting                         ...    99.202 sec

Finished integral transformation - now doing MP2 part

OPERATOR COMBINATION   0   0: ij=( 52..178, 52..178)
Process 2:   Internal MO  84
Process 5:   Internal MO 132
Process 0:   Internal MO  54
Process 0:   Internal MO  57
Process 1:   Internal MO  69
Process 0:   Internal MO  60
Process 4:   Internal MO 117
Process 0:   Internal MO  63
Process 1:   Internal MO  72
Process 2:   Internal MO  87
Process 0:   Internal MO  66
Process 3:   Internal MO 102
Process 7:   Internal MO 165
Process 1:   Internal MO  75
Process 6:   Internal MO 150
Process 2:   Internal MO  90
Process 1:   Internal MO  78
Process 4:   Internal MO 120
Process 5:   Internal MO 135
Process 3:   Internal MO 105
Process 1:   Internal MO  81
Process 2:   Internal MO  93
Process 3:   Internal MO 108
Process 2:   Internal MO  96
Process 4:   Internal MO 123
Process 7:   Internal MO 168
Process 6:   Internal MO 153
Process 5:   Internal MO 138
Process 2:   Internal MO  99
Process 3:   Internal MO 111
Process 4:   Internal MO 126
Process 6:   Internal MO 156
Process 5:   Internal MO 141
Process 3:   Internal MO 114
Process 7:   Internal MO 171
Process 4:   Internal MO 129
Process 5:   Internal MO 144
Process 6:   Internal MO 159
Process 7:   Internal MO 174
Process 5:   Internal MO 147
Process 6:   Internal MO 162
Process 7:   Internal MO 177
-----------------------------------------------
 MP2 CORRELATION ENERGY   :     -7.286561382 Eh
-----------------------------------------------


-------
TIMINGS
-------
Total time                : 1312.560 sec
Integral trafo            : 1165.326 sec ( 88.8%)
K(i,j)                    :    9.184 sec (  0.7%)
T(i,j)                    :    0.109 sec (  0.0%)

---------------------------------------
MP2 TOTAL ENERGY:    -2130.819314000 Eh
---------------------------------------

Maximum memory used throughout the entire MP2-calculation: 6735.8 MB

-------------------------   --------------------
FINAL SINGLE POINT ENERGY     -2130.819313999803
-------------------------   --------------------


                            ***************************************
                            *     ORCA property calculations      *
                            ***************************************


  WARNING: The energy has been calculated at the MP2 level but the densities
           used in the property calculations are still SCF densities
           MP2 response densities have not been calculated 
           use %mp2 Density relaxed end
           or  %mp2 Density unrelaxed end

                                    ---------------------
                                    Active property flags
                                    ---------------------
   (+) Dipole Moment


------------------------------------------------------------------------------
                       ORCA ELECTRIC PROPERTIES CALCULATION
------------------------------------------------------------------------------

Dipole Moment Calculation                       ... on
Quadrupole Moment Calculation                   ... off
Polarizability Calculation                      ... off
GBWName                                         ... /scratch/chu_02/allen/tmpyp4_amber_gaff2/conf1/conf1/Conf347.orca.gbw
Electron density                                ... /scratch/chu_02/allen/tmpyp4_amber_gaff2/conf1/conf1/Conf347.orca.scfp
The origin for moment calculation is the CENTER OF MASS  = (-0.001397, -0.005066  0.001339)

-------------
DIPOLE MOMENT
-------------
                                X             Y             Z
Electronic contribution:      2.77550      -4.42010      -0.07422
Nuclear contribution   :     -0.02335       0.17144       0.08551
                        -----------------------------------------
Total Dipole Moment    :      2.75215      -4.24866       0.01129
                        -----------------------------------------
Magnitude (a.u.)       :      5.06217
Magnitude (Debye)      :     12.86701



--------------------
Rotational spectrum 
--------------------
 
Rotational constants in cm-1:     0.001503     0.001477     0.000760 
Rotational constants in MHz :    45.066129    44.287816    22.786192 

 Dipole components along the rotational axes: 
x,y,z [a.u.] :     3.491104    -3.665725     0.013972 
x,y,z [Debye]:     8.873680    -9.317533     0.035513 

 

Timings for individual modules:

Sum of individual times         ...     3948.753 sec (=  65.813 min)
GTO integral calculation        ...        3.064 sec (=   0.051 min)   0.1 %
SCF iterations                  ...     2631.873 sec (=  43.865 min)  66.7 %
MP2 module                      ...     1313.816 sec (=  21.897 min)  33.3 %
                             ****ORCA TERMINATED NORMALLY****
TOTAL RUN TIME: 0 days 1 hours 5 minutes 51 seconds 59 msec
# of primitive gaussian functions

