
                                 *****************
                                 * O   R   C   A *
                                 *****************

                                            #,                                       
                                            ###                                      
                                            ####                                     
                                            #####                                    
                                            ######                                   
                                           ########,                                 
                                     ,,################,,,,,                         
                               ,,#################################,,                 
                          ,,##########################################,,             
                       ,#########################################, ''#####,          
                    ,#############################################,,   '####,        
                  ,##################################################,,,,####,       
                ,###########''''           ''''###############################       
              ,#####''   ,,,,##########,,,,          '''####'''          '####       
            ,##' ,,,,###########################,,,                        '##       
           ' ,,###''''                  '''############,,,                           
         ,,##''                                '''############,,,,        ,,,,,,###''
      ,#''                                            '''#######################'''  
     '                                                          ''''####''''         
             ,#######,   #######,   ,#######,      ##                                
            ,#'     '#,  ##    ##  ,#'     '#,    #''#        ######   ,####,        
            ##       ##  ##   ,#'  ##            #'  '#       #        #'  '#        
            ##       ##  #######   ##           ,######,      #####,   #    #        
            '#,     ,#'  ##    ##  '#,     ,#' ,#      #,         ##   #,  ,#        
             '#######'   ##     ##  '#######'  #'      '#     #####' # '####'        



                  #######################################################
                  #                        -***-                        #
                  #          Department of theory and spectroscopy      #
                  #    Directorship and core code : Frank Neese         #
                  #        Max Planck Institute fuer Kohlenforschung    #
                  #                Kaiser Wilhelm Platz 1               #
                  #                 D-45470 Muelheim/Ruhr               #
                  #                      Germany                        #
                  #                                                     #
                  #                  All rights reserved                #
                  #                        -***-                        #
                  #######################################################


                         Program Version 5.0.4 -  RELEASE  -


 With contributions from (in alphabetic order):
   Daniel Aravena         : Magnetic Suceptibility
   Michael Atanasov       : Ab Initio Ligand Field Theory (pilot matlab implementation)
   Alexander A. Auer      : GIAO ZORA, VPT2 properties, NMR spectrum
   Ute Becker             : Parallelization
   Giovanni Bistoni       : ED, misc. LED, open-shell LED, HFLD
   Martin Brehm           : Molecular dynamics
   Dmytro Bykov           : SCF Hessian
   Vijay G. Chilkuri      : MRCI spin determinant printing, contributions to CSF-ICE
   Dipayan Datta          : RHF DLPNO-CCSD density
   Achintya Kumar Dutta   : EOM-CC, STEOM-CC
   Dmitry Ganyushin       : Spin-Orbit,Spin-Spin,Magnetic field MRCI
   Miquel Garcia          : C-PCM and meta-GGA Hessian, CC/C-PCM, Gaussian charge scheme
   Yang Guo               : DLPNO-NEVPT2, F12-NEVPT2, CIM, IAO-localization
   Andreas Hansen         : Spin unrestricted coupled pair/coupled cluster methods
   Benjamin Helmich-Paris : MC-RPA, TRAH-SCF, COSX integrals
   Lee Huntington         : MR-EOM, pCC
   Robert Izsak           : Overlap fitted RIJCOSX, COSX-SCS-MP3, EOM
   Marcus Kettner         : VPT2
   Christian Kollmar      : KDIIS, OOCD, Brueckner-CCSD(T), CCSD density, CASPT2, CASPT2-K
   Simone Kossmann        : Meta GGA functionals, TD-DFT gradient, OOMP2, MP2 Hessian
   Martin Krupicka        : Initial AUTO-CI
   Lucas Lang             : DCDCAS
   Marvin Lechner         : AUTO-CI (C++ implementation), FIC-MRCC
   Dagmar Lenk            : GEPOL surface, SMD
   Dimitrios Liakos       : Extrapolation schemes; Compound Job, initial MDCI parallelization
   Dimitrios Manganas     : Further ROCIS development; embedding schemes
   Dimitrios Pantazis     : SARC Basis sets
   Anastasios Papadopoulos: AUTO-CI, single reference methods and gradients
   Taras Petrenko         : DFT Hessian,TD-DFT gradient, ASA, ECA, R-Raman, ABS, FL, XAS/XES, NRVS
   Peter Pinski           : DLPNO-MP2, DLPNO-MP2 Gradient
   Christoph Reimann      : Effective Core Potentials
   Marius Retegan         : Local ZFS, SOC
   Christoph Riplinger    : Optimizer, TS searches, QM/MM, DLPNO-CCSD(T), (RO)-DLPNO pert. Triples
   Tobias Risthaus        : Range-separated hybrids, TD-DFT gradient, RPA, STAB
   Michael Roemelt        : Original ROCIS implementation
   Masaaki Saitow         : Open-shell DLPNO-CCSD energy and density
   Barbara Sandhoefer     : DKH picture change effects
   Avijit Sen             : IP-ROCIS
   Kantharuban Sivalingam : CASSCF convergence, NEVPT2, FIC-MRCI
   Bernardo de Souza      : ESD, SOC TD-DFT
   Georgi Stoychev        : AutoAux, RI-MP2 NMR, DLPNO-MP2 response
   Willem Van den Heuvel  : Paramagnetic NMR
   Boris Wezisla          : Elementary symmetry handling
   Frank Wennmohs         : Technical directorship


 We gratefully acknowledge several colleagues who have allowed us to
 interface, adapt or use parts of their codes:
   Stefan Grimme, W. Hujo, H. Kruse, P. Pracht,  : VdW corrections, initial TS optimization,
                  C. Bannwarth, S. Ehlert          DFT functionals, gCP, sTDA/sTD-DF
   Ed Valeev, F. Pavosevic, A. Kumar             : LibInt (2-el integral package), F12 methods
   Garnet Chan, S. Sharma, J. Yang, R. Olivares  : DMRG
   Ulf Ekstrom                                   : XCFun DFT Library
   Mihaly Kallay                                 : mrcc  (arbitrary order and MRCC methods)
   Jiri Pittner, Ondrej Demel                    : Mk-CCSD
   Frank Weinhold                                : gennbo (NPA and NBO analysis)
   Christopher J. Cramer and Donald G. Truhlar   : smd solvation model
   Lars Goerigk                                  : TD-DFT with DH, B97 family of functionals
   V. Asgeirsson, H. Jonsson                     : NEB implementation
   FAccTs GmbH                                   : IRC, NEB, NEB-TS, DLPNO-Multilevel, CI-OPT
                                                   MM, QMMM, 2- and 3-layer-ONIOM, Crystal-QMMM,
                                                   LR-CPCM, SF, NACMEs, symmetry and pop. for TD-DFT,
                                                   nearIR, NL-DFT gradient (VV10), updates on ESD,
                                                   ML-optimized integration grids
   S Lehtola, MJT Oliveira, MAL Marques          : LibXC Library
   Liviu Ungur et al                             : ANISO software


 Your calculation uses the libint2 library for the computation of 2-el integrals
 For citations please refer to: http://libint.valeyev.net

 Your ORCA version has been built with support for libXC version: 5.1.0
 For citations please refer to: https://tddft.org/programs/libxc/

 This ORCA versions uses:
   CBLAS   interface :  Fast vector & matrix operations
   LAPACKE interface :  Fast linear algebra routines
   SCALAPACK package :  Parallel linear algebra routines
   Shared memory     :  Shared parallel matrices
   BLAS/LAPACK       :  OpenBLAS 0.3.15  USE64BITINT DYNAMIC_ARCH NO_AFFINITY Sandybridge SINGLE_THREADED
        Core in use  :  Sandybridge
   Copyright (c) 2011-2014, The OpenBLAS Project


================================================================================

----- Orbital basis set information -----
Your calculation utilizes the basis: cc-pVDZ 
       H, B-Ne : Obtained from the ccRepo (grant-hill.group.shef.ac.uk/ccrepo) Feb. 2017
                 T. H. Dunning, Jr., J. Chem. Phys. 90, 1007 (1989)
            He : Obtained from the ccRepo (grant-hill.group.shef.ac.uk/ccrepo) Feb. 2017
                 D. E. Woon, T. H. Dunning, Jr., J. Chem. Phys. 100, 2975 (1994)
  Li-Be, Na-Mg : Obtained from the ccRepo (grant-hill.group.shef.ac.uk/ccrepo) Feb. 2017
                 B. P. Prascher, D. E. Woon, K. A. Peterson, T. H. Dunning, Jr., A. K. Wilson, Theor. Chem. Acc. 128, 69 (2011)
         Al-Ar : Obtained from the ccRepo (grant-hill.group.shef.ac.uk/ccrepo) Feb. 2017
                 D. E. Woon, T. H. Dunning, Jr., J. Chem. Phys. 98, 1358 (1993)
            Ca : Obtained from the Peterson Research Group Website (tyr0.chem.wsu.edu/~kipeters) Feb. 2017
                 J. Koput, K. A. Peterson, J. Phys. Chem. 106, 9595 (2002)
         Sc-Zn : Obtained from the ccRepo (grant-hill.group.shef.ac.uk/ccrepo) Feb. 2017
                 N. B. Balabanov, K. A. Peterson, J. Chem. Phys. 123, 064107 (2005)
                 N. B. Balabanov, K. A. Peterson, J. Chem. Phys. 125, 074110 (2006)
         Ga-Kr : Obtained from the ccRepo (grant-hill.group.shef.ac.uk/ccrepo) Feb. 2017
                 A. K. Wilson, D. E. Woon, K. A. Peterson, T. H. Dunning, Jr., J. Chem. Phys. 110, 7667 (1999)

================================================================================
                                        WARNINGS
                       Please study these warnings very carefully!
================================================================================


WARNING: No MP2 level density has been requested!
         To caclulate MP2 level properties use
         %mp2 Density relaxed end
         or
         %mp2 Density unrelaxed end

WARNING: Post HF methods need fully converged wavefunctions
  ===> : Setting SCFConvForced true
         You can overwrite this default with %scf ConvForced false 


INFO   : the flag for use of the SHARK integral package has been found!

================================================================================
                                       INPUT FILE
================================================================================
NAME = /scratch/allen/tmpyp4_amber_gaff2/2.Mdgx/conf11/conf11/Conf250.orca
|  1> ! PAL2
|  2> ! mp2 cc-pvdz TightSCF  NoKeepInts
|  3> 
|  4> %scf
|  5>   MaxCore 2000
|  6> end
|  7> %mp2
|  8>   MaxCore 2000
|  9> end
| 10> * xyz 0 1
| 11>    C       -4.36100         5.56600         1.15500
| 12>    C        1.47400         4.04100         0.05700
| 13>    C       -2.80200         4.09300         0.04900
| 14>    C       -2.84200         4.96100        -1.05300
| 15>    C       -3.63100         6.09400        -1.01500
| 16>    C       -5.18300         7.62300         0.10100
| 17>    C        0.13200         4.30700         0.06100
| 18>    C       -0.56900         3.05600         0.04700
| 19>    C        1.64900         2.61800         0.02300
| 20>    C       -3.58400         4.42400         1.16600
| 21>    N       -4.37800         6.38100         0.07600
| 22>    N        0.38800         2.06700         0.02500
| 23>    N       -2.01000         0.39500        -0.07500
| 24>    N       -0.38800        -2.07400        -0.02700
| 25>    N        2.01000        -0.40100         0.06500
| 26>    C       -1.96000         2.86100         0.02400
| 27>    C       -2.62300         1.61500        -0.01800
| 28>    C       -5.57300        -4.32900         1.06600
| 29>    C       -4.07300         1.47100         0.05600
| 30>    C       -4.10600        -2.75600        -0.02600
| 31>    C       -4.99500        -2.75700        -1.11100
| 32>    C       -6.13200        -3.54200        -1.07600
| 33>    C       -7.65100        -5.11300         0.04000
| 34>    C       -4.32400         0.14100         0.03700
| 35>    C       -3.02500        -0.52000        -0.04800
| 36>    C       -4.42200        -3.56600         1.07500
| 37>    N       -6.40700        -4.31300         0.00100
| 38>    C       -2.86700        -1.92200        -0.04000
| 39>    C       -1.65000        -2.62400        -0.02700
| 40>    C        3.56800        -6.14200        -1.04000
| 41>    C       -1.47600        -4.04900        -0.03400
| 42>    C        2.80300        -4.09900        -0.00800
| 43>    C        3.65700        -4.38400         1.06900
| 44>    C        4.42700        -5.53000         1.05900
| 45>    C        5.24500        -7.58800         0.01400
| 46>    C       -0.13400        -4.31500        -0.02200
| 47>    C        0.56800        -3.06400        -0.02700
| 48>    C        2.77500        -5.01200        -1.07400
| 49>    N        4.37600        -6.39100         0.01700
| 50>    C        1.95900        -2.86900        -0.00900
| 51>    C        2.62100        -1.62200         0.00900
| 52>    C        5.54300         4.33900        -1.13000
| 53>    C        4.07000        -1.47900        -0.09400
| 54>    C        4.10400         2.75100        -0.02100
| 55>    C        5.02700         2.72900         1.03600
| 56>    C        6.16600         3.50900         0.97800
| 57>    C        7.61900         5.15300        -0.11500
| 58>    C        4.32100        -0.14800        -0.09200
| 59>    C        3.02500         0.51400         0.01500
| 60>    C        4.38700         3.58200        -1.11500
| 61>    C        2.86600         1.91600         0.01300
| 62>    N        6.41300         4.29600        -0.09500
| 63>    H       -4.98900         5.85400         1.98900
| 64>    H        2.27400         4.76600         0.08100
| 65>    H       -2.25400         4.76500        -1.94100
| 66>    H       -3.68700         6.79700        -1.83600
| 67>    H       -4.55400         8.44800         0.44300
| 68>    H       -5.55000         7.82300        -0.90600
| 69>    H       -6.02200         7.48300         0.78200
| 70>    H       -0.33200         5.28200         0.06900
| 71>    H       -3.60700         3.78600         2.04300
| 72>    H        0.18200         1.07200         0.00500
| 73>    H       -0.18300        -1.08000        -0.02100
| 74>    H       -5.86400        -4.96200         1.89500
| 75>    H       -4.79400         2.27200         0.13900
| 76>    H       -4.80000        -2.16000        -1.99400
| 77>    H       -6.84100        -3.58200        -1.89300
| 78>    H       -8.42800        -4.53600         0.54600
| 79>    H       -7.95600        -5.33700        -0.98100
| 80>    H       -7.45600        -6.03700         0.58400
| 81>    H       -5.28700        -0.34400         0.10000
| 82>    H       -3.78000        -3.60100         1.94700
| 83>    H        3.58700        -6.86800        -1.84300
| 84>    H       -2.27600        -4.77400        -0.05000
| 85>    H        3.71400        -3.72400         1.92600
| 86>    H        5.09200        -5.79500         1.87100
| 87>    H        6.20500        -7.32900        -0.43900
| 88>    H        5.39300        -7.91700         1.04200
| 89>    H        4.75900        -8.37300        -0.56400
| 90>    H        0.32900        -5.29000        -0.00800
| 91>    H        2.14600        -4.84200        -1.94000
| 92>    H        5.80800         4.98600        -1.95600
| 93>    H        4.78800        -2.28100        -0.18500
| 94>    H        4.86000         2.11400         1.91200
| 95>    H        6.90100         3.53100         1.77200
| 96>    H        7.38300         6.10900         0.35600
| 97>    H        8.41400         4.65200         0.43500
| 98>    H        7.92100         5.31000        -1.15000
| 99>    H        5.28300         0.33600        -0.17900
|100>    H        3.72000         3.63200        -1.96700
|101> *
|102> 
|103>                          ****END OF INPUT****
================================================================================

                       ****************************
                       * Single Point Calculation *
                       ****************************

---------------------------------
CARTESIAN COORDINATES (ANGSTROEM)
---------------------------------
  C     -4.361000    5.566000    1.155000
  C      1.474000    4.041000    0.057000
  C     -2.802000    4.093000    0.049000
  C     -2.842000    4.961000   -1.053000
  C     -3.631000    6.094000   -1.015000
  C     -5.183000    7.623000    0.101000
  C      0.132000    4.307000    0.061000
  C     -0.569000    3.056000    0.047000
  C      1.649000    2.618000    0.023000
  C     -3.584000    4.424000    1.166000
  N     -4.378000    6.381000    0.076000
  N      0.388000    2.067000    0.025000
  N     -2.010000    0.395000   -0.075000
  N     -0.388000   -2.074000   -0.027000
  N      2.010000   -0.401000    0.065000
  C     -1.960000    2.861000    0.024000
  C     -2.623000    1.615000   -0.018000
  C     -5.573000   -4.329000    1.066000
  C     -4.073000    1.471000    0.056000
  C     -4.106000   -2.756000   -0.026000
  C     -4.995000   -2.757000   -1.111000
  C     -6.132000   -3.542000   -1.076000
  C     -7.651000   -5.113000    0.040000
  C     -4.324000    0.141000    0.037000
  C     -3.025000   -0.520000   -0.048000
  C     -4.422000   -3.566000    1.075000
  N     -6.407000   -4.313000    0.001000
  C     -2.867000   -1.922000   -0.040000
  C     -1.650000   -2.624000   -0.027000
  C      3.568000   -6.142000   -1.040000
  C     -1.476000   -4.049000   -0.034000
  C      2.803000   -4.099000   -0.008000
  C      3.657000   -4.384000    1.069000
  C      4.427000   -5.530000    1.059000
  C      5.245000   -7.588000    0.014000
  C     -0.134000   -4.315000   -0.022000
  C      0.568000   -3.064000   -0.027000
  C      2.775000   -5.012000   -1.074000
  N      4.376000   -6.391000    0.017000
  C      1.959000   -2.869000   -0.009000
  C      2.621000   -1.622000    0.009000
  C      5.543000    4.339000   -1.130000
  C      4.070000   -1.479000   -0.094000
  C      4.104000    2.751000   -0.021000
  C      5.027000    2.729000    1.036000
  C      6.166000    3.509000    0.978000
  C      7.619000    5.153000   -0.115000
  C      4.321000   -0.148000   -0.092000
  C      3.025000    0.514000    0.015000
  C      4.387000    3.582000   -1.115000
  C      2.866000    1.916000    0.013000
  N      6.413000    4.296000   -0.095000
  H     -4.989000    5.854000    1.989000
  H      2.274000    4.766000    0.081000
  H     -2.254000    4.765000   -1.941000
  H     -3.687000    6.797000   -1.836000
  H     -4.554000    8.448000    0.443000
  H     -5.550000    7.823000   -0.906000
  H     -6.022000    7.483000    0.782000
  H     -0.332000    5.282000    0.069000
  H     -3.607000    3.786000    2.043000
  H      0.182000    1.072000    0.005000
  H     -0.183000   -1.080000   -0.021000
  H     -5.864000   -4.962000    1.895000
  H     -4.794000    2.272000    0.139000
  H     -4.800000   -2.160000   -1.994000
  H     -6.841000   -3.582000   -1.893000
  H     -8.428000   -4.536000    0.546000
  H     -7.956000   -5.337000   -0.981000
  H     -7.456000   -6.037000    0.584000
  H     -5.287000   -0.344000    0.100000
  H     -3.780000   -3.601000    1.947000
  H      3.587000   -6.868000   -1.843000
  H     -2.276000   -4.774000   -0.050000
  H      3.714000   -3.724000    1.926000
  H      5.092000   -5.795000    1.871000
  H      6.205000   -7.329000   -0.439000
  H      5.393000   -7.917000    1.042000
  H      4.759000   -8.373000   -0.564000
  H      0.329000   -5.290000   -0.008000
  H      2.146000   -4.842000   -1.940000
  H      5.808000    4.986000   -1.956000
  H      4.788000   -2.281000   -0.185000
  H      4.860000    2.114000    1.912000
  H      6.901000    3.531000    1.772000
  H      7.383000    6.109000    0.356000
  H      8.414000    4.652000    0.435000
  H      7.921000    5.310000   -1.150000
  H      5.283000    0.336000   -0.179000
  H      3.720000    3.632000   -1.967000

----------------------------
CARTESIAN COORDINATES (A.U.)
----------------------------
  NO LB      ZA    FRAG     MASS         X           Y           Z
   0 C     6.0000    0    12.011   -8.241096   10.518216    2.182634
   1 C     6.0000    0    12.011    2.785456    7.636383    0.107714
   2 C     6.0000    0    12.011   -5.295013    7.734649    0.092597
   3 C     6.0000    0    12.011   -5.370602    9.374931   -1.989882
   4 C     6.0000    0    12.011   -6.861596   11.515991   -1.918072
   5 C     6.0000    0    12.011   -9.794451   14.405382    0.190862
   6 C     6.0000    0    12.011    0.249444    8.139050    0.115273
   7 C     6.0000    0    12.011   -1.075254    5.775003    0.088817
   8 C     6.0000    0    12.011    3.116158    4.947303    0.043464
   9 C     6.0000    0    12.011   -6.772778    8.360148    2.203421
  10 N     7.0000    0    14.007   -8.273221   12.058342    0.143619
  11 N     7.0000    0    14.007    0.733214    3.906064    0.047243
  12 N     7.0000    0    14.007   -3.798350    0.746442   -0.141729
  13 N     7.0000    0    14.007   -0.733214   -3.919292   -0.051023
  14 N     7.0000    0    14.007    3.798350   -0.757780    0.122832
  15 C     6.0000    0    12.011   -3.703863    5.406506    0.045353
  16 C     6.0000    0    12.011   -4.956752    3.051908   -0.034015
  17 C     6.0000    0    12.011  -10.531444   -8.180624    2.014448
  18 C     6.0000    0    12.011   -7.696855    2.779787    0.105825
  19 C     6.0000    0    12.011   -7.759216   -5.208085   -0.049133
  20 C     6.0000    0    12.011   -9.439182   -5.209975   -2.099486
  21 C     6.0000    0    12.011  -11.587801   -6.693410   -2.033345
  22 C     6.0000    0    12.011  -14.458295   -9.662170    0.075589
  23 C     6.0000    0    12.011   -8.171176    0.266451    0.069920
  24 C     6.0000    0    12.011   -5.716422   -0.982658   -0.090707
  25 C     6.0000    0    12.011   -8.356369   -6.738763    2.031456
  26 N     7.0000    0    14.007  -12.107475   -8.150389    0.001890
  27 C     6.0000    0    12.011   -5.417845   -3.632054   -0.075589
  28 C     6.0000    0    12.011   -3.118048   -4.958641   -0.051023
  29 C     6.0000    0    12.011    6.742543  -11.606698   -1.965315
  30 C     6.0000    0    12.011   -2.789236   -7.651501   -0.064251
  31 C     6.0000    0    12.011    5.296902   -7.745987   -0.015118
  32 C     6.0000    0    12.011    6.910728   -8.284559    2.020117
  33 C     6.0000    0    12.011    8.365818  -10.450186    2.001220
  34 C     6.0000    0    12.011    9.911614  -14.339242    0.026456
  35 C     6.0000    0    12.011   -0.253223   -8.154168   -0.041574
  36 C     6.0000    0    12.011    1.073364   -5.790121   -0.051023
  37 C     6.0000    0    12.011    5.243990   -9.471307   -2.029566
  38 N     7.0000    0    14.007    8.269442  -12.077240    0.032125
  39 C     6.0000    0    12.011    3.701973   -5.421624   -0.017008
  40 C     6.0000    0    12.011    4.952972   -3.065136    0.017008
  41 C     6.0000    0    12.011   10.474752    8.199522   -2.135391
  42 C     6.0000    0    12.011    7.691185   -2.794905   -0.177634
  43 C     6.0000    0    12.011    7.755436    5.198637   -0.039684
  44 C     6.0000    0    12.011    9.499653    5.157063    1.957756
  45 C     6.0000    0    12.011   11.652051    6.631049    1.848152
  46 C     6.0000    0    12.011   14.397823    9.737759   -0.217319
  47 C     6.0000    0    12.011    8.165507   -0.279679   -0.173855
  48 C     6.0000    0    12.011    5.716422    0.971319    0.028346
  49 C     6.0000    0    12.011    8.290229    6.768999   -2.107045
  50 C     6.0000    0    12.011    5.415955    3.620715    0.024566
  51 N     7.0000    0    14.007   12.118814    8.118263   -0.179524
  52 H     1.0000    0     1.008   -9.427844   11.062457    3.758665
  53 H     1.0000    0     1.008    4.297237    9.006435    0.153068
  54 H     1.0000    0     1.008   -4.259443    9.004545   -3.667958
  55 H     1.0000    0     1.008   -6.967420   12.844469   -3.469537
  56 H     1.0000    0     1.008   -8.605813   15.964406    0.837149
  57 H     1.0000    0     1.008  -10.487980   14.783328   -1.712092
  58 H     1.0000    0     1.008  -11.379931   14.140821    1.477766
  59 H     1.0000    0     1.008   -0.627389    9.981533    0.130391
  60 H     1.0000    0     1.008   -6.816242    7.154503    3.860710
  61 H     1.0000    0     1.008    0.343930    2.025786    0.009449
  62 H     1.0000    0     1.008   -0.345820   -2.040904   -0.039684
  63 H     1.0000    0     1.008  -11.081354   -9.376821    3.581031
  64 H     1.0000    0     1.008   -9.059347    4.293458    0.262672
  65 H     1.0000    0     1.008   -9.070685   -4.081808   -3.768114
  66 H     1.0000    0     1.008  -12.927616   -6.768999   -3.577252
  67 H     1.0000    0     1.008  -15.926612   -8.571798    1.031790
  68 H     1.0000    0     1.008  -15.034661  -10.085468   -1.853821
  69 H     1.0000    0     1.008  -14.089798  -11.408277    1.103600
  70 H     1.0000    0     1.008   -9.990982   -0.650066    0.188973
  71 H     1.0000    0     1.008   -7.143165   -6.804904    3.679297
  72 H     1.0000    0     1.008    6.778448  -12.978639   -3.482765
  73 H     1.0000    0     1.008   -4.301017   -9.021553   -0.094486
  74 H     1.0000    0     1.008    7.018443   -7.037340    3.639613
  75 H     1.0000    0     1.008    9.622485  -10.950963    3.535678
  76 H     1.0000    0     1.008   11.725751  -13.849803   -0.829590
  77 H     1.0000    0     1.008   10.191293  -14.960962    1.969095
  78 H     1.0000    0     1.008    8.993207  -15.822677   -1.065806
  79 H     1.0000    0     1.008    0.621720   -9.996651   -0.015118
  80 H     1.0000    0     1.008    4.055352   -9.150054   -3.666069
  81 H     1.0000    0     1.008   10.975529    9.422175   -3.696304
  82 H     1.0000    0     1.008    9.048009   -4.310465   -0.349599
  83 H     1.0000    0     1.008    9.184069    3.994881    3.613156
  84 H     1.0000    0     1.008   13.041000    6.672623    3.348595
  85 H     1.0000    0     1.008   13.951848   11.544337    0.672743
  86 H     1.0000    0     1.008   15.900156    8.791006    0.822031
  87 H     1.0000    0     1.008   14.968521   10.034446   -2.173185
  88 H     1.0000    0     1.008    9.983423    0.634948   -0.338261
  89 H     1.0000    0     1.008    7.029781    6.863485   -3.717091

--------------------------------
INTERNAL COORDINATES (ANGSTROEM)
--------------------------------
 C      0   0   0     0.000000000000     0.00000000     0.00000000
 C      1   0   0     6.130126752360     0.00000000     0.00000000
 C      1   2   0     2.413181717153    31.91065093     0.00000000
 C      3   1   2     1.403363103406    87.93359688   268.94357864
 C      4   3   1     1.381178482311   120.13596029     0.10819667
 C      5   4   3     2.447856409187   152.51374705     1.70982740
 C      2   1   3     1.368114030335    10.71025902    35.10821146
 C      7   2   3     1.434084376876   108.05010202     0.84668783
 C      2   1   3     1.434123425651   111.54545611   321.28408612
 C      1   2   3     1.381308799653    42.29629798    48.32834122
 N      1   2   3     1.352314682313    91.08744553   270.62953940
 N      9   2   1     1.376127174356   106.58526707    10.06822492
 N     12   9   2     2.925062050624   168.53581413   171.12065651
 N     13  12   9     2.954513327098    91.55032014    11.12112580
 N     14  13  12     2.925371258490    88.43092389   359.84326247
 C      8   7   2     1.404790019896   127.24786865   181.11170171
 C     13  12   9     1.366535034311    81.72106996   188.00453233
 C     14  13  12     5.758810554272    80.56209567   166.76250791
 C     17  13  12     1.459010623676   111.08861209   183.82872609
 C     18  14  13     2.412235892279    27.27532823    36.33507194
 C     20  18  14     1.402692767501    87.95206320   148.94598259
 C     21  20  18     1.382106725257   120.14573887   359.70382047
 C     18  14  13     2.446510985056   144.15733107    82.80075377
 C     19  17  13     1.353610726908   106.29293361   359.75308708
 C     13  12   9     1.366813447402   172.21332906    33.46711076
 C     18  14  13     1.380960173213    15.08449437   309.23336894
 N     22  21  20     1.352773077792   120.73759875     0.27865223
 C     25  13  17     1.410897586645   125.60330303   182.37774668
 C     14  13  12     1.376642291955    80.24689249   177.85461986
 C     14  13  12     5.764089607215   164.51507311   312.20821879
 C     29  14  13     1.435600919476   106.58649366   178.76395472
 C     30  14  13     2.413316804732    27.10625047    82.12560436
 C     32  30  14     1.403734305344    87.90059683   149.76154742
 C     33  32  30     1.380694028378   120.14881443   359.74174632
 C     34  33  32     2.448777858443   152.49203239     2.45173620
 C     31  29  14     1.368160809262   108.16950133     0.70383075
 C     14  13  12     1.376239804685   169.26375223   353.09862627
 C     30  14  13     1.380907310430    14.68948582   353.70041132
 N     34  33  32     1.352658863128   120.85575621     0.19603406
 C     37  14  29     1.404717053360   126.01551127   180.90772073
 C     15  14  13     1.366491126938    81.61824056   183.09049352
 C      2   1   3     4.249062720177   160.75352055   124.04441279
 C     41  15  14     1.459677704153   111.05201287   175.08990246
 C     42   2   1     2.412953791518    41.78584867   172.38103730
 C     44  42   2     1.403446472082    87.95153797   233.97558675
 C     45  44  42     1.381696421071   120.11137308     0.19721020
 C     42   2   1     2.450019795838   135.97209175    82.69588640
 C     43  41  15     1.354461516618   106.26758155     0.30894352
 C     15  14  13     1.367461151185   171.87382904   332.35056460
 C     42   2   1     1.381886391857    32.59078432   221.23631649
 C      9   2   1     1.404988612053   126.98745415   191.07256245
 N     42   2   1     1.352765315936   113.57249190   110.43247559
 H      1   2   3     1.082997691595   139.11669665   135.81460754
 H      2   1   3     1.079907866440   122.28592552   152.06834923
 H      4   3   1     1.082914585736   121.09739096   179.55782015
 H      5   4   3     1.082305871739   122.78670333   179.41814717
 H      6   5   4     1.092350676294   104.44231879   100.04599753
 H      6   5   4     1.090292621272    84.65899084   209.50707521
 H      6   5   4     1.089624706034   133.85802616   322.21376476
 H      7   2  54     1.079807853278   126.66122480     1.30600390
 H     10   1   2     1.084758959401   118.73537414   129.36732655
 H     12   9   2     1.016297692608   125.29023241   180.00180175
 H     14  13  12     1.014936943854    44.97226959   359.42596618
 H     18  14  13     1.082871645210   128.03556573   234.20482432
 H     19  17  13     1.080893611786   126.41830519   178.11313280
 H     21  20  18     1.083569563987   121.05669627   180.67006309
 H     22  21  20     1.082483256222   122.73097286   180.59748951
 H     23  18  14     1.092105306278   103.92715769   234.93429879
 H     23  18  14     1.088871893291   134.19244188    12.25587044
 H     23  18  14     1.089833473518    84.85857450   125.45241208
 H     24  19  17     1.080075460327   127.28078426   178.44613241
 H     26  18  14     1.083408048706   118.76995697   244.94906660
 H     30  14  13     1.082703098730   127.99711412   279.66882698
 H     31  29  14     1.079759695488   125.22293469   180.92530585
 H     33  32  30     1.083188810873   121.01964473   180.74284758
 H     34  33  32     1.082494341787   122.70821597   180.59516895
 H     35  34  33     1.092652735319   105.73575241    97.19771933
 H     35  34  33     1.089462711615    84.05943581   206.43036958
 H     35  34  33     1.089268102902   133.08365142   318.50306270
 H     36  31  29     1.079439669458   126.61599965   178.98859863
 H     38  30  73     1.083742127999   118.77264435   359.90091293
 H     42   2   1     1.082178358682   119.31790784   327.06400605
 H     43  41  15     1.080281907652   126.36969097   182.06329380
 H     45  44  42     1.083277434455   121.10105945   179.58025624
 H     46  45  44     1.082194529648   122.72144639   179.46906377
 H     47  42   2     1.091546151109   106.65128841   315.16475048
 H     47  42   2     1.088818625851   132.46019523    94.52397119
 H     47  42   2     1.089531091801    83.63838232   206.04504406
 H     48  43  41     1.080402239909   127.23657387   181.62955349
 H     50  42   2     1.083186502870   118.77001737    94.71359229

---------------------------
INTERNAL COORDINATES (A.U.)
---------------------------
 C      0   0   0     0.000000000000     0.00000000     0.00000000
 C      1   0   0    11.584260728185     0.00000000     0.00000000
 C      1   2   0     4.560252556804    31.91065093     0.00000000
 C      3   1   2     2.651971931886    87.93359688   268.94357864
 C      4   3   1     2.610049073634   120.13596029     0.10819667
 C      5   4   3     4.625778228528   152.51374705     1.70982740
 C      2   1   3     2.585360837309    10.71025902    35.10821146
 C      7   2   3     2.710026725231   108.05010202     0.84668783
 C      2   1   3     2.710100516721   111.54545611   321.28408612
 C      1   2   3     2.610295337720    42.29629798    48.32834122
 N      1   2   3     2.555504396453    91.08744553   270.62953940
 N      9   2   1     2.600503484979   106.58526707    10.06822492
 N     12   9   2     5.527566200405   168.53581413   171.12065651
 N     13  12   9     5.583221047236    91.55032014    11.12112580
 N     14  13  12     5.528150518591    88.43092389   359.84326247
 C      8   7   2     2.654668413270   127.24786865   181.11170171
 C     13  12   9     2.582376967257    81.72106996   188.00453233
 C     14  13  12    10.882574804710    80.56209567   166.76250791
 C     17  13  12     2.757130505230   111.08861209   183.82872609
 C     18  14  13     4.558465206823    27.27532823    36.33507194
 C     20  18  14     2.650705180609    87.95206320   148.94598259
 C     21  20  18     2.611803198586   120.14573887   359.70382047
 C     18  14  13     4.623235745386   144.15733107    82.80075377
 C     19  17  13     2.557953565794   106.29293361   359.75308708
 C     13  12   9     2.582903091751   172.21332906    33.46711076
 C     18  14  13     2.609636529225    15.08449437   309.23336894
 N     22  21  20     2.556370638369   120.73759875     0.27865223
 C     25  13  17     2.666210041769   125.60330303   182.37774668
 C     14  13  12     2.601476916169    80.24689249   177.85461986
 C     14  13  12    10.892550769017   164.51507311   312.20821879
 C     29  14  13     2.712892575415   106.58649366   178.76395472
 C     30  14  13     4.560507835333    27.10625047    82.12560436
 C     32  30  14     2.652673401891    87.90059683   149.76154742
 C     33  32  30     2.609133588376   120.14881443   359.74174632
 C     34  33  32     4.627519515267   152.49203239     2.45173620
 C     31  29  14     2.585449236669   108.16950133     0.70383075
 C     14  13  12     2.600716325456   169.26375223   353.09862627
 C     30  14  13     2.609536633043    14.68948582   353.70041132
 N     34  33  32     2.556154803934   120.85575621     0.19603406
 C     37  14  29     2.654530526499   126.01551127   180.90772073
 C     15  14  13     2.582293994346    81.61824056   183.09049352
 C      2   1   3     8.029564866989   160.75352055   124.04441279
 C     41  15  14     2.758391104639   111.05201287   175.08990246
 C     42   2   1     4.559821839776    41.78584867   172.38103730
 C     44  42   2     2.652129475853    87.95153797   233.97558675
 C     45  44  42     2.611027836043   120.11137308     0.19721020
 C     42   2   1     4.629866436820   135.97209175    82.69588640
 C     43  41  15     2.559561325344   106.26758155     0.30894352
 C     15  14  13     2.584127074516   171.87382904   332.35056460
 C     42   2   1     2.611386828803    32.59078432   221.23631649
 C      9   2   1     2.655043698059   126.98745415   191.07256245
 N     42   2   1     2.556355970587   113.57249190   110.43247559
 H      1   2   3     2.046569040783   139.11669665   135.81460754
 H      2   1   3     2.040730117440   122.28592552   152.06834923
 H      4   3   1     2.046411993470   121.09739096   179.55782015
 H      5   4   3     2.045261690721   122.78670333   179.41814717
 H      6   5   4     2.064243620399   104.44231879   100.04599753
 H      6   5   4     2.060354460039    84.65899084   209.50707521
 H      6   5   4     2.059092283159   133.85802616   322.21376476
 H      7   2  54     2.040541119952   126.66122480     1.30600390
 H     10   1   2     2.049897354585   118.73537414   129.36732655
 H     12   9   2     1.920524309565   125.29023241   180.00180175
 H     14  13  12     1.917952867083    44.97226959   359.42596618
 H     18  14  13     2.046330847636   128.03556573   234.20482432
 H     19  17  13     2.042592906181   126.41830519   178.11313280
 H     21  20  18     2.047649722989   121.05669627   180.67006309
 H     22  21  20     2.045596898814   122.73097286   180.59748951
 H     23  18  14     2.063779938267   103.92715769   234.93429879
 H     23  18  14     2.057669673245   134.19244188    12.25587044
 H     23  18  14     2.059486796529    84.85857450   125.45241208
 H     24  19  17     2.041046823986   127.28078426   178.44613241
 H     26  18  14     2.047344503340   118.76995697   244.94906660
 H     30  14  13     2.046012340948   127.99711412   279.66882698
 H     31  29  14     2.040450114918   125.22293469   180.92530585
 H     33  32  30     2.046930203877   121.01964473   180.74284758
 H     34  33  32     2.045617847496   122.70821597   180.59516895
 H     35  34  33     2.064814429233   105.73575241    97.19771933
 H     35  34  33     2.058786158072    84.05943581   206.43036958
 H     35  34  33     2.058418400901   133.08365142   318.50306270
 H     36  31  29     2.039845353366   126.61599965   178.98859863
 H     38  30  73     2.047975821711   118.77264435   359.90091293
 H     42   2   1     2.045020725966   119.31790784   327.06400605
 H     43  41  15     2.041436952892   126.36969097   182.06329380
 H     45  44  42     2.047097678177   121.10105945   179.58025624
 H     46  45  44     2.045051284662   122.72144639   179.46906377
 H     47  42   2     2.062723288131   106.65128841   315.16475048
 H     47  42   2     2.057569012371   132.46019523    94.52397119
 H     47  42   2     2.058915377895    83.63838232   206.04504406
 H     48  43  41     2.041664347903   127.23657387   181.62955349
 H     50  42   2     2.046925842384   118.77001737    94.71359229

---------------------
BASIS SET INFORMATION
---------------------
There are 3 groups of distinct atoms

 Group   1 Type C   : 17s4p1d contracted to 3s2p1d pattern {881/31/1}
 Group   2 Type N   : 17s4p1d contracted to 3s2p1d pattern {881/31/1}
 Group   3 Type H   : 4s1p contracted to 2s1p pattern {31/1}

Atom   0C    basis set group =>   1
Atom   1N    basis set group =>   2
Atom   2C    basis set group =>   1
Atom   3N    basis set group =>   2
Atom   4C    basis set group =>   1
Atom   5N    basis set group =>   2
Atom   6C    basis set group =>   1
Atom   7N    basis set group =>   2
Atom   8C    basis set group =>   1
Atom   9N    basis set group =>   2
Atom  10C    basis set group =>   1
Atom  11N    basis set group =>   2
Atom  12C    basis set group =>   1
Atom  13N    basis set group =>   2
Atom  14C    basis set group =>   1
Atom  15N    basis set group =>   2
Atom  16C    basis set group =>   1
Atom  17C    basis set group =>   1
Atom  18C    basis set group =>   1
Atom  19C    basis set group =>   1
Atom  20C    basis set group =>   1
Atom  21C    basis set group =>   1
Atom  22C    basis set group =>   1
Atom  23C    basis set group =>   1
Atom  24C    basis set group =>   1
Atom  25C    basis set group =>   1
Atom  26C    basis set group =>   1
Atom  27C    basis set group =>   1
Atom  28C    basis set group =>   1
Atom  29C    basis set group =>   1
Atom  30C    basis set group =>   1
Atom  31C    basis set group =>   1
Atom  32C    basis set group =>   1
Atom  33C    basis set group =>   1
Atom  34C    basis set group =>   1
Atom  35C    basis set group =>   1
Atom  36C    basis set group =>   1
Atom  37C    basis set group =>   1
Atom  38C    basis set group =>   1
Atom  39C    basis set group =>   1
Atom  40C    basis set group =>   1
Atom  41C    basis set group =>   1
Atom  42C    basis set group =>   1
Atom  43C    basis set group =>   1
Atom  44C    basis set group =>   1
Atom  45C    basis set group =>   1
Atom  46C    basis set group =>   1
Atom  47C    basis set group =>   1
Atom  48C    basis set group =>   1
Atom  49C    basis set group =>   1
Atom  50C    basis set group =>   1
Atom  51C    basis set group =>   1
Atom  52H    basis set group =>   3
Atom  53H    basis set group =>   3
Atom  54H    basis set group =>   3
Atom  55H    basis set group =>   3
Atom  56H    basis set group =>   3
Atom  57H    basis set group =>   3
Atom  58H    basis set group =>   3
Atom  59H    basis set group =>   3
Atom  60H    basis set group =>   3
Atom  61H    basis set group =>   3
Atom  62H    basis set group =>   3
Atom  63H    basis set group =>   3
Atom  64H    basis set group =>   3
Atom  65H    basis set group =>   3
Atom  66H    basis set group =>   3
Atom  67H    basis set group =>   3
Atom  68H    basis set group =>   3
Atom  69H    basis set group =>   3
Atom  70H    basis set group =>   3
Atom  71H    basis set group =>   3
Atom  72H    basis set group =>   3
Atom  73H    basis set group =>   3
Atom  74H    basis set group =>   3
Atom  75H    basis set group =>   3
Atom  76H    basis set group =>   3
Atom  77H    basis set group =>   3
Atom  78H    basis set group =>   3
Atom  79H    basis set group =>   3
Atom  80H    basis set group =>   3
Atom  81H    basis set group =>   3
Atom  82H    basis set group =>   3
Atom  83H    basis set group =>   3
Atom  84H    basis set group =>   3
Atom  85H    basis set group =>   3
Atom  86H    basis set group =>   3
Atom  87H    basis set group =>   3
Atom  88H    basis set group =>   3
Atom  89H    basis set group =>   3


           ************************************************************
           *        Program running with 16 parallel MPI-processes    *
           *              working on a common directory               *
           ************************************************************
------------------------------------------------------------------------------
                           ORCA GTO INTEGRAL CALCULATION
------------------------------------------------------------------------------
------------------------------------------------------------------------------
                   ___                                                        
                  /   \      - P O W E R E D   B Y -                         
                 /     \                                                     
                 |  |  |   _    _      __       _____    __    __             
                 |  |  |  | |  | |    /  \     |  _  \  |  |  /  |          
                  \  \/   | |  | |   /    \    | | | |  |  | /  /          
                 / \  \   | |__| |  /  /\  \   | |_| |  |  |/  /          
                |  |  |   |  __  | /  /__\  \  |    /   |      \           
                |  |  |   | |  | | |   __   |  |    \   |  |\   \          
                \     /   | |  | | |  |  |  |  | |\  \  |  | \   \       
                 \___/    |_|  |_| |__|  |__|  |_| \__\ |__|  \__/        
                                                                              
                      - O R C A' S   B I G   F R I E N D -                    
                                      &                                       
                       - I N T E G R A L  F E E D E R -                       
                                                                              
 v1 FN, 2020, v2 2021                                                         
------------------------------------------------------------------------------


Reading SHARK input file /scratch/allen/tmpyp4_amber_gaff2/conf1/conf1/Conf250.orca.SHARKINP.tmp ... ok
----------------------
SHARK INTEGRAL PACKAGE
----------------------

Number of atoms                             ...     90
Number of basis functions                   ...   1230
Number of shells                            ...    738
Maximum angular momentum                    ...      2
Integral batch strategy                     ... SHARK/LIBINT Hybrid
RI-J (if used) integral strategy            ... SPLIT-RIJ (Revised 2003 algorithm where possible)
Printlevel                                  ...      1
Contraction scheme used                     ... PARTIAL GENERAL contraction
Coulomb Range Separation                    ... NOT USED
Exchange Range Separation                   ... NOT USED
Finite Nucleus Model                        ... NOT USED
Auxiliary Coulomb fitting basis             ... NOT available
Auxiliary J/K fitting basis                 ... NOT available
Auxiliary Correlation fitting basis         ... NOT available
Auxiliary 'external' fitting basis          ... NOT available
Integral threshold                          ...     2.500000e-11
Primitive cut-off                           ...     2.500000e-12
Primitive pair pre-selection threshold      ...     2.500000e-12

Calculating pre-screening integrals         ... done (  0.1 sec) Dimension = 738
Calculating pre-screening integrals (ORCA)  ... done (  0.3 sec) Dimension = 426
Organizing shell pair data                  ... done (  0.7 sec)
Shell pair information
Total number of shell pairs                 ...    272691
Shell pairs after pre-screening             ...     71598
Total number of primitive shell pairs       ...    422091
Primitive shell pairs kept                  ...     92346
          la=0 lb=0:  29413 shell pairs
          la=1 lb=0:  25964 shell pairs
          la=1 lb=1:   4685 shell pairs
          la=2 lb=0:   7878 shell pairs
          la=2 lb=1:   3127 shell pairs
          la=2 lb=2:    531 shell pairs

Calculating one electron integrals          ... done (  0.2 sec)
Calculating Nuclear repulsion               ... done (  0.0 sec) ENN=   6223.503601582184 Eh

SHARK setup successfully completed in   2.4 seconds

Maximum memory used throughout the entire GTOINT-calculation: 99.0 MB


           ************************************************************
           *        Program running with 16 parallel MPI-processes    *
           *              working on a common directory               *
           ************************************************************
-------------------------------------------------------------------------------
                                 ORCA SCF
-------------------------------------------------------------------------------

------------
SCF SETTINGS
------------
Hamiltonian:
 Ab initio Hamiltonian  Method          .... Hartree-Fock(GTOs)


General Settings:
 Integral files         IntName         .... /scratch/allen/tmpyp4_amber_gaff2/conf1/conf1/Conf250.orca
 Hartree-Fock type      HFTyp           .... RHF
 Total Charge           Charge          ....    0
 Multiplicity           Mult            ....    1
 Number of Electrons    NEL             ....  358
 Basis Dimension        Dim             ....  918
 Nuclear Repulsion      ENuc            ....   6223.5036015822 Eh

Convergence Acceleration:
 DIIS                   CNVDIIS         .... on
   Start iteration      DIISMaxIt       ....    12
   Startup error        DIISStart       ....  0.200000
   # of expansion vecs  DIISMaxEq       ....     5
   Bias factor          DIISBfac        ....   1.050
   Max. coefficient     DIISMaxC        ....  10.000
 Trust-Rad. Augm. Hess. CNVTRAH         .... auto
   Auto Start mean grad. ratio tolernc. ....  1.125000
   Auto Start start iteration           ....    20
   Auto Start num. interpolation iter.  ....    10
   Max. Number of Micro iterations      ....    16
   Max. Number of Macro iterations      .... Maxiter - #DIIS iter
   Number of Davidson start vectors     ....     2
   Converg. threshold I  (grad. norm)   ....   1.000e-05
   Converg. threshold II (energy diff.) ....   1.000e-08
   Grad. Scal. Fac. for Micro threshold ....   0.100
   Minimum threshold for Micro iter.    ....   0.010
   NR start threshold (gradient norm)   ....   0.001
   Initial trust radius                 ....   0.400
   Minimum AH scaling param. (alpha)    ....   1.000
   Maximum AH scaling param. (alpha)    .... 1000.000
   Orbital update algorithm             .... Taylor
   White noise on init. David. guess    .... on
   Maximum white noise                  ....   0.010
   Quad. conv. algorithm                .... NR
 SOSCF                  CNVSOSCF        .... on
   Start iteration      SOSCFMaxIt      ....   150
   Startup grad/error   SOSCFStart      ....  0.003300
 Level Shifting         CNVShift        .... on
   Level shift para.    LevelShift      ....    0.2500
   Turn off err/grad.   ShiftErr        ....    0.0010
 Zerner damping         CNVZerner       .... off
 Static damping         CNVDamp         .... on
   Fraction old density DampFac         ....    0.7000
   Max. Damping (<1)    DampMax         ....    0.9800
   Min. Damping (>=0)   DampMin         ....    0.0000
   Turn off err/grad.   DampErr         ....    0.1000
 Fernandez-Rico         CNVRico         .... off

SCF Procedure:
 Maximum # iterations   MaxIter         ....   125
 SCF integral mode      SCFMode         .... Direct
   Integral package                     .... SHARK and LIBINT hybrid scheme
 Reset frequency        DirectResetFreq ....    20
 Integral Threshold     Thresh          ....  2.500e-11 Eh
 Primitive CutOff       TCut            ....  2.500e-12 Eh

Convergence Tolerance:
 Convergence Check Mode ConvCheckMode   .... Total+1el-Energy
 Convergence forced     ConvForced      .... 1
 Energy Change          TolE            ....  1.000e-08 Eh
 1-El. energy change                    ....  1.000e-05 Eh
 Orbital Gradient       TolG            ....  1.000e-05
 Orbital Rotation angle TolX            ....  1.000e-05
 DIIS Error             TolErr          ....  5.000e-07


Diagonalization of the overlap matrix:
Smallest eigenvalue                        ... 2.256e-04
Time for diagonalization                   ...    0.476 sec
Threshold for overlap eigenvalues          ... 1.000e-08
Number of eigenvalues below threshold      ... 0
Time for construction of square roots      ...    0.265 sec
Total time needed                          ...    0.748 sec

Time for model grid setup =    1.314 sec

------------------------------
INITIAL GUESS: MODEL POTENTIAL
------------------------------
Loading Hartree-Fock densities                     ... done
Calculating cut-offs                               ... done
Initializing the effective Hamiltonian             ... done
Setting up the integral package (SHARK)            ... done
Starting the Coulomb interaction                   ... done (   1.4 sec)
Reading the grid                                   ... done
Mapping shells                                     ... done
Starting the XC term evaluation                    ... done (   0.2 sec)
Transforming the Hamiltonian                       ... done (   0.3 sec)
Diagonalizing the Hamiltonian                      ... done (   0.4 sec)
Back transforming the eigenvectors                 ... done (   0.1 sec)
Now organizing SCF variables                       ... done
                      ------------------
                      INITIAL GUESS DONE (   3.8 sec)
                      ------------------
--------------
SCF ITERATIONS
--------------
ITER       Energy         Delta-E        Max-DP      RMS-DP      [F,P]     Damp
               ***  Starting incremental Fock matrix formation  ***
  0  -2121.6550098385   0.000000000000 0.06922358  0.00121283  0.2339999 0.7000
  1  -2122.3232001088  -0.668190270304 0.05256938  0.00098387  0.1446769 0.7000
                               ***Turning on DIIS***
  2  -2122.7384988666  -0.415298757751 0.11683190  0.00222632  0.0803339 0.0000
  3  -2117.6923543958   5.046144470734 0.03215754  0.00068912  0.0444189 0.0000
  4  -2123.4011248031  -5.708770407231 0.00889030  0.00023045  0.0070518 0.0000
  5  -2123.5832114873  -0.182086684277 0.00513510  0.00013785  0.0049928 0.0000
  6  -2123.5656659604   0.017545526951 0.00345757  0.00009152  0.0020798 0.0000
  7  -2123.6728336889  -0.107167728471 0.00297588  0.00007445  0.0015633 0.0000
  8  -2123.6988443870  -0.026010698106 0.00275988  0.00007256  0.0014503 0.0000
  9  -2123.6590110500   0.039833337003 0.00241853  0.00005086  0.0011284 0.0000
 10  -2123.6797966823  -0.020785632341 0.00574491  0.00010831  0.0008453 0.0000
                      *** Initiating the SOSCF procedure ***
                           *** Shutting down DIIS ***
                      *** Re-Reading the Fockian *** 
                      *** Removing any level shift *** 
ITER      Energy       Delta-E        Grad      Rot      Max-DP    RMS-DP
 11  -2123.53282767   0.1469690086  0.000321  0.000321  0.000278  0.000007
               *** Restarting incremental Fock matrix formation ***
 12  -2123.61652358  -0.0836959110  0.001052  0.007309  0.001409  0.000034
 13  -2123.61662777  -0.0001041869  0.001201  0.031103  0.006123  0.000116
 14  -2123.61677288  -0.0001451067  0.000450  0.002172  0.000549  0.000013
 15  -2123.61679093  -0.0000180478  0.000281  0.004834  0.000870  0.000021
 16  -2123.61680282  -0.0000118971  0.000158  0.004289  0.000953  0.000021
 17  -2123.61681146  -0.0000086326  0.000236  0.006076  0.000963  0.000022
 18  -2123.61681823  -0.0000067734  0.000146  0.005621  0.000843  0.000020
 19  -2123.61682311  -0.0000048855  0.000145  0.002658  0.000502  0.000009
 20  -2123.61682485  -0.0000017324  0.000070  0.001358  0.000311  0.000006
 21  -2123.61682554  -0.0000006923  0.000052  0.000508  0.000151  0.000003
 22  -2123.61682599  -0.0000004524  0.000038  0.000758  0.000199  0.000003
 23  -2123.61682628  -0.0000002901  0.000026  0.000749  0.000126  0.000003
 24  -2123.61682639  -0.0000001056  0.000013  0.000458  0.000066  0.000001
 25  -2123.61682643  -0.0000000453  0.000012  0.000243  0.000043  0.000001
 26  -2123.61682646  -0.0000000232  0.000011  0.000240  0.000039  0.000001
 27  -2123.61682646  -0.0000000072  0.000007  0.000261  0.000039  0.000001
 28  -2123.61682647  -0.0000000039  0.000005  0.000212  0.000033  0.000001
 29  -2123.61682647  -0.0000000011  0.000003  0.000105  0.000017  0.000000
                  ***Gradient check signals convergence***
              ***Rediagonalizing the Fockian in SOSCF/NRSCF***

               *****************************************************
               *                     SUCCESS                       *
               *           SCF CONVERGED AFTER  30 CYCLES          *
               *****************************************************


----------------
TOTAL SCF ENERGY
----------------

Total Energy       :        -2123.61682646 Eh          -57786.55166 eV

Components:
Nuclear Repulsion  :         6223.50360158 Eh          169350.14259 eV
Electronic Energy  :        -8347.12042805 Eh         -227136.69425 eV
One Electron Energy:       -15288.33980204 Eh         -416016.87590 eV
Two Electron Energy:         6941.21937400 Eh          188880.18165 eV

Virial components:
Potential Energy   :        -4245.60639223 Eh         -115528.82330 eV
Kinetic Energy     :         2121.98956577 Eh           57742.27164 eV
Virial Ratio       :            2.00076686


---------------
SCF CONVERGENCE
---------------

  Last Energy change         ...    4.8931e-09  Tolerance :   1.0000e-08
  Last MAX-Density change    ...    7.4221e-06  Tolerance :   1.0000e-07
  Last RMS-Density change    ...    1.7008e-07  Tolerance :   5.0000e-09
  Last Orbital Gradient      ...    1.9382e-06  Tolerance :   1.0000e-05
  Last Orbital Rotation      ...    4.2775e-05  Tolerance :   1.0000e-05

             **** THE GBW FILE WAS UPDATED (/scratch/allen/tmpyp4_amber_gaff2/conf1/conf1/Conf250.orca.gbw) ****
             **** DENSITY /scratch/allen/tmpyp4_amber_gaff2/conf1/conf1/Conf250.orca.scfp WAS UPDATED ****
             **** ENERGY FILE WAS UPDATED (/scratch/allen/tmpyp4_amber_gaff2/conf1/conf1/Conf250.orca.en.tmp) ****
             **** THE GBW FILE WAS UPDATED (/scratch/allen/tmpyp4_amber_gaff2/conf1/conf1/Conf250.orca.gbw) ****
             **** DENSITY /scratch/allen/tmpyp4_amber_gaff2/conf1/conf1/Conf250.orca.scfp WAS UPDATED ****
----------------
ORBITAL ENERGIES
----------------

  NO   OCC          E(Eh)            E(eV) 
   0   2.0000     -15.659880      -426.1270 
   1   2.0000     -15.638193      -425.5369 
   2   2.0000     -15.626189      -425.2102 
   3   2.0000     -15.611657      -424.8148 
   4   2.0000     -15.517741      -422.2592 
   5   2.0000     -15.512745      -422.1233 
   6   2.0000     -15.446582      -420.3229 
   7   2.0000     -15.436814      -420.0571 
   8   2.0000     -11.315222      -307.9028 
   9   2.0000     -11.311521      -307.8021 
  10   2.0000     -11.310650      -307.7784 
  11   2.0000     -11.301959      -307.5419 
  12   2.0000     -11.295142      -307.3564 
  13   2.0000     -11.294306      -307.3337 
  14   2.0000     -11.291725      -307.2635 
  15   2.0000     -11.285440      -307.0924 
  16   2.0000     -11.285223      -307.0865 
  17   2.0000     -11.281177      -306.9764 
  18   2.0000     -11.272676      -306.7451 
  19   2.0000     -11.269856      -306.6684 
  20   2.0000     -11.261174      -306.4321 
  21   2.0000     -11.248737      -306.0937 
  22   2.0000     -11.247947      -306.0722 
  23   2.0000     -11.241411      -305.8944 
  24   2.0000     -11.233366      -305.6754 
  25   2.0000     -11.232531      -305.6527 
  26   2.0000     -11.230420      -305.5953 
  27   2.0000     -11.224599      -305.4369 
  28   2.0000     -11.224355      -305.4302 
  29   2.0000     -11.217331      -305.2391 
  30   2.0000     -11.214199      -305.1539 
  31   2.0000     -11.213365      -305.1312 
  32   2.0000     -11.200265      -304.7747 
  33   2.0000     -11.200075      -304.7695 
  34   2.0000     -11.191423      -304.5341 
  35   2.0000     -11.191174      -304.5273 
  36   2.0000     -11.180079      -304.2254 
  37   2.0000     -11.179489      -304.2094 
  38   2.0000     -11.177438      -304.1536 
  39   2.0000     -11.168926      -303.9219 
  40   2.0000     -11.164618      -303.8047 
  41   2.0000     -11.161868      -303.7299 
  42   2.0000     -11.160453      -303.6914 
  43   2.0000     -11.160393      -303.6897 
  44   2.0000     -11.157084      -303.5997 
  45   2.0000     -11.156941      -303.5958 
  46   2.0000     -11.152419      -303.4727 
  47   2.0000     -11.151210      -303.4399 
  48   2.0000     -11.150059      -303.4085 
  49   2.0000     -11.146657      -303.3160 
  50   2.0000     -11.131939      -302.9155 
  51   2.0000     -11.129667      -302.8536 
  52   2.0000      -1.342899       -36.5421 
  53   2.0000      -1.324794       -36.0495 
  54   2.0000      -1.314242       -35.7623 
  55   2.0000      -1.302088       -35.4316 
  56   2.0000      -1.217272       -33.1236 
  57   2.0000      -1.209706       -32.9178 
  58   2.0000      -1.165942       -31.7269 
  59   2.0000      -1.149891       -31.2901 
  60   2.0000      -1.127893       -30.6915 
  61   2.0000      -1.112375       -30.2693 
  62   2.0000      -1.103705       -30.0333 
  63   2.0000      -1.092425       -29.7264 
  64   2.0000      -1.065520       -28.9943 
  65   2.0000      -1.048567       -28.5329 
  66   2.0000      -1.038863       -28.2689 
  67   2.0000      -1.029998       -28.0277 
  68   2.0000      -1.027596       -27.9623 
  69   2.0000      -1.012774       -27.5590 
  70   2.0000      -1.006564       -27.3900 
  71   2.0000      -0.993847       -27.0440 
  72   2.0000      -0.981838       -26.7172 
  73   2.0000      -0.973912       -26.5015 
  74   2.0000      -0.971458       -26.4347 
  75   2.0000      -0.960374       -26.1331 
  76   2.0000      -0.948958       -25.8224 
  77   2.0000      -0.948361       -25.8062 
  78   2.0000      -0.932316       -25.3696 
  79   2.0000      -0.921612       -25.0783 
  80   2.0000      -0.895087       -24.3566 
  81   2.0000      -0.887277       -24.1440 
  82   2.0000      -0.875465       -23.8226 
  83   2.0000      -0.866110       -23.5680 
  84   2.0000      -0.861951       -23.4549 
  85   2.0000      -0.856271       -23.3003 
  86   2.0000      -0.850968       -23.1560 
  87   2.0000      -0.836469       -22.7615 
  88   2.0000      -0.822314       -22.3763 
  89   2.0000      -0.797140       -21.6913 
  90   2.0000      -0.795637       -21.6504 
  91   2.0000      -0.741930       -20.1890 
  92   2.0000      -0.733129       -19.9494 
  93   2.0000      -0.726979       -19.7821 
  94   2.0000      -0.722606       -19.6631 
  95   2.0000      -0.716368       -19.4934 
  96   2.0000      -0.710337       -19.3292 
  97   2.0000      -0.705535       -19.1986 
  98   2.0000      -0.699823       -19.0432 
  99   2.0000      -0.692855       -18.8535 
 100   2.0000      -0.690845       -18.7989 
 101   2.0000      -0.682025       -18.5589 
 102   2.0000      -0.679287       -18.4843 
 103   2.0000      -0.673110       -18.3163 
 104   2.0000      -0.669929       -18.2297 
 105   2.0000      -0.668840       -18.2000 
 106   2.0000      -0.663305       -18.0494 
 107   2.0000      -0.660529       -17.9739 
 108   2.0000      -0.657048       -17.8792 
 109   2.0000      -0.656049       -17.8520 
 110   2.0000      -0.650422       -17.6989 
 111   2.0000      -0.647752       -17.6262 
 112   2.0000      -0.643807       -17.5189 
 113   2.0000      -0.637941       -17.3593 
 114   2.0000      -0.633049       -17.2261 
 115   2.0000      -0.630915       -17.1681 
 116   2.0000      -0.623161       -16.9571 
 117   2.0000      -0.615778       -16.7562 
 118   2.0000      -0.613159       -16.6849 
 119   2.0000      -0.608482       -16.5576 
 120   2.0000      -0.606483       -16.5032 
 121   2.0000      -0.599265       -16.3068 
 122   2.0000      -0.597739       -16.2653 
 123   2.0000      -0.595784       -16.2121 
 124   2.0000      -0.592378       -16.1194 
 125   2.0000      -0.584158       -15.8958 
 126   2.0000      -0.576566       -15.6892 
 127   2.0000      -0.571141       -15.5416 
 128   2.0000      -0.567310       -15.4373 
 129   2.0000      -0.562681       -15.3113 
 130   2.0000      -0.555818       -15.1246 
 131   2.0000      -0.548397       -14.9226 
 132   2.0000      -0.539995       -14.6940 
 133   2.0000      -0.534721       -14.5505 
 134   2.0000      -0.532317       -14.4851 
 135   2.0000      -0.531053       -14.4507 
 136   2.0000      -0.524738       -14.2788 
 137   2.0000      -0.521639       -14.1945 
 138   2.0000      -0.518318       -14.1041 
 139   2.0000      -0.514689       -14.0054 
 140   2.0000      -0.509327       -13.8595 
 141   2.0000      -0.505879       -13.7657 
 142   2.0000      -0.503163       -13.6918 
 143   2.0000      -0.499826       -13.6010 
 144   2.0000      -0.498596       -13.5675 
 145   2.0000      -0.496210       -13.5026 
 146   2.0000      -0.493640       -13.4326 
 147   2.0000      -0.491929       -13.3861 
 148   2.0000      -0.486689       -13.2435 
 149   2.0000      -0.466414       -12.6918 
 150   2.0000      -0.461288       -12.5523 
 151   2.0000      -0.453101       -12.3295 
 152   2.0000      -0.447963       -12.1897 
 153   2.0000      -0.443770       -12.0756 
 154   2.0000      -0.441591       -12.0163 
 155   2.0000      -0.440234       -11.9794 
 156   2.0000      -0.431951       -11.7540 
 157   2.0000      -0.425424       -11.5764 
 158   2.0000      -0.395292       -10.7564 
 159   2.0000      -0.382195       -10.4001 
 160   2.0000      -0.374947       -10.2028 
 161   2.0000      -0.372846       -10.1457 
 162   2.0000      -0.367419        -9.9980 
 163   2.0000      -0.359037        -9.7699 
 164   2.0000      -0.350803        -9.5458 
 165   2.0000      -0.341368        -9.2891 
 166   2.0000      -0.338241        -9.2040 
 167   2.0000      -0.334849        -9.1117 
 168   2.0000      -0.322903        -8.7866 
 169   2.0000      -0.299891        -8.1604 
 170   2.0000      -0.295088        -8.0297 
 171   2.0000      -0.287044        -7.8109 
 172   2.0000      -0.285629        -7.7724 
 173   2.0000      -0.258878        -7.0444 
 174   2.0000      -0.242053        -6.5866 
 175   2.0000      -0.186268        -5.0686 
 176   2.0000      -0.176066        -4.7910 
 177   2.0000      -0.063509        -1.7282 
 178   2.0000      -0.052173        -1.4197 
 179   0.0000       0.033024         0.8986 
 180   0.0000       0.067126         1.8266 
 181   0.0000       0.092229         2.5097 
 182   0.0000       0.095830         2.6077 
 183   0.0000       0.120239         3.2719 
 184   0.0000       0.135107         3.6764 
 185   0.0000       0.143749         3.9116 
 186   0.0000       0.151972         4.1354 
 187   0.0000       0.154082         4.1928 
 188   0.0000       0.161643         4.3985 
 189   0.0000       0.162940         4.4338 
 190   0.0000       0.169321         4.6075 
 191   0.0000       0.176887         4.8133 
 192   0.0000       0.191605         5.2138 
 193   0.0000       0.194674         5.2974 
 194   0.0000       0.202293         5.5047 
 195   0.0000       0.206848         5.6286 
 196   0.0000       0.209076         5.6892 
 197   0.0000       0.213068         5.7979 
 198   0.0000       0.217283         5.9126 
 199   0.0000       0.220470         5.9993 
 200   0.0000       0.227114         6.1801 
 201   0.0000       0.237471         6.4619 
 202   0.0000       0.243031         6.6132 
 203   0.0000       0.244563         6.6549 
 204   0.0000       0.250520         6.8170 
 205   0.0000       0.253183         6.8895 
 206   0.0000       0.255349         6.9484 
 207   0.0000       0.261107         7.1051 
 208   0.0000       0.263247         7.1633 
 209   0.0000       0.265212         7.2168 
 210   0.0000       0.266445         7.2503 
 211   0.0000       0.269055         7.3214 
 212   0.0000       0.271735         7.3943 
 213   0.0000       0.273913         7.4536 
 214   0.0000       0.276330         7.5193 
 215   0.0000       0.279379         7.6023 
 216   0.0000       0.280906         7.6438 
 217   0.0000       0.283148         7.7049 
 218   0.0000       0.284291         7.7360 
 219   0.0000       0.288365         7.8468 
 220   0.0000       0.290768         7.9122 
 221   0.0000       0.291841         7.9414 
 222   0.0000       0.294590         8.0162 
 223   0.0000       0.295652         8.0451 
 224   0.0000       0.299199         8.1416 
 225   0.0000       0.301763         8.2114 
 226   0.0000       0.302777         8.2390 
 227   0.0000       0.306099         8.3294 
 228   0.0000       0.308488         8.3944 
 229   0.0000       0.311014         8.4631 
 230   0.0000       0.315371         8.5817 
 231   0.0000       0.317677         8.6444 
 232   0.0000       0.325548         8.8586 
 233   0.0000       0.328017         8.9258 
 234   0.0000       0.332748         9.0545 
 235   0.0000       0.341875         9.3029 
 236   0.0000       0.357770         9.7354 
 237   0.0000       0.380350        10.3498 
 238   0.0000       0.396598        10.7920 
 239   0.0000       0.400183        10.8895 
 240   0.0000       0.402757        10.9596 
 241   0.0000       0.411370        11.1939 
 242   0.0000       0.417297        11.3552 
 243   0.0000       0.422718        11.5027 
 244   0.0000       0.424535        11.5522 
 245   0.0000       0.431364        11.7380 
 246   0.0000       0.433527        11.7969 
 247   0.0000       0.438365        11.9285 
 248   0.0000       0.442552        12.0425 
 249   0.0000       0.445790        12.1306 
 250   0.0000       0.448347        12.2001 
 251   0.0000       0.454472        12.3668 
 252   0.0000       0.455850        12.4043 
 253   0.0000       0.460005        12.5174 
 254   0.0000       0.469920        12.7872 
 255   0.0000       0.477070        12.9817 
 256   0.0000       0.484087        13.1727 
 257   0.0000       0.485910        13.2223 
 258   0.0000       0.491441        13.3728 
 259   0.0000       0.492645        13.4056 
 260   0.0000       0.499236        13.5849 
 261   0.0000       0.503761        13.7080 
 262   0.0000       0.506422        13.7805 
 263   0.0000       0.510023        13.8784 
 264   0.0000       0.511828        13.9276 
 265   0.0000       0.516318        14.0497 
 266   0.0000       0.519491        14.1361 
 267   0.0000       0.523435        14.2434 
 268   0.0000       0.534276        14.5384 
 269   0.0000       0.539971        14.6933 
 270   0.0000       0.542201        14.7540 
 271   0.0000       0.543700        14.7948 
 272   0.0000       0.547365        14.8945 
 273   0.0000       0.552826        15.0432 
 274   0.0000       0.562968        15.3191 
 275   0.0000       0.564909        15.3719 
 276   0.0000       0.570981        15.5372 
 277   0.0000       0.576605        15.6902 
 278   0.0000       0.578380        15.7385 
 279   0.0000       0.583239        15.8707 
 280   0.0000       0.586827        15.9684 
 281   0.0000       0.591059        16.0835 
 282   0.0000       0.592860        16.1326 
 283   0.0000       0.597140        16.2490 
 284   0.0000       0.600693        16.3457 
 285   0.0000       0.601540        16.3687 
 286   0.0000       0.606694        16.5090 
 287   0.0000       0.610378        16.6092 
 288   0.0000       0.613012        16.6809 
 289   0.0000       0.615594        16.7512 
 290   0.0000       0.619450        16.8561 
 291   0.0000       0.628080        17.0909 
 292   0.0000       0.631704        17.1895 
 293   0.0000       0.638839        17.3837 
 294   0.0000       0.646075        17.5806 
 295   0.0000       0.650253        17.6943 
 296   0.0000       0.652143        17.7457 
 297   0.0000       0.658264        17.9123 
 298   0.0000       0.664260        18.0754 
 299   0.0000       0.667290        18.1579 
 300   0.0000       0.669367        18.2144 
 301   0.0000       0.672937        18.3115 
 302   0.0000       0.675310        18.3761 
 303   0.0000       0.682500        18.5718 
 304   0.0000       0.683717        18.6049 
 305   0.0000       0.687064        18.6960 
 306   0.0000       0.687746        18.7145 
 307   0.0000       0.688698        18.7404 
 308   0.0000       0.695945        18.9376 
 309   0.0000       0.698374        19.0037 
 310   0.0000       0.700917        19.0729 
 311   0.0000       0.706500        19.2248 
 312   0.0000       0.708220        19.2717 
 313   0.0000       0.709893        19.3172 
 314   0.0000       0.711040        19.3484 
 315   0.0000       0.713572        19.4173 
 316   0.0000       0.717983        19.5373 
 317   0.0000       0.719598        19.5812 
 318   0.0000       0.720050        19.5936 
 319   0.0000       0.722978        19.6732 
 320   0.0000       0.726863        19.7789 
 321   0.0000       0.728293        19.8179 
 322   0.0000       0.730337        19.8735 
 323   0.0000       0.735411        20.0115 
 324   0.0000       0.737417        20.0661 
 325   0.0000       0.740702        20.1555 
 326   0.0000       0.741924        20.1888 
 327   0.0000       0.742284        20.1986 
 328   0.0000       0.747869        20.3505 
 329   0.0000       0.750612        20.4252 
 330   0.0000       0.752725        20.4827 
 331   0.0000       0.756093        20.5743 
 332   0.0000       0.757327        20.6079 
 333   0.0000       0.760383        20.6911 
 334   0.0000       0.767110        20.8741 
 335   0.0000       0.769937        20.9511 
 336   0.0000       0.772632        21.0244 
 337   0.0000       0.778442        21.1825 
 338   0.0000       0.782912        21.3041 
 339   0.0000       0.788975        21.4691 
 340   0.0000       0.790412        21.5082 
 341   0.0000       0.793846        21.6017 
 342   0.0000       0.794597        21.6221 
 343   0.0000       0.797208        21.6931 
 344   0.0000       0.804947        21.9037 
 345   0.0000       0.806320        21.9411 
 346   0.0000       0.808605        22.0033 
 347   0.0000       0.809367        22.0240 
 348   0.0000       0.813311        22.1313 
 349   0.0000       0.817185        22.2367 
 350   0.0000       0.818211        22.2647 
 351   0.0000       0.821984        22.3673 
 352   0.0000       0.825858        22.4727 
 353   0.0000       0.827598        22.5201 
 354   0.0000       0.829079        22.5604 
 355   0.0000       0.831477        22.6256 
 356   0.0000       0.833032        22.6679 
 357   0.0000       0.834804        22.7162 
 358   0.0000       0.836538        22.7634 
 359   0.0000       0.839521        22.8445 
 360   0.0000       0.840165        22.8621 
 361   0.0000       0.844163        22.9708 
 362   0.0000       0.847071        23.0500 
 363   0.0000       0.848088        23.0777 
 364   0.0000       0.849033        23.1034 
 365   0.0000       0.849872        23.1262 
 366   0.0000       0.851942        23.1825 
 367   0.0000       0.854964        23.2647 
 368   0.0000       0.857725        23.3399 
 369   0.0000       0.858727        23.3671 
 370   0.0000       0.863400        23.4943 
 371   0.0000       0.865947        23.5636 
 372   0.0000       0.871509        23.7150 
 373   0.0000       0.873374        23.7657 
 374   0.0000       0.880469        23.9588 
 375   0.0000       0.883373        24.0378 
 376   0.0000       0.886024        24.1099 
 377   0.0000       0.887323        24.1453 
 378   0.0000       0.890681        24.2367 
 379   0.0000       0.891315        24.2539 
 380   0.0000       0.897096        24.4112 
 381   0.0000       0.899167        24.4676 
 382   0.0000       0.901570        24.5330 
 383   0.0000       0.902520        24.5588 
 384   0.0000       0.906037        24.6545 
 385   0.0000       0.907290        24.6886 
 386   0.0000       0.910007        24.7625 
 387   0.0000       0.911707        24.8088 
 388   0.0000       0.913661        24.8620 
 389   0.0000       0.916265        24.9328 
 390   0.0000       0.917473        24.9657 
 391   0.0000       0.921406        25.0727 
 392   0.0000       0.924578        25.1590 
 393   0.0000       0.925460        25.1830 
 394   0.0000       0.927165        25.2294 
 395   0.0000       0.930353        25.3162 
 396   0.0000       0.932277        25.3685 
 397   0.0000       0.934913        25.4403 
 398   0.0000       0.937725        25.5168 
 399   0.0000       0.943872        25.6841 
 400   0.0000       0.945000        25.7147 
 401   0.0000       0.947362        25.7790 
 402   0.0000       0.949604        25.8400 
 403   0.0000       0.951675        25.8964 
 404   0.0000       0.955513        26.0008 
 405   0.0000       0.956862        26.0375 
 406   0.0000       0.959597        26.1120 
 407   0.0000       0.963374        26.2147 
 408   0.0000       0.968416        26.3519 
 409   0.0000       0.973083        26.4789 
 410   0.0000       0.974810        26.5259 
 411   0.0000       0.976239        26.5648 
 412   0.0000       0.981862        26.7178 
 413   0.0000       0.991011        26.9668 
 414   0.0000       0.992253        27.0006 
 415   0.0000       0.993104        27.0237 
 416   0.0000       0.996987        27.1294 
 417   0.0000       1.002555        27.2809 
 418   0.0000       1.006965        27.4009 
 419   0.0000       1.013686        27.5838 
 420   0.0000       1.025492        27.9051 
 421   0.0000       1.030041        28.0288 
 422   0.0000       1.032549        28.0971 
 423   0.0000       1.035255        28.1707 
 424   0.0000       1.038669        28.2636 
 425   0.0000       1.048597        28.5338 
 426   0.0000       1.055836        28.7308 
 427   0.0000       1.063893        28.9500 
 428   0.0000       1.068264        29.0689 
 429   0.0000       1.074501        29.2387 
 430   0.0000       1.075807        29.2742 
 431   0.0000       1.082951        29.4686 
 432   0.0000       1.083960        29.4960 
 433   0.0000       1.091241        29.6942 
 434   0.0000       1.095420        29.8079 
 435   0.0000       1.101569        29.9752 
 436   0.0000       1.106766        30.1166 
 437   0.0000       1.113902        30.3108 
 438   0.0000       1.115512        30.3546 
 439   0.0000       1.118237        30.4288 
 440   0.0000       1.119810        30.4716 
 441   0.0000       1.122676        30.5496 
 442   0.0000       1.127377        30.6775 
 443   0.0000       1.132907        30.8280 
 444   0.0000       1.135516        30.8990 
 445   0.0000       1.136762        30.9329 
 446   0.0000       1.138357        30.9763 
 447   0.0000       1.140925        31.0461 
 448   0.0000       1.142287        31.0832 
 449   0.0000       1.148399        31.2495 
 450   0.0000       1.151699        31.3393 
 451   0.0000       1.153638        31.3921 
 452   0.0000       1.155543        31.4439 
 453   0.0000       1.160419        31.5766 
 454   0.0000       1.161832        31.6151 
 455   0.0000       1.166907        31.7531 
 456   0.0000       1.172452        31.9041 
 457   0.0000       1.175751        31.9938 
 458   0.0000       1.182560        32.1791 
 459   0.0000       1.186385        32.2832 
 460   0.0000       1.188694        32.3460 
 461   0.0000       1.190192        32.3868 
 462   0.0000       1.199301        32.6346 
 463   0.0000       1.206369        32.8270 
 464   0.0000       1.209068        32.9004 
 465   0.0000       1.211848        32.9760 
 466   0.0000       1.213881        33.0314 
 467   0.0000       1.220458        33.2104 
 468   0.0000       1.223627        33.2966 
 469   0.0000       1.227296        33.3964 
 470   0.0000       1.230467        33.4827 
 471   0.0000       1.231842        33.5201 
 472   0.0000       1.237246        33.6672 
 473   0.0000       1.239475        33.7278 
 474   0.0000       1.241269        33.7767 
 475   0.0000       1.247098        33.9353 
 476   0.0000       1.250771        34.0352 
 477   0.0000       1.252414        34.0799 
 478   0.0000       1.255715        34.1697 
 479   0.0000       1.258485        34.2451 
 480   0.0000       1.261757        34.3342 
 481   0.0000       1.264986        34.4220 
 482   0.0000       1.266156        34.4538 
 483   0.0000       1.267774        34.4979 
 484   0.0000       1.274105        34.6701 
 485   0.0000       1.278597        34.7924 
 486   0.0000       1.279828        34.8259 
 487   0.0000       1.282147        34.8890 
 488   0.0000       1.287900        35.0455 
 489   0.0000       1.291599        35.1462 
 490   0.0000       1.292879        35.1810 
 491   0.0000       1.295686        35.2574 
 492   0.0000       1.302159        35.4336 
 493   0.0000       1.308163        35.5969 
 494   0.0000       1.310700        35.6660 
 495   0.0000       1.315072        35.7849 
 496   0.0000       1.321921        35.9713 
 497   0.0000       1.322962        35.9996 
 498   0.0000       1.328408        36.1478 
 499   0.0000       1.332689        36.2643 
 500   0.0000       1.334203        36.3055 
 501   0.0000       1.339110        36.4390 
 502   0.0000       1.340648        36.4809 
 503   0.0000       1.342809        36.5397 
 504   0.0000       1.346091        36.6290 
 505   0.0000       1.349241        36.7147 
[...]
      pz      :     0.021869  p :     0.079416
      px      :     0.043072
      py      :     0.014475
 77 H s       :     0.892348  s :     0.892348
      pz      :     0.047371  p :     0.078609
      px      :     0.015007
      py      :     0.016231
 78 H s       :     0.892738  s :     0.892738
      pz      :     0.025574  p :     0.078536
      px      :     0.020632
      py      :     0.032330
 79 H s       :     0.908195  s :     0.908195
      pz      :     0.022363  p :     0.086985
      px      :     0.021839
      py      :     0.042783
 80 H s       :     0.875247  s :     0.875247
      pz      :     0.038507  p :     0.083628
      px      :     0.029688
      py      :     0.015433
 81 H s       :     0.887730  s :     0.887730
      pz      :     0.037670  p :     0.083595
      px      :     0.016101
      py      :     0.029824
 82 H s       :     0.914452  s :     0.914452
      pz      :     0.022254  p :     0.086998
      px      :     0.031157
      py      :     0.033587
 83 H s       :     0.872108  s :     0.872108
      pz      :     0.039245  p :     0.083848
      px      :     0.015240
      py      :     0.029363
 84 H s       :     0.887569  s :     0.887569
      pz      :     0.035820  p :     0.084050
      px      :     0.031772
      py      :     0.016459
 85 H s       :     0.894497  s :     0.894497
      pz      :     0.022510  p :     0.079686
      px      :     0.014109
      py      :     0.043066
 86 H s       :     0.890554  s :     0.890554
      pz      :     0.024721  p :     0.078893
      px      :     0.033008
      py      :     0.021165
 87 H s       :     0.890553  s :     0.890553
      pz      :     0.047901  p :     0.078663
      px      :     0.015632
      py      :     0.015130
 88 H s       :     0.916004  s :     0.916004
      pz      :     0.022256  p :     0.086871
      px      :     0.042273
      py      :     0.022342
 89 H s       :     0.873620  s :     0.873620
      pz      :     0.037859  p :     0.083967
      px      :     0.030495
      py      :     0.015613


                      *****************************
                      * MAYER POPULATION ANALYSIS *
                      *****************************

  NA   - Mulliken gross atomic population
  ZA   - Total nuclear charge
  QA   - Mulliken gross atomic charge
  VA   - Mayer's total valence
  BVA  - Mayer's bonded valence
  FA   - Mayer's free valence

  ATOM       NA         ZA         QA         VA         BVA        FA
  0 C      5.7814     6.0000     0.2186     3.8180     3.8180    -0.0000
  1 N      7.4319     7.0000    -0.4319     3.4091     3.4091    -0.0000
  2 C      6.0659     6.0000    -0.0659     3.9180     3.9180     0.0000
  3 N      7.3396     7.0000    -0.3396     3.4355     3.4355    -0.0000
  4 C      6.0725     6.0000    -0.0725     3.9774     3.9774    -0.0000
  5 N      7.5647     7.0000    -0.5647     3.0772     3.0772    -0.0000
  6 C      6.0444     6.0000    -0.0444     3.9816     3.9816    -0.0000
  7 N      7.3372     7.0000    -0.3372     3.4441     3.4441     0.0000
  8 C      5.7860     6.0000     0.2140     3.8198     3.8198    -0.0000
  9 N      7.5646     7.0000    -0.5646     3.0872     3.0872     0.0000
 10 C      5.8897     6.0000     0.1103     3.8814     3.8814     0.0000
 11 N      7.4376     7.0000    -0.4376     3.3835     3.3835     0.0000
 12 C      6.0648     6.0000    -0.0648     3.9140     3.9140     0.0000
 13 N      7.4448     7.0000    -0.4448     3.3525     3.3525     0.0000
 14 C      5.7657     6.0000     0.2343     3.7988     3.7988    -0.0000
 15 N      7.4408     7.0000    -0.4408     3.3698     3.3698    -0.0000
 16 C      5.7570     6.0000     0.2430     3.7994     3.7994    -0.0000
 17 C      6.0522     6.0000    -0.0522     3.9833     3.9833     0.0000
 18 C      6.2016     6.0000    -0.2016     3.7240     3.7240    -0.0000
 19 C      5.7613     6.0000     0.2387     3.8818     3.8818    -0.0000
 20 C      5.7985     6.0000     0.2015     3.8231     3.8231     0.0000
 21 C      6.0766     6.0000    -0.0766     3.9019     3.9019     0.0000
 22 C      6.0862     6.0000    -0.0862     3.9848     3.9848     0.0000
 23 C      6.0560     6.0000    -0.0560     3.9887     3.9887    -0.0000
 24 C      5.7878     6.0000     0.2122     3.8256     3.8256    -0.0000
 25 C      5.8861     6.0000     0.1139     3.8903     3.8903     0.0000
 26 C      6.0701     6.0000    -0.0701     3.9070     3.9070     0.0000
 27 C      5.7663     6.0000     0.2337     3.8939     3.8939    -0.0000
 28 C      6.0468     6.0000    -0.0468     3.9879     3.9879     0.0000
 29 C      6.1907     6.0000    -0.1907     3.7293     3.7293     0.0000
 30 C      5.7708     6.0000     0.2292     3.7882     3.7882     0.0000
 31 C      5.7997     6.0000     0.2003     3.8303     3.8303     0.0000
 32 C      6.0664     6.0000    -0.0664     3.9146     3.9146    -0.0000
 33 C      6.0910     6.0000    -0.0910     3.9861     3.9861     0.0000
 34 C      6.0507     6.0000    -0.0507     3.9954     3.9954     0.0000
 35 C      5.8069     6.0000     0.1931     3.8278     3.8278    -0.0000
 36 C      5.8828     6.0000     0.1172     3.9000     3.9000     0.0000
 37 C      6.0685     6.0000    -0.0685     3.9166     3.9166     0.0000
 38 C      5.7602     6.0000     0.2398     3.7970     3.7970     0.0000
 39 C      6.0627     6.0000    -0.0627     3.9947     3.9947     0.0000
 40 C      6.1961     6.0000    -0.1961     3.7463     3.7463     0.0000
 41 C      5.7804     6.0000     0.2196     3.8786     3.8786    -0.0000
 42 C      5.7923     6.0000     0.2077     3.8295     3.8295    -0.0000
 43 C      6.0747     6.0000    -0.0747     3.9045     3.9045     0.0000
 44 C      6.0893     6.0000    -0.0893     3.9845     3.9845     0.0000
 45 C      6.0463     6.0000    -0.0463     3.9942     3.9942     0.0000
 46 C      5.8040     6.0000     0.1960     3.8232     3.8232     0.0000
 47 C      5.8841     6.0000     0.1159     3.8947     3.8947     0.0000
 48 C      6.0776     6.0000    -0.0776     3.9011     3.9011     0.0000
 49 C      5.7812     6.0000     0.2188     3.8757     3.8757     0.0000
 50 C      6.0587     6.0000    -0.0587     3.9900     3.9900    -0.0000
 51 C      6.1891     6.0000    -0.1891     3.7381     3.7381     0.0000
 52 H      0.9346     1.0000     0.0654     0.9840     0.9840     0.0000
 53 H      1.0115     1.0000    -0.0115     1.0003     1.0003    -0.0000
 54 H      0.9473     1.0000     0.0527     1.0065     1.0065    -0.0000
 55 H      0.9366     1.0000     0.0634     0.9850     0.9850     0.0000
 56 H      0.9310     1.0000     0.0690     0.9721     0.9721    -0.0000
 57 H      0.9358     1.0000     0.0642     0.9845     0.9845     0.0000
 58 H      0.9369     1.0000     0.0631     0.9860     0.9860     0.0000
 59 H      1.0195     1.0000    -0.0195     0.9977     0.9977     0.0000
 60 H      0.9453     1.0000     0.0547     1.0079     1.0079     0.0000
 61 H      0.8253     1.0000     0.1747     1.0430     1.0430    -0.0000
 62 H      0.8293     1.0000     0.1707     1.0434     1.0434    -0.0000
 63 H      0.9439     1.0000     0.0561     0.9857     0.9857     0.0000
 64 H      1.0251     1.0000    -0.0251     0.9941     0.9941     0.0000
 65 H      0.9542     1.0000     0.0458     1.0084     1.0084    -0.0000
 66 H      0.9423     1.0000     0.0577     0.9847     0.9847    -0.0000
 67 H      0.9382     1.0000     0.0618     0.9718     0.9718     0.0000
 68 H      0.9420     1.0000     0.0580     0.9866     0.9866     0.0000
 69 H      0.9404     1.0000     0.0596     0.9830     0.9830     0.0000
 70 H      1.0207     1.0000    -0.0207     0.9958     0.9958     0.0000
 71 H      0.9516     1.0000     0.0484     1.0071     1.0071     0.0000
 72 H      0.9520     1.0000     0.0480     0.9855     0.9855     0.0000
 73 H      1.0174     1.0000    -0.0174     0.9975     0.9975     0.0000
 74 H      0.9610     1.0000     0.0390     1.0096     1.0096     0.0000
 75 H      0.9530     1.0000     0.0470     0.9861     0.9861    -0.0000
 76 H      0.9450     1.0000     0.0550     0.9710     0.9710     0.0000
 77 H      0.9472     1.0000     0.0528     0.9847     0.9847    -0.0000
 78 H      0.9480     1.0000     0.0520     0.9842     0.9842    -0.0000
 79 H      1.0131     1.0000    -0.0131     1.0005     1.0005     0.0000
 80 H      0.9608     1.0000     0.0392     1.0068     1.0068     0.0000
 81 H      0.9475     1.0000     0.0525     0.9853     0.9853    -0.0000
 82 H      1.0229     1.0000    -0.0229     0.9948     0.9948     0.0000
 83 H      0.9565     1.0000     0.0435     1.0099     1.0099     0.0000
 84 H      0.9479     1.0000     0.0521     0.9859     0.9859    -0.0000
 85 H      0.9425     1.0000     0.0575     0.9715     0.9715     0.0000
 86 H      0.9434     1.0000     0.0566     0.9841     0.9841     0.0000
 87 H      0.9441     1.0000     0.0559     0.9854     0.9854     0.0000
 88 H      1.0255     1.0000    -0.0255     0.9930     0.9930    -0.0000
 89 H      0.9578     1.0000     0.0422     1.0067     1.0067    -0.0000

  Mayer bond orders larger than 0.100000
B(  0-C ,  1-N ) :   1.1454 B(  0-C , 17-C ) :   1.5945 B(  0-C , 52-H ) :   0.9687 
B(  1-N ,  8-C ) :   1.1409 B(  1-N , 10-C ) :   0.9492 B(  2-C , 12-C ) :   1.5495 
B(  2-C , 16-C ) :   1.3078 B(  2-C , 53-H ) :   0.9783 B(  3-N , 14-C ) :   1.1911 
B(  3-N , 16-C ) :   1.2000 B(  3-N , 61-H ) :   0.8971 B(  4-C ,  6-C ) :   1.2976 
B(  4-C , 17-C ) :   1.3006 B(  4-C , 18-C ) :   1.1876 B(  5-N , 19-C ) :   1.3974 
B(  5-N , 27-C ) :   1.4221 B(  6-C ,  8-C ) :   1.5978 B(  6-C , 54-H ) :   0.9714 
B(  7-N , 30-C ) :   1.1906 B(  7-N , 38-C ) :   1.2072 B(  7-N , 62-H ) :   0.8995 
B(  8-C , 55-H ) :   0.9694 B(  9-N , 41-C ) :   1.4201 B(  9-N , 49-C ) :   1.4051 
B( 10-C , 56-H ) :   0.9763 B( 10-C , 57-H ) :   0.9814 B( 10-C , 58-H ) :   0.9829 
B( 11-N , 20-C ) :   1.1169 B( 11-N , 24-C ) :   1.1307 B( 11-N , 25-C ) :   0.9583 
B( 12-C , 14-C ) :   1.3078 B( 12-C , 59-H ) :   0.9772 B( 13-N , 31-C ) :   1.1053 
B( 13-N , 35-C ) :   1.0977 B( 13-N , 36-C ) :   0.9693 B( 14-C , 18-C ) :   1.2193 
B( 15-N , 42-C ) :   1.1212 B( 15-N , 46-C ) :   1.1054 B( 15-N , 47-C ) :   0.9633 
B( 16-C , 51-C ) :   1.2139 B( 17-C , 60-H ) :   0.9712 B( 18-C , 19-C ) :   1.2518 
B( 19-C , 21-C ) :   1.1909 B( 20-C , 28-C ) :   1.6224 B( 20-C , 63-H ) :   0.9704 
B( 21-C , 26-C ) :   1.6586 B( 21-C , 64-H ) :   0.9724 B( 22-C , 23-C ) :   1.2753 
B( 22-C , 28-C ) :   1.2790 B( 22-C , 29-C ) :   1.2379 B( 23-C , 24-C ) :   1.6216 
B( 23-C , 65-H ) :   0.9714 B( 24-C , 66-H ) :   0.9690 B( 25-C , 67-H ) :   0.9763 
B( 25-C , 68-H ) :   0.9831 B( 25-C , 69-H ) :   0.9820 B( 26-C , 27-C ) :   1.1945 
B( 26-C , 70-H ) :   0.9741 B( 27-C , 29-C ) :   1.2368 B( 28-C , 71-H ) :   0.9711 
B( 29-C , 30-C ) :   1.1941 B( 30-C , 32-C ) :   1.3306 B( 31-C , 39-C ) :   1.6531 
B( 31-C , 72-H ) :   0.9702 B( 32-C , 37-C ) :   1.5277 B( 32-C , 73-H ) :   0.9774 
B( 33-C , 34-C ) :   1.2569 B( 33-C , 39-C ) :   1.2501 B( 33-C , 40-C ) :   1.2936 
B( 34-C , 35-C ) :   1.6508 B( 34-C , 74-H ) :   0.9707 B( 35-C , 75-H ) :   0.9702 
B( 36-C , 76-H ) :   0.9760 B( 36-C , 77-H ) :   0.9823 B( 36-C , 78-H ) :   0.9834 
B( 37-C , 38-C ) :   1.3296 B( 37-C , 79-H ) :   0.9784 B( 38-C , 40-C ) :   1.1937 
B( 39-C , 80-H ) :   0.9718 B( 40-C , 41-C ) :   1.1990 B( 41-C , 43-C ) :   1.2294 
B( 42-C , 50-C ) :   1.6357 B( 42-C , 81-H ) :   0.9696 B( 43-C , 48-C ) :   1.6220 
B( 43-C , 82-H ) :   0.9746 B( 44-C , 45-C ) :   1.2761 B( 44-C , 50-C ) :   1.2608 
B( 44-C , 51-C ) :   1.2513 B( 45-C , 46-C ) :   1.6314 B( 45-C , 83-H ) :   0.9708 
B( 46-C , 84-H ) :   0.9704 B( 47-C , 85-H ) :   0.9761 B( 47-C , 86-H ) :   0.9827 
B( 47-C , 87-H ) :   0.9827 B( 48-C , 49-C ) :   1.2266 B( 48-C , 88-H ) :   0.9733 
B( 49-C , 51-C ) :   1.2110 B( 50-C , 89-H ) :   0.9717 

-------
TIMINGS
-------

Total SCF time: 0 days 0 hours 30 min 16 sec 

Total time                  ....    1816.884 sec
Sum of individual times     ....    1811.977 sec  ( 99.7%)

Fock matrix formation       ....    1782.901 sec  ( 98.1%)
Diagonalization             ....       8.841 sec  (  0.5%)
Density matrix formation    ....       0.569 sec  (  0.0%)
Population analysis         ....       0.586 sec  (  0.0%)
Initial guess               ....       2.504 sec  (  0.1%)
Orbital Transformation      ....       0.000 sec  (  0.0%)
Orbital Orthonormalization  ....       0.000 sec  (  0.0%)
DIIS solution               ....       3.979 sec  (  0.2%)
SOSCF solution              ....      11.283 sec  (  0.6%)

Maximum memory used throughout the entire SCF-calculation: 302.6 MB


           ************************************************************
           *        Program running with 16 parallel MPI-processes    *
           *              working on a common directory               *
           ************************************************************

------------------------------------------------------------------------------
                                ORCA  MP2 
------------------------------------------------------------------------------

Freezing NCore=104 chemical core electrons

----------
MP2 ENERGY (disk based algorithm)
----------

Dimension of the basis                    ...  918
Memory devoted to MP2                     ... 2000 MB   
Data format for buffers                   ... DOUBLE
Compression type for matrix containers    ... UNCOMPRESSED

-------------------------------
PARTIAL EXCHANGE TRANSFORMATION
-------------------------------

Transformation type                        ... one-operator
Generation of integrals (i,mue|j,nue)      ... ON
Generation of integrals (mue,kappa|nue,tau)... OFF
Generation of integrals (i,mue|a,nue)      ... OFF
Dimension of the basis                     ...  918
Number of internal MOs                     ...  127 (  52- 178)
Pair cutoff                                ... 2.500e-12 Eh
Number of AO pairs in the trafo            ... 421821
Total Number of distinct AO pairs          ... 421821
Memory devoted for trafo                   ... 2000.0 MB 
Max. Number of MO pairs treated together   ...  311      
Number Format for Storage                  ... Double (8 Byte)
Integral package used                      ... LIBINT

Starting integral evaluation:
    ... done with AO integral generation
Closing buffer AOK     (38.08 GB; CompressionRatio= 1.33)
Collecting buffer AOK 
Number of MO pairs included in the trafo   ... 8128
------------------------
SORTING OF (i,mue|j,nue)
------------------------

IBATCH = 1 of  2
IBATCH = 2 of  2
Closing buffer KAO     (51.03 GB; CompressionRatio= 1.00)
Collecting buffer KAO 
N(AO-Batches) Done                         ...  85406222 
N(AO-Batches) Skipped                      ...  82207443 
N(IJ)-pairs Skipped                        ...         0 
TOTAL TIME for half transformation         ...  2865.324 sec
AO-integral generation                     ...   209.441 sec
Half transformation                        ...   423.327 sec
K-integral sorting                         ...  2010.522 sec
Process 10:   Internal MO 132
Process 13:   Internal MO 156

Finished integral transformation - now doing MP2 part

Process  7:   Internal MO 108
OPERATOR COMBINATION   0   0: ij=( 52..178, 52..178)
Process  4:   Internal MO  84
Process  1:   Internal MO  60
Process  2:   Internal MO  69
Process  0:   Internal MO  54
Process  5:   Internal MO  93
Process  0:   Internal MO  57
Process  8:   Internal MO 117
Process  2:   Internal MO  72
Process 11:   Internal MO 141
Process  6:   Internal MO 102
Process  1:   Internal MO  63
Process  4:   Internal MO  87
Process  3:   Internal MO  78
Process 14:   Internal MO 165
Process  9:   Internal MO 126
Process  2:   Internal MO  75
Process  1:   Internal MO  66
Process 12:   Internal MO 150
Process  3:   Internal MO  81
Process  4:   Internal MO  90
Process 15:   Internal MO 174
Process  5:   Internal MO  96
Process  7:   Internal MO 111
Process  6:   Internal MO 105
Process 10:   Internal MO 135
Process  8:   Internal MO 120
Process  9:   Internal MO 129
Process  5:   Internal MO  99
Process 11:   Internal MO 144
Process  7:   Internal MO 114
Process 13:   Internal MO 159
Process 14:   Internal MO 168
Process 12:   Internal MO 153
Process 10:   Internal MO 138
Process  8:   Internal MO 123
Process 15:   Internal MO 177
Process 11:   Internal MO 147
Process 13:   Internal MO 162
Process 14:   Internal MO 171
-----------------------------------------------
 MP2 CORRELATION ENERGY   :     -7.287014563 Eh
-----------------------------------------------


-------
TIMINGS
-------
Total time                : 3202.913 sec
Integral trafo            : 2867.592 sec ( 89.5%)
K(i,j)                    :   20.454 sec (  0.6%)
T(i,j)                    :    1.474 sec (  0.0%)

---------------------------------------
MP2 TOTAL ENERGY:    -2130.903841026 Eh
---------------------------------------

Maximum memory used throughout the entire MP2-calculation: 2275.2 MB

-------------------------   --------------------
FINAL SINGLE POINT ENERGY     -2130.903841026472
-------------------------   --------------------


                            ***************************************
                            *     ORCA property calculations      *
                            ***************************************


  WARNING: The energy has been calculated at the MP2 level but the densities
           used in the property calculations are still SCF densities
           MP2 response densities have not been calculated 
           use %mp2 Density relaxed end
           or  %mp2 Density unrelaxed end

                                    ---------------------
                                    Active property flags
                                    ---------------------
   (+) Dipole Moment


------------------------------------------------------------------------------
                       ORCA ELECTRIC PROPERTIES CALCULATION
------------------------------------------------------------------------------

Dipole Moment Calculation                       ... on
Quadrupole Moment Calculation                   ... off
Polarizability Calculation                      ... off
GBWName                                         ... /scratch/allen/tmpyp4_amber_gaff2/conf1/conf1/Conf250.orca.gbw
Electron density                                ... /scratch/allen/tmpyp4_amber_gaff2/conf1/conf1/Conf250.orca.scfp
The origin for moment calculation is the CENTER OF MASS  = ( 0.001203, -0.003245 -0.001776)

-------------
DIPOLE MOMENT
-------------
                                X             Y             Z
Electronic contribution:     -2.05444       1.48318      -0.09663
Nuclear contribution   :      0.07018       0.23557       0.11228
                        -----------------------------------------
Total Dipole Moment    :     -1.98426       1.71875       0.01565
                        -----------------------------------------
Magnitude (a.u.)       :      2.62519
Magnitude (Debye)      :      6.67270



--------------------
Rotational spectrum 
--------------------
 
Rotational constants in cm-1:     0.001498     0.001473     0.000762 
Rotational constants in MHz :    44.916703    44.172225    22.855318 

 Dipole components along the rotational axes: 
x,y,z [a.u.] :    -2.470149     0.888690     0.014307 
x,y,z [Debye]:    -6.278621     2.258870     0.036366 

 

Timings for individual modules:

Sum of individual times         ...     5043.445 sec (=  84.057 min)
GTO integral calculation        ...        3.622 sec (=   0.060 min)   0.1 %
SCF iterations                  ...     1818.078 sec (=  30.301 min)  36.0 %
MP2 module                      ...     3221.744 sec (=  53.696 min)  63.9 %
                             ****ORCA TERMINATED NORMALLY****
TOTAL RUN TIME: 0 days 1 hours 24 minutes 7 seconds 242 msec
# of primitive gaussian functions

