
                                 *****************
                                 * O   R   C   A *
                                 *****************

                                            #,                                       
                                            ###                                      
                                            ####                                     
                                            #####                                    
                                            ######                                   
                                           ########,                                 
                                     ,,################,,,,,                         
                               ,,#################################,,                 
                          ,,##########################################,,             
                       ,#########################################, ''#####,          
                    ,#############################################,,   '####,        
                  ,##################################################,,,,####,       
                ,###########''''           ''''###############################       
              ,#####''   ,,,,##########,,,,          '''####'''          '####       
            ,##' ,,,,###########################,,,                        '##       
           ' ,,###''''                  '''############,,,                           
         ,,##''                                '''############,,,,        ,,,,,,###''
      ,#''                                            '''#######################'''  
     '                                                          ''''####''''         
             ,#######,   #######,   ,#######,      ##                                
            ,#'     '#,  ##    ##  ,#'     '#,    #''#        ######   ,####,        
            ##       ##  ##   ,#'  ##            #'  '#       #        #'  '#        
            ##       ##  #######   ##           ,######,      #####,   #    #        
            '#,     ,#'  ##    ##  '#,     ,#' ,#      #,         ##   #,  ,#        
             '#######'   ##     ##  '#######'  #'      '#     #####' # '####'        



                  #######################################################
                  #                        -***-                        #
                  #          Department of theory and spectroscopy      #
                  #    Directorship and core code : Frank Neese         #
                  #        Max Planck Institute fuer Kohlenforschung    #
                  #                Kaiser Wilhelm Platz 1               #
                  #                 D-45470 Muelheim/Ruhr               #
                  #                      Germany                        #
                  #                                                     #
                  #                  All rights reserved                #
                  #                        -***-                        #
                  #######################################################


                         Program Version 5.0.4 -  RELEASE  -


 With contributions from (in alphabetic order):
   Daniel Aravena         : Magnetic Suceptibility
   Michael Atanasov       : Ab Initio Ligand Field Theory (pilot matlab implementation)
   Alexander A. Auer      : GIAO ZORA, VPT2 properties, NMR spectrum
   Ute Becker             : Parallelization
   Giovanni Bistoni       : ED, misc. LED, open-shell LED, HFLD
   Martin Brehm           : Molecular dynamics
   Dmytro Bykov           : SCF Hessian
   Vijay G. Chilkuri      : MRCI spin determinant printing, contributions to CSF-ICE
   Dipayan Datta          : RHF DLPNO-CCSD density
   Achintya Kumar Dutta   : EOM-CC, STEOM-CC
   Dmitry Ganyushin       : Spin-Orbit,Spin-Spin,Magnetic field MRCI
   Miquel Garcia          : C-PCM and meta-GGA Hessian, CC/C-PCM, Gaussian charge scheme
   Yang Guo               : DLPNO-NEVPT2, F12-NEVPT2, CIM, IAO-localization
   Andreas Hansen         : Spin unrestricted coupled pair/coupled cluster methods
   Benjamin Helmich-Paris : MC-RPA, TRAH-SCF, COSX integrals
   Lee Huntington         : MR-EOM, pCC
   Robert Izsak           : Overlap fitted RIJCOSX, COSX-SCS-MP3, EOM
   Marcus Kettner         : VPT2
   Christian Kollmar      : KDIIS, OOCD, Brueckner-CCSD(T), CCSD density, CASPT2, CASPT2-K
   Simone Kossmann        : Meta GGA functionals, TD-DFT gradient, OOMP2, MP2 Hessian
   Martin Krupicka        : Initial AUTO-CI
   Lucas Lang             : DCDCAS
   Marvin Lechner         : AUTO-CI (C++ implementation), FIC-MRCC
   Dagmar Lenk            : GEPOL surface, SMD
   Dimitrios Liakos       : Extrapolation schemes; Compound Job, initial MDCI parallelization
   Dimitrios Manganas     : Further ROCIS development; embedding schemes
   Dimitrios Pantazis     : SARC Basis sets
   Anastasios Papadopoulos: AUTO-CI, single reference methods and gradients
   Taras Petrenko         : DFT Hessian,TD-DFT gradient, ASA, ECA, R-Raman, ABS, FL, XAS/XES, NRVS
   Peter Pinski           : DLPNO-MP2, DLPNO-MP2 Gradient
   Christoph Reimann      : Effective Core Potentials
   Marius Retegan         : Local ZFS, SOC
   Christoph Riplinger    : Optimizer, TS searches, QM/MM, DLPNO-CCSD(T), (RO)-DLPNO pert. Triples
   Tobias Risthaus        : Range-separated hybrids, TD-DFT gradient, RPA, STAB
   Michael Roemelt        : Original ROCIS implementation
   Masaaki Saitow         : Open-shell DLPNO-CCSD energy and density
   Barbara Sandhoefer     : DKH picture change effects
   Avijit Sen             : IP-ROCIS
   Kantharuban Sivalingam : CASSCF convergence, NEVPT2, FIC-MRCI
   Bernardo de Souza      : ESD, SOC TD-DFT
   Georgi Stoychev        : AutoAux, RI-MP2 NMR, DLPNO-MP2 response
   Willem Van den Heuvel  : Paramagnetic NMR
   Boris Wezisla          : Elementary symmetry handling
   Frank Wennmohs         : Technical directorship


 We gratefully acknowledge several colleagues who have allowed us to
 interface, adapt or use parts of their codes:
   Stefan Grimme, W. Hujo, H. Kruse, P. Pracht,  : VdW corrections, initial TS optimization,
                  C. Bannwarth, S. Ehlert          DFT functionals, gCP, sTDA/sTD-DF
   Ed Valeev, F. Pavosevic, A. Kumar             : LibInt (2-el integral package), F12 methods
   Garnet Chan, S. Sharma, J. Yang, R. Olivares  : DMRG
   Ulf Ekstrom                                   : XCFun DFT Library
   Mihaly Kallay                                 : mrcc  (arbitrary order and MRCC methods)
   Jiri Pittner, Ondrej Demel                    : Mk-CCSD
   Frank Weinhold                                : gennbo (NPA and NBO analysis)
   Christopher J. Cramer and Donald G. Truhlar   : smd solvation model
   Lars Goerigk                                  : TD-DFT with DH, B97 family of functionals
   V. Asgeirsson, H. Jonsson                     : NEB implementation
   FAccTs GmbH                                   : IRC, NEB, NEB-TS, DLPNO-Multilevel, CI-OPT
                                                   MM, QMMM, 2- and 3-layer-ONIOM, Crystal-QMMM,
                                                   LR-CPCM, SF, NACMEs, symmetry and pop. for TD-DFT,
                                                   nearIR, NL-DFT gradient (VV10), updates on ESD,
                                                   ML-optimized integration grids
   S Lehtola, MJT Oliveira, MAL Marques          : LibXC Library
   Liviu Ungur et al                             : ANISO software


 Your calculation uses the libint2 library for the computation of 2-el integrals
 For citations please refer to: http://libint.valeyev.net

 Your ORCA version has been built with support for libXC version: 5.1.0
 For citations please refer to: https://tddft.org/programs/libxc/

 This ORCA versions uses:
   CBLAS   interface :  Fast vector & matrix operations
   LAPACKE interface :  Fast linear algebra routines
   SCALAPACK package :  Parallel linear algebra routines
   Shared memory     :  Shared parallel matrices
   BLAS/LAPACK       :  OpenBLAS 0.3.15  USE64BITINT DYNAMIC_ARCH NO_AFFINITY Sandybridge SINGLE_THREADED
        Core in use  :  Sandybridge
   Copyright (c) 2011-2014, The OpenBLAS Project


================================================================================

----- Orbital basis set information -----
Your calculation utilizes the basis: cc-pVDZ 
       H, B-Ne : Obtained from the ccRepo (grant-hill.group.shef.ac.uk/ccrepo) Feb. 2017
                 T. H. Dunning, Jr., J. Chem. Phys. 90, 1007 (1989)
            He : Obtained from the ccRepo (grant-hill.group.shef.ac.uk/ccrepo) Feb. 2017
                 D. E. Woon, T. H. Dunning, Jr., J. Chem. Phys. 100, 2975 (1994)
  Li-Be, Na-Mg : Obtained from the ccRepo (grant-hill.group.shef.ac.uk/ccrepo) Feb. 2017
                 B. P. Prascher, D. E. Woon, K. A. Peterson, T. H. Dunning, Jr., A. K. Wilson, Theor. Chem. Acc. 128, 69 (2011)
         Al-Ar : Obtained from the ccRepo (grant-hill.group.shef.ac.uk/ccrepo) Feb. 2017
                 D. E. Woon, T. H. Dunning, Jr., J. Chem. Phys. 98, 1358 (1993)
            Ca : Obtained from the Peterson Research Group Website (tyr0.chem.wsu.edu/~kipeters) Feb. 2017
                 J. Koput, K. A. Peterson, J. Phys. Chem. 106, 9595 (2002)
         Sc-Zn : Obtained from the ccRepo (grant-hill.group.shef.ac.uk/ccrepo) Feb. 2017
                 N. B. Balabanov, K. A. Peterson, J. Chem. Phys. 123, 064107 (2005)
                 N. B. Balabanov, K. A. Peterson, J. Chem. Phys. 125, 074110 (2006)
         Ga-Kr : Obtained from the ccRepo (grant-hill.group.shef.ac.uk/ccrepo) Feb. 2017
                 A. K. Wilson, D. E. Woon, K. A. Peterson, T. H. Dunning, Jr., J. Chem. Phys. 110, 7667 (1999)

================================================================================
                                        WARNINGS
                       Please study these warnings very carefully!
================================================================================


WARNING: No MP2 level density has been requested!
         To caclulate MP2 level properties use
         %mp2 Density relaxed end
         or
         %mp2 Density unrelaxed end

WARNING: Post HF methods need fully converged wavefunctions
  ===> : Setting SCFConvForced true
         You can overwrite this default with %scf ConvForced false 


INFO   : the flag for use of the SHARK integral package has been found!

================================================================================
                                       INPUT FILE
================================================================================
NAME = /scratch/allen/tmpyp4_amber_gaff2/2.Mdgx/conf11/conf11/Conf125.orca
|  1> ! PAL2
|  2> ! mp2 cc-pvdz TightSCF  NoKeepInts
|  3> 
|  4> %scf
|  5>   MaxCore 2000
|  6> end
|  7> %mp2
|  8>   MaxCore 2000
|  9> end
| 10> * xyz 0 1
| 11>    C       -4.51700         5.50100        -0.90000
| 12>    C        1.47400         4.04100         0.05700
| 13>    C       -2.80200         4.09300         0.04900
| 14>    C       -2.65700         5.04500         1.07000
| 15>    C       -3.44100         6.18100         1.07500
| 16>    C       -5.20300         7.60800         0.15300
| 17>    C        0.13200         4.30700         0.06100
| 18>    C       -0.56900         3.05600         0.04700
| 19>    C        1.64900         2.61800         0.02300
| 20>    C       -3.76000         4.34600        -0.94400
| 21>    N       -4.35200         6.39900         0.09800
| 22>    N        0.38800         2.06700         0.02500
| 23>    N       -2.01000         0.39500        -0.07500
| 24>    N       -0.38800        -2.07400        -0.02700
| 25>    N        2.01000        -0.40100         0.06500
| 26>    C       -1.96000         2.86100         0.02400
| 27>    C       -2.62300         1.61500        -0.01800
| 28>    C       -5.57300        -4.32900         1.06600
| 29>    C       -4.07300         1.47100         0.05600
| 30>    C       -4.10600        -2.75600        -0.02600
| 31>    C       -4.99500        -2.75700        -1.11100
| 32>    C       -6.13200        -3.54200        -1.07600
| 33>    C       -7.65100        -5.11300         0.04000
| 34>    C       -4.32400         0.14100         0.03700
| 35>    C       -3.02500        -0.52000        -0.04800
| 36>    C       -4.42200        -3.56600         1.07500
| 37>    N       -6.40700        -4.31300         0.00100
| 38>    C       -2.86700        -1.92200        -0.04000
| 39>    C       -1.65000        -2.62400        -0.02700
| 40>    C        3.56800        -6.14200        -1.04000
| 41>    C       -1.47600        -4.04900        -0.03400
| 42>    C        2.80300        -4.09900        -0.00800
| 43>    C        3.65700        -4.38400         1.06900
| 44>    C        4.42700        -5.53000         1.05900
| 45>    C        5.24500        -7.58800         0.01400
| 46>    C       -0.13400        -4.31500        -0.02200
| 47>    C        0.56800        -3.06400        -0.02700
| 48>    C        2.77500        -5.01200        -1.07400
| 49>    N        4.37600        -6.39100         0.01700
| 50>    C        1.95900        -2.86900        -0.00900
| 51>    C        2.62100        -1.62200         0.00900
| 52>    C        5.54300         4.33900        -1.13000
| 53>    C        4.07000        -1.47900        -0.09400
| 54>    C        4.10400         2.75100        -0.02100
| 55>    C        5.02700         2.72900         1.03600
| 56>    C        6.16600         3.50900         0.97800
| 57>    C        7.61900         5.15300        -0.11500
| 58>    C        4.32100        -0.14800        -0.09200
| 59>    C        3.02500         0.51400         0.01500
| 60>    C        4.38700         3.58200        -1.11500
| 61>    C        2.86600         1.91600         0.01300
| 62>    N        6.41300         4.29600        -0.09500
| 63>    H       -5.25900         5.74300        -1.65100
| 64>    H        2.27400         4.76600         0.08100
| 65>    H       -1.94100         4.90200         1.87000
| 66>    H       -3.37100         6.93900         1.84500
| 67>    H       -6.07500         7.40200         0.77700
| 68>    H       -4.62200         8.42700         0.57900
| 69>    H       -5.51800         7.86100        -0.85900
| 70>    H       -0.33200         5.28200         0.06900
| 71>    H       -3.91000         3.65600        -1.76700
| 72>    H        0.18200         1.07200         0.00500
| 73>    H       -0.18300        -1.08000        -0.02100
| 74>    H       -5.86400        -4.96200         1.89500
| 75>    H       -4.79400         2.27200         0.13900
| 76>    H       -4.80000        -2.16000        -1.99400
| 77>    H       -6.84100        -3.58200        -1.89300
| 78>    H       -8.42800        -4.53600         0.54600
| 79>    H       -7.95600        -5.33700        -0.98100
| 80>    H       -7.45600        -6.03700         0.58400
| 81>    H       -5.28700        -0.34400         0.10000
| 82>    H       -3.78000        -3.60100         1.94700
| 83>    H        3.58700        -6.86800        -1.84300
| 84>    H       -2.27600        -4.77400        -0.05000
| 85>    H        3.71400        -3.72400         1.92600
| 86>    H        5.09200        -5.79500         1.87100
| 87>    H        6.20500        -7.32900        -0.43900
| 88>    H        5.39300        -7.91700         1.04200
| 89>    H        4.75900        -8.37300        -0.56400
| 90>    H        0.32900        -5.29000        -0.00800
| 91>    H        2.14600        -4.84200        -1.94000
| 92>    H        5.80800         4.98600        -1.95600
| 93>    H        4.78800        -2.28100        -0.18500
| 94>    H        4.86000         2.11400         1.91200
| 95>    H        6.90100         3.53100         1.77200
| 96>    H        7.38300         6.10900         0.35600
| 97>    H        8.41400         4.65200         0.43500
| 98>    H        7.92100         5.31000        -1.15000
| 99>    H        5.28300         0.33600        -0.17900
|100>    H        3.72000         3.63200        -1.96700
|101> *
|102> 
|103>                          ****END OF INPUT****
================================================================================

                       ****************************
                       * Single Point Calculation *
                       ****************************

---------------------------------
CARTESIAN COORDINATES (ANGSTROEM)
---------------------------------
  C     -4.517000    5.501000   -0.900000
  C      1.474000    4.041000    0.057000
  C     -2.802000    4.093000    0.049000
  C     -2.657000    5.045000    1.070000
  C     -3.441000    6.181000    1.075000
  C     -5.203000    7.608000    0.153000
  C      0.132000    4.307000    0.061000
  C     -0.569000    3.056000    0.047000
  C      1.649000    2.618000    0.023000
  C     -3.760000    4.346000   -0.944000
  N     -4.352000    6.399000    0.098000
  N      0.388000    2.067000    0.025000
  N     -2.010000    0.395000   -0.075000
  N     -0.388000   -2.074000   -0.027000
  N      2.010000   -0.401000    0.065000
  C     -1.960000    2.861000    0.024000
  C     -2.623000    1.615000   -0.018000
  C     -5.573000   -4.329000    1.066000
  C     -4.073000    1.471000    0.056000
  C     -4.106000   -2.756000   -0.026000
  C     -4.995000   -2.757000   -1.111000
  C     -6.132000   -3.542000   -1.076000
  C     -7.651000   -5.113000    0.040000
  C     -4.324000    0.141000    0.037000
  C     -3.025000   -0.520000   -0.048000
  C     -4.422000   -3.566000    1.075000
  N     -6.407000   -4.313000    0.001000
  C     -2.867000   -1.922000   -0.040000
  C     -1.650000   -2.624000   -0.027000
  C      3.568000   -6.142000   -1.040000
  C     -1.476000   -4.049000   -0.034000
  C      2.803000   -4.099000   -0.008000
  C      3.657000   -4.384000    1.069000
  C      4.427000   -5.530000    1.059000
  C      5.245000   -7.588000    0.014000
  C     -0.134000   -4.315000   -0.022000
  C      0.568000   -3.064000   -0.027000
  C      2.775000   -5.012000   -1.074000
  N      4.376000   -6.391000    0.017000
  C      1.959000   -2.869000   -0.009000
  C      2.621000   -1.622000    0.009000
  C      5.543000    4.339000   -1.130000
  C      4.070000   -1.479000   -0.094000
  C      4.104000    2.751000   -0.021000
  C      5.027000    2.729000    1.036000
  C      6.166000    3.509000    0.978000
  C      7.619000    5.153000   -0.115000
  C      4.321000   -0.148000   -0.092000
  C      3.025000    0.514000    0.015000
  C      4.387000    3.582000   -1.115000
  C      2.866000    1.916000    0.013000
  N      6.413000    4.296000   -0.095000
  H     -5.259000    5.743000   -1.651000
  H      2.274000    4.766000    0.081000
  H     -1.941000    4.902000    1.870000
  H     -3.371000    6.939000    1.845000
  H     -6.075000    7.402000    0.777000
  H     -4.622000    8.427000    0.579000
  H     -5.518000    7.861000   -0.859000
  H     -0.332000    5.282000    0.069000
  H     -3.910000    3.656000   -1.767000
  H      0.182000    1.072000    0.005000
  H     -0.183000   -1.080000   -0.021000
  H     -5.864000   -4.962000    1.895000
  H     -4.794000    2.272000    0.139000
  H     -4.800000   -2.160000   -1.994000
  H     -6.841000   -3.582000   -1.893000
  H     -8.428000   -4.536000    0.546000
  H     -7.956000   -5.337000   -0.981000
  H     -7.456000   -6.037000    0.584000
  H     -5.287000   -0.344000    0.100000
  H     -3.780000   -3.601000    1.947000
  H      3.587000   -6.868000   -1.843000
  H     -2.276000   -4.774000   -0.050000
  H      3.714000   -3.724000    1.926000
  H      5.092000   -5.795000    1.871000
  H      6.205000   -7.329000   -0.439000
  H      5.393000   -7.917000    1.042000
  H      4.759000   -8.373000   -0.564000
  H      0.329000   -5.290000   -0.008000
  H      2.146000   -4.842000   -1.940000
  H      5.808000    4.986000   -1.956000
  H      4.788000   -2.281000   -0.185000
  H      4.860000    2.114000    1.912000
  H      6.901000    3.531000    1.772000
  H      7.383000    6.109000    0.356000
  H      8.414000    4.652000    0.435000
  H      7.921000    5.310000   -1.150000
  H      5.283000    0.336000   -0.179000
  H      3.720000    3.632000   -1.967000

----------------------------
CARTESIAN COORDINATES (A.U.)
----------------------------
  NO LB      ZA    FRAG     MASS         X           Y           Z
   0 C     6.0000    0    12.011   -8.535893   10.395383   -1.700754
   1 C     6.0000    0    12.011    2.785456    7.636383    0.107714
   2 C     6.0000    0    12.011   -5.295013    7.734649    0.092597
   3 C     6.0000    0    12.011   -5.021002    9.533668    2.022007
   4 C     6.0000    0    12.011   -6.502548   11.680397    2.031456
   5 C     6.0000    0    12.011   -9.832245   14.377036    0.289128
   6 C     6.0000    0    12.011    0.249444    8.139050    0.115273
   7 C     6.0000    0    12.011   -1.075254    5.775003    0.088817
   8 C     6.0000    0    12.011    3.116158    4.947303    0.043464
   9 C     6.0000    0    12.011   -7.105370    8.212750   -1.783901
  10 N     7.0000    0    14.007   -8.224088   12.092358    0.185193
  11 N     7.0000    0    14.007    0.733214    3.906064    0.047243
  12 N     7.0000    0    14.007   -3.798350    0.746442   -0.141729
  13 N     7.0000    0    14.007   -0.733214   -3.919292   -0.051023
  14 N     7.0000    0    14.007    3.798350   -0.757780    0.122832
  15 C     6.0000    0    12.011   -3.703863    5.406506    0.045353
  16 C     6.0000    0    12.011   -4.956752    3.051908   -0.034015
  17 C     6.0000    0    12.011  -10.531444   -8.180624    2.014448
  18 C     6.0000    0    12.011   -7.696855    2.779787    0.105825
  19 C     6.0000    0    12.011   -7.759216   -5.208085   -0.049133
  20 C     6.0000    0    12.011   -9.439182   -5.209975   -2.099486
  21 C     6.0000    0    12.011  -11.587801   -6.693410   -2.033345
  22 C     6.0000    0    12.011  -14.458295   -9.662170    0.075589
  23 C     6.0000    0    12.011   -8.171176    0.266451    0.069920
  24 C     6.0000    0    12.011   -5.716422   -0.982658   -0.090707
  25 C     6.0000    0    12.011   -8.356369   -6.738763    2.031456
  26 N     7.0000    0    14.007  -12.107475   -8.150389    0.001890
  27 C     6.0000    0    12.011   -5.417845   -3.632054   -0.075589
  28 C     6.0000    0    12.011   -3.118048   -4.958641   -0.051023
  29 C     6.0000    0    12.011    6.742543  -11.606698   -1.965315
  30 C     6.0000    0    12.011   -2.789236   -7.651501   -0.064251
  31 C     6.0000    0    12.011    5.296902   -7.745987   -0.015118
  32 C     6.0000    0    12.011    6.910728   -8.284559    2.020117
  33 C     6.0000    0    12.011    8.365818  -10.450186    2.001220
  34 C     6.0000    0    12.011    9.911614  -14.339242    0.026456
  35 C     6.0000    0    12.011   -0.253223   -8.154168   -0.041574
  36 C     6.0000    0    12.011    1.073364   -5.790121   -0.051023
  37 C     6.0000    0    12.011    5.243990   -9.471307   -2.029566
  38 N     7.0000    0    14.007    8.269442  -12.077240    0.032125
  39 C     6.0000    0    12.011    3.701973   -5.421624   -0.017008
  40 C     6.0000    0    12.011    4.952972   -3.065136    0.017008
  41 C     6.0000    0    12.011   10.474752    8.199522   -2.135391
  42 C     6.0000    0    12.011    7.691185   -2.794905   -0.177634
  43 C     6.0000    0    12.011    7.755436    5.198637   -0.039684
  44 C     6.0000    0    12.011    9.499653    5.157063    1.957756
  45 C     6.0000    0    12.011   11.652051    6.631049    1.848152
  46 C     6.0000    0    12.011   14.397823    9.737759   -0.217319
  47 C     6.0000    0    12.011    8.165507   -0.279679   -0.173855
  48 C     6.0000    0    12.011    5.716422    0.971319    0.028346
  49 C     6.0000    0    12.011    8.290229    6.768999   -2.107045
  50 C     6.0000    0    12.011    5.415955    3.620715    0.024566
  51 N     7.0000    0    14.007   12.118814    8.118263   -0.179524
  52 H     1.0000    0     1.008   -9.938070   10.852697   -3.119938
  53 H     1.0000    0     1.008    4.297237    9.006435    0.153068
  54 H     1.0000    0     1.008   -3.667958    9.263438    3.533788
  55 H     1.0000    0     1.008   -6.370267   13.112810    3.486545
  56 H     1.0000    0     1.008  -11.480086   13.987753    1.468317
  57 H     1.0000    0     1.008   -8.734314   15.924722    1.094151
  58 H     1.0000    0     1.008  -10.427509   14.855137   -1.623275
  59 H     1.0000    0     1.008   -0.627389    9.981533    0.130391
  60 H     1.0000    0     1.008   -7.388829    6.908839   -3.339146
  61 H     1.0000    0     1.008    0.343930    2.025786    0.009449
  62 H     1.0000    0     1.008   -0.345820   -2.040904   -0.039684
  63 H     1.0000    0     1.008  -11.081354   -9.376821    3.581031
  64 H     1.0000    0     1.008   -9.059347    4.293458    0.262672
  65 H     1.0000    0     1.008   -9.070685   -4.081808   -3.768114
  66 H     1.0000    0     1.008  -12.927616   -6.768999   -3.577252
  67 H     1.0000    0     1.008  -15.926612   -8.571798    1.031790
  68 H     1.0000    0     1.008  -15.034661  -10.085468   -1.853821
  69 H     1.0000    0     1.008  -14.089798  -11.408277    1.103600
  70 H     1.0000    0     1.008   -9.990982   -0.650066    0.188973
  71 H     1.0000    0     1.008   -7.143165   -6.804904    3.679297
  72 H     1.0000    0     1.008    6.778448  -12.978639   -3.482765
  73 H     1.0000    0     1.008   -4.301017   -9.021553   -0.094486
  74 H     1.0000    0     1.008    7.018443   -7.037340    3.639613
  75 H     1.0000    0     1.008    9.622485  -10.950963    3.535678
  76 H     1.0000    0     1.008   11.725751  -13.849803   -0.829590
  77 H     1.0000    0     1.008   10.191293  -14.960962    1.969095
  78 H     1.0000    0     1.008    8.993207  -15.822677   -1.065806
  79 H     1.0000    0     1.008    0.621720   -9.996651   -0.015118
  80 H     1.0000    0     1.008    4.055352   -9.150054   -3.666069
  81 H     1.0000    0     1.008   10.975529    9.422175   -3.696304
  82 H     1.0000    0     1.008    9.048009   -4.310465   -0.349599
  83 H     1.0000    0     1.008    9.184069    3.994881    3.613156
  84 H     1.0000    0     1.008   13.041000    6.672623    3.348595
  85 H     1.0000    0     1.008   13.951848   11.544337    0.672743
  86 H     1.0000    0     1.008   15.900156    8.791006    0.822031
  87 H     1.0000    0     1.008   14.968521   10.034446   -2.173185
  88 H     1.0000    0     1.008    9.983423    0.634948   -0.338261
  89 H     1.0000    0     1.008    7.029781    6.863485   -3.717091

--------------------------------
INTERNAL COORDINATES (ANGSTROEM)
--------------------------------
 C      0   0   0     0.000000000000     0.00000000     0.00000000
 C      1   0   0     6.240154645520     0.00000000     0.00000000
 C      1   2   0     2.413356583682    28.47048567     0.00000000
 C      3   1   2     1.403484948263    87.92207730    79.85326785
 C      4   3   1     1.380281493030   120.14678658     0.16602392
 C      5   4   3     2.447663579825   152.54172195     1.57481541
 C      2   1   3     1.368114030335     9.32377347   318.78894824
 C      7   2   3     1.434084376876   108.05010202     0.84668783
 C      2   1   3     1.434123425651   110.22279350    38.01512502
 C      1   2   3     1.381669280255    44.21622474   314.85958069
 N      1   2   3     1.352639271942    85.70238462    99.24663790
 N      9   2   1     1.376127174356   106.58526707   349.59157621
 N     12   9   2     2.925062050624   168.53581413   171.12065651
 N     13  12   9     2.954513327098    91.55032014    11.12112580
 N     14  13  12     2.925371258490    88.43092389   359.84326247
 C      8   7   2     1.404790019896   127.24786865   181.11170171
 C     13  12   9     1.366535034311    81.72106996   188.00453233
 C     14  13  12     5.758810554272    80.56209567   166.76250791
 C     17  13  12     1.459010623676   111.08861209   183.82872609
 C     18  14  13     2.412235892279    27.27532823    36.33507194
 C     20  18  14     1.402692767501    87.95206320   148.94598259
 C     21  20  18     1.382106725257   120.14573887   359.70382047
 C     18  14  13     2.446510985056   144.15733107    82.80075377
 C     19  17  13     1.353610726908   106.29293361   359.75308708
 C     13  12   9     1.366813447402   172.21332906    33.46711076
 C     18  14  13     1.380960173213    15.08449437   309.23336894
 N     22  21  20     1.352773077792   120.73759875     0.27865223
 C     25  13  17     1.410897586645   125.60330303   182.37774668
 C     14  13  12     1.376642291955    80.24689249   177.85461986
 C     14  13  12     5.764089607215   164.51507311   312.20821879
 C     29  14  13     1.435600919476   106.58649366   178.76395472
 C     30  14  13     2.413316804732    27.10625047    82.12560436
 C     32  30  14     1.403734305344    87.90059683   149.76154742
 C     33  32  30     1.380694028378   120.14881443   359.74174632
 C     34  33  32     2.448777858443   152.49203239     2.45173620
 C     31  29  14     1.368160809262   108.16950133     0.70383075
 C     14  13  12     1.376239804685   169.26375223   353.09862627
 C     30  14  13     1.380907310430    14.68948582   353.70041132
 N     34  33  32     1.352658863128   120.85575621     0.19603406
 C     37  14  29     1.404717053360   126.01551127   180.90772073
 C     15  14  13     1.366491126938    81.61824056   183.09049352
 C      2   1   3     4.249062720177   149.33185088   158.58697075
 C     41  15  14     1.459677704153   111.05201287   175.08990246
 C     42   2   1     2.412953791518    41.78584867   210.36305842
 C     44  42   2     1.403446472082    87.95153797   233.97558675
 C     45  44  42     1.381696421071   120.11137308     0.19721020
 C     42   2   1     2.450019795838   135.97209175   120.67790752
 C     43  41  15     1.354461516618   106.26758155     0.30894352
 C     15  14  13     1.367461151185   171.87382904   332.35056460
 C     42   2   1     1.381886391857    32.59078432   259.21833761
 C      9   2   1     1.404988612053   126.98745415   170.59591374
 N     42   2   1     1.352765315936   113.57249190   148.41449671
 H      1   2   3     1.083110797656   144.71842246   231.27923596
 H      2   1   3     1.079907866440   123.88709058   208.84456392
 H      4   3   1     1.083099718401   121.06894446   179.56169544
 H      5   4   3     1.082757590599   122.82141696   179.49705947
 H      6   5   4     1.091877282482   104.45618930   100.17747086
 H      6   5   4     1.090778620986    84.67490076   209.60416335
 H      6   5   4     1.089668757008   133.89175695   322.40026898
 H      7   2  54     1.079807853278   126.66122480     1.30600390
 H     10   1   2     1.084402600513   118.70435856   223.38235981
 H     12   9   2     1.016297692608   125.29023241   180.00180175
 H     14  13  12     1.014936943854    44.97226959   359.42596618
 H     18  14  13     1.082871645210   128.03556573   234.20482432
 H     19  17  13     1.080893611786   126.41830519   178.11313280
 H     21  20  18     1.083569563987   121.05669627   180.67006309
 H     22  21  20     1.082483256222   122.73097286   180.59748951
 H     23  18  14     1.092105306278   103.92715769   234.93429879
 H     23  18  14     1.088871893291   134.19244188    12.25587044
 H     23  18  14     1.089833473518    84.85857450   125.45241208
 H     24  19  17     1.080075460327   127.28078426   178.44613241
 H     26  18  14     1.083408048706   118.76995697   244.94906660
 H     30  14  13     1.082703098730   127.99711412   279.66882698
 H     31  29  14     1.079759695488   125.22293469   180.92530585
 H     33  32  30     1.083188810873   121.01964473   180.74284758
 H     34  33  32     1.082494341787   122.70821597   180.59516895
 H     35  34  33     1.092652735319   105.73575241    97.19771933
 H     35  34  33     1.089462711615    84.05943581   206.43036958
 H     35  34  33     1.089268102902   133.08365142   318.50306270
 H     36  31  29     1.079439669458   126.61599965   178.98859863
 H     38  30  73     1.083742127999   118.77264435   359.90091293
 H     42   2   1     1.082178358682   119.31790784     5.04602717
 H     43  41  15     1.080281907652   126.36969097   182.06329380
 H     45  44  42     1.083277434455   121.10105945   179.58025624
 H     46  45  44     1.082194529648   122.72144639   179.46906377
 H     47  42   2     1.091546151109   106.65128841   315.16475048
 H     47  42   2     1.088818625851   132.46019523    94.52397119
 H     47  42   2     1.089531091801    83.63838232   206.04504406
 H     48  43  41     1.080402239909   127.23657387   181.62955349
 H     50  42   2     1.083186502870   118.77001737    94.71359229

---------------------------
INTERNAL COORDINATES (A.U.)
---------------------------
 C      0   0   0     0.000000000000     0.00000000     0.00000000
 C      1   0   0    11.792183313349     0.00000000     0.00000000
 C      1   2   0     4.560583006654    28.47048567     0.00000000
 C      3   1   2     2.652202185297    87.92207730    79.85326785
 C      4   3   1     2.608354009546   120.14678658     0.16602392
 C      5   4   3     4.625413833842   152.54172195     1.57481541
 C      2   1   3     2.585360837309     9.32377347   318.78894824
 C      7   2   3     2.710026725231   108.05010202     0.84668783
 C      2   1   3     2.710100516721   110.22279350    38.01512502
 C      1   2   3     2.610976547334    44.21622474   314.85958069
 N      1   2   3     2.556117781957    85.70238462    99.24663790
 N      9   2   1     2.600503484979   106.58526707   349.59157621
 N     12   9   2     5.527566200405   168.53581413   171.12065651
 N     13  12   9     5.583221047236    91.55032014    11.12112580
 N     14  13  12     5.528150518591    88.43092389   359.84326247
 C      8   7   2     2.654668413270   127.24786865   181.11170171
 C     13  12   9     2.582376967257    81.72106996   188.00453233
 C     14  13  12    10.882574804710    80.56209567   166.76250791
 C     17  13  12     2.757130505230   111.08861209   183.82872609
 C     18  14  13     4.558465206823    27.27532823    36.33507194
 C     20  18  14     2.650705180609    87.95206320   148.94598259
 C     21  20  18     2.611803198586   120.14573887   359.70382047
 C     18  14  13     4.623235745386   144.15733107    82.80075377
 C     19  17  13     2.557953565794   106.29293361   359.75308708
 C     13  12   9     2.582903091751   172.21332906    33.46711076
 C     18  14  13     2.609636529225    15.08449437   309.23336894
 N     22  21  20     2.556370638369   120.73759875     0.27865223
 C     25  13  17     2.666210041769   125.60330303   182.37774668
 C     14  13  12     2.601476916169    80.24689249   177.85461986
 C     14  13  12    10.892550769017   164.51507311   312.20821879
 C     29  14  13     2.712892575415   106.58649366   178.76395472
 C     30  14  13     4.560507835333    27.10625047    82.12560436
 C     32  30  14     2.652673401891    87.90059683   149.76154742
 C     33  32  30     2.609133588376   120.14881443   359.74174632
 C     34  33  32     4.627519515267   152.49203239     2.45173620
 C     31  29  14     2.585449236669   108.16950133     0.70383075
 C     14  13  12     2.600716325456   169.26375223   353.09862627
 C     30  14  13     2.609536633043    14.68948582   353.70041132
 N     34  33  32     2.556154803934   120.85575621     0.19603406
 C     37  14  29     2.654530526499   126.01551127   180.90772073
 C     15  14  13     2.582293994346    81.61824056   183.09049352
 C      2   1   3     8.029564866989   149.33185088   158.58697075
 C     41  15  14     2.758391104639   111.05201287   175.08990246
 C     42   2   1     4.559821839776    41.78584867   210.36305842
 C     44  42   2     2.652129475853    87.95153797   233.97558675
 C     45  44  42     2.611027836043   120.11137308     0.19721020
 C     42   2   1     4.629866436820   135.97209175   120.67790752
 C     43  41  15     2.559561325344   106.26758155     0.30894352
 C     15  14  13     2.584127074516   171.87382904   332.35056460
 C     42   2   1     2.611386828803    32.59078432   259.21833761
 C      9   2   1     2.655043698059   126.98745415   170.59591374
 N     42   2   1     2.556355970587   113.57249190   148.41449671
 H      1   2   3     2.046782780264   144.71842246   231.27923596
 H      2   1   3     2.040730117440   123.88709058   208.84456392
 H      4   3   1     2.046761843505   121.06894446   179.56169544
 H      5   4   3     2.046115315657   122.82141696   179.49705947
 H      6   5   4     2.063349035741   104.45618930   100.17747086
 H      6   5   4     2.061272866400    84.67490076   209.60416335
 H      6   5   4     2.059175527436   133.89175695   322.40026898
 H      7   2  54     2.040541119952   126.66122480     1.30600390
 H     10   1   2     2.049223933882   118.70435856   223.38235981
 H     12   9   2     1.920524309565   125.29023241   180.00180175
 H     14  13  12     1.917952867083    44.97226959   359.42596618
 H     18  14  13     2.046330847636   128.03556573   234.20482432
 H     19  17  13     2.042592906181   126.41830519   178.11313280
 H     21  20  18     2.047649722989   121.05669627   180.67006309
 H     22  21  20     2.045596898814   122.73097286   180.59748951
 H     23  18  14     2.063779938267   103.92715769   234.93429879
 H     23  18  14     2.057669673245   134.19244188    12.25587044
 H     23  18  14     2.059486796529    84.85857450   125.45241208
 H     24  19  17     2.041046823986   127.28078426   178.44613241
 H     26  18  14     2.047344503340   118.76995697   244.94906660
 H     30  14  13     2.046012340948   127.99711412   279.66882698
 H     31  29  14     2.040450114918   125.22293469   180.92530585
 H     33  32  30     2.046930203877   121.01964473   180.74284758
 H     34  33  32     2.045617847496   122.70821597   180.59516895
 H     35  34  33     2.064814429233   105.73575241    97.19771933
 H     35  34  33     2.058786158072    84.05943581   206.43036958
 H     35  34  33     2.058418400901   133.08365142   318.50306270
 H     36  31  29     2.039845353366   126.61599965   178.98859863
 H     38  30  73     2.047975821711   118.77264435   359.90091293
 H     42   2   1     2.045020725966   119.31790784     5.04602717
 H     43  41  15     2.041436952892   126.36969097   182.06329380
 H     45  44  42     2.047097678177   121.10105945   179.58025624
 H     46  45  44     2.045051284662   122.72144639   179.46906377
 H     47  42   2     2.062723288131   106.65128841   315.16475048
 H     47  42   2     2.057569012371   132.46019523    94.52397119
 H     47  42   2     2.058915377895    83.63838232   206.04504406
 H     48  43  41     2.041664347903   127.23657387   181.62955349
 H     50  42   2     2.046925842384   118.77001737    94.71359229

---------------------
BASIS SET INFORMATION
---------------------
There are 3 groups of distinct atoms

 Group   1 Type C   : 17s4p1d contracted to 3s2p1d pattern {881/31/1}
 Group   2 Type N   : 17s4p1d contracted to 3s2p1d pattern {881/31/1}
 Group   3 Type H   : 4s1p contracted to 2s1p pattern {31/1}

Atom   0C    basis set group =>   1
Atom   1N    basis set group =>   2
Atom   2C    basis set group =>   1
Atom   3N    basis set group =>   2
Atom   4C    basis set group =>   1
Atom   5N    basis set group =>   2
Atom   6C    basis set group =>   1
Atom   7N    basis set group =>   2
Atom   8C    basis set group =>   1
Atom   9N    basis set group =>   2
Atom  10C    basis set group =>   1
Atom  11N    basis set group =>   2
Atom  12C    basis set group =>   1
Atom  13N    basis set group =>   2
Atom  14C    basis set group =>   1
Atom  15N    basis set group =>   2
Atom  16C    basis set group =>   1
Atom  17C    basis set group =>   1
Atom  18C    basis set group =>   1
Atom  19C    basis set group =>   1
Atom  20C    basis set group =>   1
Atom  21C    basis set group =>   1
Atom  22C    basis set group =>   1
Atom  23C    basis set group =>   1
Atom  24C    basis set group =>   1
Atom  25C    basis set group =>   1
Atom  26C    basis set group =>   1
Atom  27C    basis set group =>   1
Atom  28C    basis set group =>   1
Atom  29C    basis set group =>   1
Atom  30C    basis set group =>   1
Atom  31C    basis set group =>   1
Atom  32C    basis set group =>   1
Atom  33C    basis set group =>   1
Atom  34C    basis set group =>   1
Atom  35C    basis set group =>   1
Atom  36C    basis set group =>   1
Atom  37C    basis set group =>   1
Atom  38C    basis set group =>   1
Atom  39C    basis set group =>   1
Atom  40C    basis set group =>   1
Atom  41C    basis set group =>   1
Atom  42C    basis set group =>   1
Atom  43C    basis set group =>   1
Atom  44C    basis set group =>   1
Atom  45C    basis set group =>   1
Atom  46C    basis set group =>   1
Atom  47C    basis set group =>   1
Atom  48C    basis set group =>   1
Atom  49C    basis set group =>   1
Atom  50C    basis set group =>   1
Atom  51C    basis set group =>   1
Atom  52H    basis set group =>   3
Atom  53H    basis set group =>   3
Atom  54H    basis set group =>   3
Atom  55H    basis set group =>   3
Atom  56H    basis set group =>   3
Atom  57H    basis set group =>   3
Atom  58H    basis set group =>   3
Atom  59H    basis set group =>   3
Atom  60H    basis set group =>   3
Atom  61H    basis set group =>   3
Atom  62H    basis set group =>   3
Atom  63H    basis set group =>   3
Atom  64H    basis set group =>   3
Atom  65H    basis set group =>   3
Atom  66H    basis set group =>   3
Atom  67H    basis set group =>   3
Atom  68H    basis set group =>   3
Atom  69H    basis set group =>   3
Atom  70H    basis set group =>   3
Atom  71H    basis set group =>   3
Atom  72H    basis set group =>   3
Atom  73H    basis set group =>   3
Atom  74H    basis set group =>   3
Atom  75H    basis set group =>   3
Atom  76H    basis set group =>   3
Atom  77H    basis set group =>   3
Atom  78H    basis set group =>   3
Atom  79H    basis set group =>   3
Atom  80H    basis set group =>   3
Atom  81H    basis set group =>   3
Atom  82H    basis set group =>   3
Atom  83H    basis set group =>   3
Atom  84H    basis set group =>   3
Atom  85H    basis set group =>   3
Atom  86H    basis set group =>   3
Atom  87H    basis set group =>   3
Atom  88H    basis set group =>   3
Atom  89H    basis set group =>   3


           ************************************************************
           *        Program running with 16 parallel MPI-processes    *
           *              working on a common directory               *
           ************************************************************
------------------------------------------------------------------------------
                           ORCA GTO INTEGRAL CALCULATION
------------------------------------------------------------------------------
------------------------------------------------------------------------------
                   ___                                                        
                  /   \      - P O W E R E D   B Y -                         
                 /     \                                                     
                 |  |  |   _    _      __       _____    __    __             
                 |  |  |  | |  | |    /  \     |  _  \  |  |  /  |          
                  \  \/   | |  | |   /    \    | | | |  |  | /  /          
                 / \  \   | |__| |  /  /\  \   | |_| |  |  |/  /          
                |  |  |   |  __  | /  /__\  \  |    /   |      \           
                |  |  |   | |  | | |   __   |  |    \   |  |\   \          
                \     /   | |  | | |  |  |  |  | |\  \  |  | \   \       
                 \___/    |_|  |_| |__|  |__|  |_| \__\ |__|  \__/        
                                                                              
                      - O R C A' S   B I G   F R I E N D -                    
                                      &                                       
                       - I N T E G R A L  F E E D E R -                       
                                                                              
 v1 FN, 2020, v2 2021                                                         
------------------------------------------------------------------------------


Reading SHARK input file /scratch/allen/tmpyp4_amber_gaff2/conf1/conf1/Conf125.orca.SHARKINP.tmp ... ok
----------------------
SHARK INTEGRAL PACKAGE
----------------------

Number of atoms                             ...     90
Number of basis functions                   ...   1230
Number of shells                            ...    738
Maximum angular momentum                    ...      2
Integral batch strategy                     ... SHARK/LIBINT Hybrid
RI-J (if used) integral strategy            ... SPLIT-RIJ (Revised 2003 algorithm where possible)
Printlevel                                  ...      1
Contraction scheme used                     ... PARTIAL GENERAL contraction
Coulomb Range Separation                    ... NOT USED
Exchange Range Separation                   ... NOT USED
Finite Nucleus Model                        ... NOT USED
Auxiliary Coulomb fitting basis             ... NOT available
Auxiliary J/K fitting basis                 ... NOT available
Auxiliary Correlation fitting basis         ... NOT available
Auxiliary 'external' fitting basis          ... NOT available
Integral threshold                          ...     2.500000e-11
Primitive cut-off                           ...     2.500000e-12
Primitive pair pre-selection threshold      ...     2.500000e-12

Calculating pre-screening integrals         ... done (  0.1 sec) Dimension = 738
Calculating pre-screening integrals (ORCA)  ... done (  0.3 sec) Dimension = 426
Organizing shell pair data                  ... done (  0.8 sec)
Shell pair information
Total number of shell pairs                 ...    272691
Shell pairs after pre-screening             ...     71591
Total number of primitive shell pairs       ...    422091
Primitive shell pairs kept                  ...     92345
          la=0 lb=0:  29407 shell pairs
          la=1 lb=0:  25959 shell pairs
          la=1 lb=1:   4699 shell pairs
          la=2 lb=0:   7871 shell pairs
          la=2 lb=1:   3124 shell pairs
          la=2 lb=2:    531 shell pairs

Calculating one electron integrals          ... done (  0.3 sec)
Calculating Nuclear repulsion               ... done (  0.0 sec) ENN=   6225.321596190714 Eh

SHARK setup successfully completed in   2.2 seconds

Maximum memory used throughout the entire GTOINT-calculation: 98.9 MB


           ************************************************************
           *        Program running with 16 parallel MPI-processes    *
           *              working on a common directory               *
           ************************************************************
-------------------------------------------------------------------------------
                                 ORCA SCF
-------------------------------------------------------------------------------

------------
SCF SETTINGS
------------
Hamiltonian:
 Ab initio Hamiltonian  Method          .... Hartree-Fock(GTOs)


General Settings:
 Integral files         IntName         .... /scratch/allen/tmpyp4_amber_gaff2/conf1/conf1/Conf125.orca
 Hartree-Fock type      HFTyp           .... RHF
 Total Charge           Charge          ....    0
 Multiplicity           Mult            ....    1
 Number of Electrons    NEL             ....  358
 Basis Dimension        Dim             ....  918
 Nuclear Repulsion      ENuc            ....   6225.3215961907 Eh

Convergence Acceleration:
 DIIS                   CNVDIIS         .... on
   Start iteration      DIISMaxIt       ....    12
   Startup error        DIISStart       ....  0.200000
   # of expansion vecs  DIISMaxEq       ....     5
   Bias factor          DIISBfac        ....   1.050
   Max. coefficient     DIISMaxC        ....  10.000
 Trust-Rad. Augm. Hess. CNVTRAH         .... auto
   Auto Start mean grad. ratio tolernc. ....  1.125000
   Auto Start start iteration           ....    20
   Auto Start num. interpolation iter.  ....    10
   Max. Number of Micro iterations      ....    16
   Max. Number of Macro iterations      .... Maxiter - #DIIS iter
   Number of Davidson start vectors     ....     2
   Converg. threshold I  (grad. norm)   ....   1.000e-05
   Converg. threshold II (energy diff.) ....   1.000e-08
   Grad. Scal. Fac. for Micro threshold ....   0.100
   Minimum threshold for Micro iter.    ....   0.010
   NR start threshold (gradient norm)   ....   0.001
   Initial trust radius                 ....   0.400
   Minimum AH scaling param. (alpha)    ....   1.000
   Maximum AH scaling param. (alpha)    .... 1000.000
   Orbital update algorithm             .... Taylor
   White noise on init. David. guess    .... on
   Maximum white noise                  ....   0.010
   Quad. conv. algorithm                .... NR
 SOSCF                  CNVSOSCF        .... on
   Start iteration      SOSCFMaxIt      ....   150
   Startup grad/error   SOSCFStart      ....  0.003300
 Level Shifting         CNVShift        .... on
   Level shift para.    LevelShift      ....    0.2500
   Turn off err/grad.   ShiftErr        ....    0.0010
 Zerner damping         CNVZerner       .... off
 Static damping         CNVDamp         .... on
   Fraction old density DampFac         ....    0.7000
   Max. Damping (<1)    DampMax         ....    0.9800
   Min. Damping (>=0)   DampMin         ....    0.0000
   Turn off err/grad.   DampErr         ....    0.1000
 Fernandez-Rico         CNVRico         .... off

SCF Procedure:
 Maximum # iterations   MaxIter         ....   125
 SCF integral mode      SCFMode         .... Direct
   Integral package                     .... SHARK and LIBINT hybrid scheme
 Reset frequency        DirectResetFreq ....    20
 Integral Threshold     Thresh          ....  2.500e-11 Eh
 Primitive CutOff       TCut            ....  2.500e-12 Eh

Convergence Tolerance:
 Convergence Check Mode ConvCheckMode   .... Total+1el-Energy
 Convergence forced     ConvForced      .... 1
 Energy Change          TolE            ....  1.000e-08 Eh
 1-El. energy change                    ....  1.000e-05 Eh
 Orbital Gradient       TolG            ....  1.000e-05
 Orbital Rotation angle TolX            ....  1.000e-05
 DIIS Error             TolErr          ....  5.000e-07


Diagonalization of the overlap matrix:
Smallest eigenvalue                        ... 2.253e-04
Time for diagonalization                   ...    0.394 sec
Threshold for overlap eigenvalues          ... 1.000e-08
Number of eigenvalues below threshold      ... 0
Time for construction of square roots      ...    0.251 sec
Total time needed                          ...    0.650 sec

Time for model grid setup =    1.051 sec

------------------------------
INITIAL GUESS: MODEL POTENTIAL
------------------------------
Loading Hartree-Fock densities                     ... done
Calculating cut-offs                               ... done
Initializing the effective Hamiltonian             ... done
Setting up the integral package (SHARK)            ... done
Starting the Coulomb interaction                   ... done (   1.2 sec)
Reading the grid                                   ... done
Mapping shells                                     ... done
Starting the XC term evaluation                    ... done (   0.2 sec)
Transforming the Hamiltonian                       ... done (   0.2 sec)
Diagonalizing the Hamiltonian                      ... done (   0.3 sec)
Back transforming the eigenvectors                 ... done (   0.1 sec)
Now organizing SCF variables                       ... done
                      ------------------
                      INITIAL GUESS DONE (   3.1 sec)
                      ------------------
--------------
SCF ITERATIONS
--------------
ITER       Energy         Delta-E        Max-DP      RMS-DP      [F,P]     Damp
               ***  Starting incremental Fock matrix formation  ***
  0  -2121.6785089324   0.000000000000 0.06896971  0.00120822  0.2328999 0.7000
  1  -2122.3428738460  -0.664364913546 0.05233237  0.00098014  0.1441200 0.7000
                               ***Turning on DIIS***
  2  -2122.7554045266  -0.412530680596 0.11596034  0.00222059  0.0802509 0.0000
  3  -2117.7530165391   5.002387987461 0.03026442  0.00067977  0.0442350 0.0000
  4  -2123.4187348853  -5.665718346167 0.00875134  0.00022772  0.0070781 0.0000
  5  -2123.5962902769  -0.177555391609 0.00507696  0.00013460  0.0049315 0.0000
  6  -2123.5786110822   0.017679194725 0.00334728  0.00008738  0.0019209 0.0000
  7  -2123.6825737843  -0.103962702167 0.00282449  0.00006906  0.0014987 0.0000
  8  -2123.7003576330  -0.017783848692 0.00286112  0.00006500  0.0013932 0.0000
  9  -2123.6649502429   0.035407390164 0.00231462  0.00004449  0.0010962 0.0000
 10  -2123.6787198763  -0.013769633397 0.00481173  0.00008764  0.0008337 0.0000
                      *** Initiating the SOSCF procedure ***
                           *** Shutting down DIIS ***
                      *** Re-Reading the Fockian *** 
                      *** Removing any level shift *** 
ITER      Energy       Delta-E        Grad      Rot      Max-DP    RMS-DP
 11  -2123.56261306   0.1161068152  0.000305  0.000305  0.000292  0.000007
               *** Restarting incremental Fock matrix formation ***
 12  -2123.62702764  -0.0644145786  0.000898  0.006073  0.001068  0.000027
 13  -2123.62709075  -0.0000631119  0.000951  0.024330  0.004607  0.000087
 14  -2123.62716807  -0.0000773146  0.000448  0.002298  0.000497  0.000011
 15  -2123.62717936  -0.0000112963  0.000150  0.002090  0.000546  0.000009
 16  -2123.62718381  -0.0000044485  0.000098  0.003344  0.000702  0.000013
 17  -2123.62718705  -0.0000032400  0.000136  0.003111  0.000492  0.000009
 18  -2123.62718852  -0.0000014698  0.000063  0.001585  0.000247  0.000006
 19  -2123.62718946  -0.0000009434  0.000059  0.000822  0.000157  0.000003
 20  -2123.62718981  -0.0000003493  0.000028  0.000474  0.000109  0.000002
 21  -2123.62718991  -0.0000000948  0.000020  0.000262  0.000056  0.000001
 22  -2123.62718998  -0.0000000712  0.000016  0.000376  0.000067  0.000001
 23  -2123.62719003  -0.0000000522  0.000012  0.000195  0.000055  0.000001
 24  -2123.62719005  -0.0000000203  0.000004  0.000096  0.000024  0.000000
 25  -2123.62719006  -0.0000000064  0.000003  0.000031  0.000016  0.000000
                  ***Gradient check signals convergence***
              ***Rediagonalizing the Fockian in SOSCF/NRSCF***

               *****************************************************
               *                     SUCCESS                       *
               *           SCF CONVERGED AFTER  26 CYCLES          *
               *****************************************************


----------------
TOTAL SCF ENERGY
----------------

Total Energy       :        -2123.62719006 Eh          -57786.83367 eV

Components:
Nuclear Repulsion  :         6225.32159619 Eh          169399.61274 eV
Electronic Energy  :        -8348.94878625 Eh         -227186.44641 eV
One Electron Energy:       -15291.77949796 Eh         -416110.47479 eV
Two Electron Energy:         6942.83071170 Eh          188924.02838 eV

Virial components:
Potential Energy   :        -4245.62613676 Eh         -115529.36058 eV
Kinetic Energy     :         2121.99894670 Eh           57742.52691 eV
Virial Ratio       :            2.00076732


---------------
SCF CONVERGENCE
---------------

  Last Energy change         ...   -3.4979e-09  Tolerance :   1.0000e-08
  Last MAX-Density change    ...    8.1261e-06  Tolerance :   1.0000e-07
  Last RMS-Density change    ...    1.1538e-07  Tolerance :   5.0000e-09
  Last Orbital Gradient      ...    1.9094e-06  Tolerance :   1.0000e-05
  Last Orbital Rotation      ...    2.1796e-05  Tolerance :   1.0000e-05

             **** THE GBW FILE WAS UPDATED (/scratch/allen/tmpyp4_amber_gaff2/conf1/conf1/Conf125.orca.gbw) ****
             **** DENSITY /scratch/allen/tmpyp4_amber_gaff2/conf1/conf1/Conf125.orca.scfp WAS UPDATED ****
             **** ENERGY FILE WAS UPDATED (/scratch/allen/tmpyp4_amber_gaff2/conf1/conf1/Conf125.orca.en.tmp) ****
             **** THE GBW FILE WAS UPDATED (/scratch/allen/tmpyp4_amber_gaff2/conf1/conf1/Conf125.orca.gbw) ****
             **** DENSITY /scratch/allen/tmpyp4_amber_gaff2/conf1/conf1/Conf125.orca.scfp WAS UPDATED ****
----------------
ORBITAL ENERGIES
----------------

  NO   OCC          E(Eh)            E(eV) 
   0   2.0000     -15.644745      -425.7152 
   1   2.0000     -15.639781      -425.5801 
   2   2.0000     -15.628506      -425.2733 
   3   2.0000     -15.617826      -424.9826 
   4   2.0000     -15.520003      -422.3207 
   5   2.0000     -15.515545      -422.1994 
   6   2.0000     -15.445111      -420.2828 
   7   2.0000     -15.444015      -420.2530 
   8   2.0000     -11.306177      -307.6567 
   9   2.0000     -11.302841      -307.5659 
  10   2.0000     -11.300681      -307.5072 
  11   2.0000     -11.298026      -307.4349 
  12   2.0000     -11.295913      -307.3774 
  13   2.0000     -11.295572      -307.3681 
  14   2.0000     -11.293894      -307.3225 
  15   2.0000     -11.289992      -307.2163 
  16   2.0000     -11.286050      -307.1090 
  17   2.0000     -11.285030      -307.0813 
  18   2.0000     -11.278095      -306.8926 
  19   2.0000     -11.277463      -306.8754 
  20   2.0000     -11.248878      -306.0975 
  21   2.0000     -11.243154      -305.9418 
  22   2.0000     -11.238409      -305.8127 
  23   2.0000     -11.237527      -305.7887 
  24   2.0000     -11.234946      -305.7184 
  25   2.0000     -11.234321      -305.7014 
  26   2.0000     -11.232913      -305.6631 
  27   2.0000     -11.226548      -305.4899 
  28   2.0000     -11.226412      -305.4862 
  29   2.0000     -11.224958      -305.4466 
  30   2.0000     -11.219044      -305.2857 
  31   2.0000     -11.218537      -305.2719 
  32   2.0000     -11.202334      -304.8310 
  33   2.0000     -11.201708      -304.8140 
  34   2.0000     -11.193236      -304.5834 
  35   2.0000     -11.192804      -304.5717 
  36   2.0000     -11.174786      -304.0814 
  37   2.0000     -11.173040      -304.0339 
  38   2.0000     -11.173016      -304.0332 
  39   2.0000     -11.172856      -304.0289 
  40   2.0000     -11.169061      -303.9256 
  41   2.0000     -11.168560      -303.9120 
  42   2.0000     -11.166668      -303.8605 
  43   2.0000     -11.165210      -303.8208 
  44   2.0000     -11.162207      -303.7391 
  45   2.0000     -11.160830      -303.7016 
  46   2.0000     -11.151741      -303.4543 
  47   2.0000     -11.149803      -303.4016 
  48   2.0000     -11.145185      -303.2759 
  49   2.0000     -11.142759      -303.2099 
  50   2.0000     -11.140898      -303.1593 
  51   2.0000     -11.137897      -303.0776 
  52   2.0000      -1.330465       -36.2038 
  53   2.0000      -1.326146       -36.0863 
  54   2.0000      -1.316438       -35.8221 
  55   2.0000      -1.307969       -35.5916 
  56   2.0000      -1.219126       -33.1741 
  57   2.0000      -1.212086       -32.9825 
  58   2.0000      -1.162162       -31.6240 
  59   2.0000      -1.156952       -31.4823 
  60   2.0000      -1.118443       -30.4344 
  61   2.0000      -1.113890       -30.3105 
  62   2.0000      -1.105588       -30.0846 
  63   2.0000      -1.098900       -29.9026 
  64   2.0000      -1.054197       -28.6862 
  65   2.0000      -1.049957       -28.5708 
  66   2.0000      -1.041041       -28.3282 
  67   2.0000      -1.033619       -28.1262 
  68   2.0000      -1.027541       -27.9608 
  69   2.0000      -1.010647       -27.5011 
  70   2.0000      -1.009325       -27.4651 
  71   2.0000      -0.996966       -27.1288 
  72   2.0000      -0.983461       -26.7613 
  73   2.0000      -0.975106       -26.5340 
  74   2.0000      -0.970229       -26.4013 
  75   2.0000      -0.959431       -26.1074 
  76   2.0000      -0.952400       -25.9161 
  77   2.0000      -0.943389       -25.6709 
  78   2.0000      -0.939926       -25.5767 
  79   2.0000      -0.923222       -25.1221 
  80   2.0000      -0.893597       -24.3160 
  81   2.0000      -0.880537       -23.9606 
  82   2.0000      -0.876494       -23.8506 
  83   2.0000      -0.868500       -23.6331 
  84   2.0000      -0.862958       -23.4823 
  85   2.0000      -0.856910       -23.3177 
  86   2.0000      -0.848214       -23.0811 
  87   2.0000      -0.843364       -22.9491 
  88   2.0000      -0.821704       -22.3597 
  89   2.0000      -0.798610       -21.7313 
  90   2.0000      -0.797511       -21.7014 
  91   2.0000      -0.739667       -20.1274 
  92   2.0000      -0.730724       -19.8840 
  93   2.0000      -0.729519       -19.8512 
  94   2.0000      -0.721231       -19.6257 
  95   2.0000      -0.719788       -19.5864 
  96   2.0000      -0.712245       -19.3812 
  97   2.0000      -0.708259       -19.2727 
  98   2.0000      -0.698945       -19.0193 
  99   2.0000      -0.693327       -18.8664 
 100   2.0000      -0.685510       -18.6537 
 101   2.0000      -0.680762       -18.5245 
 102   2.0000      -0.679523       -18.4908 
 103   2.0000      -0.673108       -18.3162 
 104   2.0000      -0.668499       -18.1908 
 105   2.0000      -0.665796       -18.1172 
 106   2.0000      -0.662195       -18.0192 
 107   2.0000      -0.661278       -17.9943 
 108   2.0000      -0.657845       -17.9009 
 109   2.0000      -0.656178       -17.8555 
 110   2.0000      -0.652212       -17.7476 
 111   2.0000      -0.650050       -17.6888 
 112   2.0000      -0.646419       -17.5899 
 113   2.0000      -0.642590       -17.4858 
 114   2.0000      -0.634856       -17.2753 
 115   2.0000      -0.622828       -16.9480 
 116   2.0000      -0.620505       -16.8848 
 117   2.0000      -0.616697       -16.7812 
 118   2.0000      -0.610787       -16.6204 
 119   2.0000      -0.609265       -16.5790 
 120   2.0000      -0.608166       -16.5491 
 121   2.0000      -0.603880       -16.4324 
 122   2.0000      -0.600755       -16.3474 
 123   2.0000      -0.592978       -16.1358 
 124   2.0000      -0.588859       -16.0237 
 125   2.0000      -0.585358       -15.9284 
 126   2.0000      -0.578199       -15.7336 
 127   2.0000      -0.573051       -15.5935 
 128   2.0000      -0.570927       -15.5357 
 129   2.0000      -0.560530       -15.2528 
 130   2.0000      -0.553856       -15.0712 
 131   2.0000      -0.544693       -14.8218 
 132   2.0000      -0.541678       -14.7398 
 133   2.0000      -0.535586       -14.5740 
 134   2.0000      -0.533754       -14.5242 
 135   2.0000      -0.529628       -14.4119 
 136   2.0000      -0.524530       -14.2732 
 137   2.0000      -0.522806       -14.2263 
 138   2.0000      -0.519059       -14.1243 
 139   2.0000      -0.517122       -14.0716 
 140   2.0000      -0.509348       -13.8601 
 141   2.0000      -0.505564       -13.7571 
 142   2.0000      -0.504551       -13.7295 
 143   2.0000      -0.502616       -13.6769 
 144   2.0000      -0.499709       -13.5978 
 145   2.0000      -0.498371       -13.5614 
 146   2.0000      -0.495837       -13.4924 
 147   2.0000      -0.492645       -13.4056 
 148   2.0000      -0.490523       -13.3478 
 149   2.0000      -0.469106       -12.7650 
 150   2.0000      -0.460675       -12.5356 
 151   2.0000      -0.451684       -12.2909 
 152   2.0000      -0.448467       -12.2034 
 153   2.0000      -0.446159       -12.1406 
 154   2.0000      -0.445377       -12.1193 
 155   2.0000      -0.439218       -11.9517 
 156   2.0000      -0.435328       -11.8459 
 157   2.0000      -0.431766       -11.7489 
 158   2.0000      -0.391991       -10.6666 
 159   2.0000      -0.382173       -10.3995 
 160   2.0000      -0.379876       -10.3370 
 161   2.0000      -0.372487       -10.1359 
 162   2.0000      -0.363959        -9.9038 
 163   2.0000      -0.360236        -9.8025 
 164   2.0000      -0.352760        -9.5991 
 165   2.0000      -0.346162        -9.4195 
 166   2.0000      -0.337241        -9.1768 
 167   2.0000      -0.332741        -9.0544 
 168   2.0000      -0.329461        -8.9651 
 169   2.0000      -0.300191        -8.1686 
 170   2.0000      -0.296871        -8.0783 
 171   2.0000      -0.288477        -7.8499 
 172   2.0000      -0.287140        -7.8135 
 173   2.0000      -0.255215        -6.9448 
 174   2.0000      -0.247976        -6.7478 
 175   2.0000      -0.188265        -5.1230 
 176   2.0000      -0.178163        -4.8481 
 177   2.0000      -0.067145        -1.8271 
 178   2.0000      -0.055086        -1.4990 
 179   0.0000       0.030618         0.8332 
 180   0.0000       0.070375         1.9150 
 181   0.0000       0.093060         2.5323 
 182   0.0000       0.098184         2.6717 
 183   0.0000       0.130246         3.5442 
 184   0.0000       0.133641         3.6366 
 185   0.0000       0.141925         3.8620 
 186   0.0000       0.149116         4.0576 
 187   0.0000       0.159287         4.3344 
 188   0.0000       0.161532         4.3955 
 189   0.0000       0.162278         4.4158 
 190   0.0000       0.167931         4.5696 
 191   0.0000       0.172827         4.7029 
 192   0.0000       0.199084         5.4173 
 193   0.0000       0.201749         5.4899 
 194   0.0000       0.202473         5.5096 
 195   0.0000       0.205515         5.5924 
 196   0.0000       0.208058         5.6615 
 197   0.0000       0.211139         5.7454 
 198   0.0000       0.212553         5.7839 
 199   0.0000       0.216888         5.9018 
 200   0.0000       0.233556         6.3554 
 201   0.0000       0.237105         6.4520 
 202   0.0000       0.242093         6.5877 
 203   0.0000       0.246951         6.7199 
 204   0.0000       0.251353         6.8397 
 205   0.0000       0.254056         6.9132 
 206   0.0000       0.257341         7.0026 
 207   0.0000       0.259693         7.0666 
 208   0.0000       0.263215         7.1624 
 209   0.0000       0.263912         7.1814 
 210   0.0000       0.267749         7.2858 
 211   0.0000       0.269014         7.3202 
 212   0.0000       0.272292         7.4095 
 213   0.0000       0.275495         7.4966 
 214   0.0000       0.278532         7.5793 
 215   0.0000       0.280277         7.6267 
 216   0.0000       0.280969         7.6456 
 217   0.0000       0.282323         7.6824 
 218   0.0000       0.285810         7.7773 
 219   0.0000       0.289531         7.8785 
 220   0.0000       0.290276         7.8988 
 221   0.0000       0.291646         7.9361 
 222   0.0000       0.293209         7.9786 
 223   0.0000       0.295126         8.0308 
 224   0.0000       0.299248         8.1430 
 225   0.0000       0.301942         8.2163 
 226   0.0000       0.303658         8.2630 
 227   0.0000       0.305957         8.3255 
 228   0.0000       0.306501         8.3403 
 229   0.0000       0.307778         8.3751 
 230   0.0000       0.314757         8.5650 
 231   0.0000       0.318213         8.6590 
 232   0.0000       0.325753         8.8642 
 233   0.0000       0.327277         8.9057 
 234   0.0000       0.332510         9.0481 
 235   0.0000       0.336295         9.1511 
 236   0.0000       0.355879         9.6839 
 237   0.0000       0.386609        10.5202 
 238   0.0000       0.395226        10.7547 
 239   0.0000       0.400538        10.8992 
 240   0.0000       0.406431        11.0596 
 241   0.0000       0.409947        11.1552 
 242   0.0000       0.422149        11.4873 
 243   0.0000       0.422916        11.5081 
 244   0.0000       0.431497        11.7416 
 245   0.0000       0.432890        11.7795 
 246   0.0000       0.434277        11.8173 
 247   0.0000       0.437785        11.9127 
 248   0.0000       0.441166        12.0047 
 249   0.0000       0.444181        12.0868 
 250   0.0000       0.445491        12.1224 
 251   0.0000       0.451459        12.2848 
 252   0.0000       0.455570        12.3967 
 253   0.0000       0.466795        12.7021 
 254   0.0000       0.470763        12.8101 
 255   0.0000       0.475160        12.9298 
 256   0.0000       0.482047        13.1172 
 257   0.0000       0.486518        13.2388 
 258   0.0000       0.491059        13.3624 
 259   0.0000       0.496686        13.5155 
 260   0.0000       0.500936        13.6312 
 261   0.0000       0.502425        13.6717 
 262   0.0000       0.506831        13.7916 
 263   0.0000       0.509613        13.8673 
 264   0.0000       0.511844        13.9280 
 265   0.0000       0.515047        14.0151 
 266   0.0000       0.517097        14.0709 
 267   0.0000       0.522116        14.2075 
 268   0.0000       0.536135        14.5890 
 269   0.0000       0.538153        14.6439 
 270   0.0000       0.541015        14.7218 
 271   0.0000       0.545509        14.8441 
 272   0.0000       0.546823        14.8798 
 273   0.0000       0.553406        15.0589 
 274   0.0000       0.559662        15.2292 
 275   0.0000       0.563197        15.3254 
 276   0.0000       0.574964        15.6456 
 277   0.0000       0.575964        15.6728 
 278   0.0000       0.581198        15.8152 
 279   0.0000       0.584834        15.9141 
 280   0.0000       0.587898        15.9975 
 281   0.0000       0.590903        16.0793 
 282   0.0000       0.594331        16.1726 
 283   0.0000       0.596907        16.2427 
 284   0.0000       0.600313        16.3353 
 285   0.0000       0.601713        16.3734 
 286   0.0000       0.605863        16.4864 
 287   0.0000       0.608591        16.5606 
 288   0.0000       0.610872        16.6227 
 289   0.0000       0.615962        16.7612 
 290   0.0000       0.617517        16.8035 
 291   0.0000       0.627639        17.0789 
 292   0.0000       0.638953        17.3868 
 293   0.0000       0.639747        17.4084 
 294   0.0000       0.643927        17.5222 
 295   0.0000       0.650339        17.6966 
 296   0.0000       0.657611        17.8945 
 297   0.0000       0.659139        17.9361 
 298   0.0000       0.660949        17.9853 
 299   0.0000       0.664555        18.0835 
 300   0.0000       0.670728        18.2514 
 301   0.0000       0.673006        18.3134 
 302   0.0000       0.678656        18.4672 
 303   0.0000       0.681208        18.5366 
 304   0.0000       0.682993        18.5852 
 305   0.0000       0.685651        18.6575 
 306   0.0000       0.689964        18.7749 
 307   0.0000       0.693919        18.8825 
 308   0.0000       0.697339        18.9756 
 309   0.0000       0.701579        19.0909 
 310   0.0000       0.704252        19.1637 
 311   0.0000       0.705785        19.2054 
 312   0.0000       0.706740        19.2314 
 313   0.0000       0.708844        19.2886 
 314   0.0000       0.711868        19.3709 
 315   0.0000       0.713960        19.4278 
 316   0.0000       0.715335        19.4652 
 317   0.0000       0.718624        19.5548 
 318   0.0000       0.718690        19.5565 
 319   0.0000       0.723035        19.6748 
 320   0.0000       0.726786        19.7768 
 321   0.0000       0.729506        19.8509 
 322   0.0000       0.730288        19.8721 
 323   0.0000       0.734362        19.9830 
 324   0.0000       0.738476        20.0950 
 325   0.0000       0.741886        20.1877 
 326   0.0000       0.745135        20.2761 
 327   0.0000       0.745387        20.2830 
 328   0.0000       0.746939        20.3252 
 329   0.0000       0.749507        20.3951 
 330   0.0000       0.751257        20.4427 
 331   0.0000       0.753904        20.5148 
 332   0.0000       0.757079        20.6012 
 333   0.0000       0.763584        20.7782 
 334   0.0000       0.766497        20.8575 
 335   0.0000       0.770988        20.9797 
 336   0.0000       0.774592        21.0777 
 337   0.0000       0.777590        21.1593 
 338   0.0000       0.783526        21.3208 
 339   0.0000       0.788508        21.4564 
 340   0.0000       0.791754        21.5447 
 341   0.0000       0.793208        21.5843 
 342   0.0000       0.794703        21.6250 
 343   0.0000       0.799777        21.7630 
 344   0.0000       0.804074        21.8800 
 345   0.0000       0.807482        21.9727 
 346   0.0000       0.808835        22.0095 
 347   0.0000       0.811810        22.0905 
 348   0.0000       0.814061        22.1517 
 349   0.0000       0.817698        22.2507 
 350   0.0000       0.819474        22.2990 
 351   0.0000       0.823735        22.4150 
 352   0.0000       0.827218        22.5098 
 353   0.0000       0.827916        22.5287 
 354   0.0000       0.831788        22.6341 
 355   0.0000       0.832235        22.6463 
 356   0.0000       0.833922        22.6922 
 357   0.0000       0.834816        22.7165 
 358   0.0000       0.836373        22.7589 
 359   0.0000       0.838799        22.8249 
 360   0.0000       0.840397        22.8684 
 361   0.0000       0.841839        22.9076 
 362   0.0000       0.843920        22.9642 
 363   0.0000       0.844673        22.9847 
 364   0.0000       0.846409        23.0320 
 365   0.0000       0.848934        23.1007 
 366   0.0000       0.850817        23.1519 
 367   0.0000       0.852874        23.2079 
 368   0.0000       0.858086        23.3497 
 369   0.0000       0.860695        23.4207 
 370   0.0000       0.865624        23.5548 
 371   0.0000       0.866847        23.5881 
 372   0.0000       0.871809        23.7231 
 373   0.0000       0.876011        23.8375 
 374   0.0000       0.879042        23.9200 
 375   0.0000       0.882444        24.0125 
 376   0.0000       0.885217        24.0880 
 377   0.0000       0.890095        24.2207 
 378   0.0000       0.895390        24.3648 
 379   0.0000       0.895618        24.3710 
 380   0.0000       0.897170        24.4132 
 381   0.0000       0.900548        24.5052 
 382   0.0000       0.902615        24.5614 
 383   0.0000       0.903974        24.5984 
 384   0.0000       0.906142        24.6574 
 385   0.0000       0.906382        24.6639 
 386   0.0000       0.909223        24.7412 
 387   0.0000       0.910940        24.7879 
 388   0.0000       0.911397        24.8004 
 389   0.0000       0.914953        24.8971 
 390   0.0000       0.918935        25.0055 
 391   0.0000       0.919943        25.0329 
 392   0.0000       0.922820        25.1112 
 393   0.0000       0.924346        25.1527 
 394   0.0000       0.925235        25.1769 
 395   0.0000       0.931824        25.3562 
 396   0.0000       0.932937        25.3865 
 397   0.0000       0.937069        25.4990 
 398   0.0000       0.937919        25.5221 
 399   0.0000       0.942017        25.6336 
 400   0.0000       0.942517        25.6472 
 401   0.0000       0.945558        25.7300 
 402   0.0000       0.950143        25.8547 
 403   0.0000       0.950763        25.8716 
 404   0.0000       0.952697        25.9242 
 405   0.0000       0.957739        26.0614 
 406   0.0000       0.958938        26.0940 
 407   0.0000       0.962725        26.1971 
 408   0.0000       0.966703        26.3053 
 409   0.0000       0.970809        26.4170 
 410   0.0000       0.973700        26.4957 
 411   0.0000       0.976236        26.5647 
 412   0.0000       0.981729        26.7142 
 413   0.0000       0.985326        26.8121 
 414   0.0000       0.988790        26.9064 
 415   0.0000       0.989728        26.9319 
 416   0.0000       0.998601        27.1733 
 417   0.0000       1.001300        27.2468 
 418   0.0000       1.007517        27.4159 
 419   0.0000       1.014204        27.5979 
 420   0.0000       1.023794        27.8588 
 421   0.0000       1.025415        27.9030 
 422   0.0000       1.032692        28.1010 
 423   0.0000       1.039703        28.2918 
 424   0.0000       1.046229        28.4693 
 425   0.0000       1.048686        28.5362 
 426   0.0000       1.053872        28.6773 
 427   0.0000       1.062478        28.9115 
 428   0.0000       1.064890        28.9771 
 429   0.0000       1.073085        29.2001 
 430   0.0000       1.077065        29.3084 
 431   0.0000       1.080431        29.4000 
 432   0.0000       1.086075        29.5536 
 433   0.0000       1.089952        29.6591 
 434   0.0000       1.094735        29.7892 
 435   0.0000       1.103716        30.0336 
 436   0.0000       1.107825        30.1455 
 437   0.0000       1.110196        30.2100 
 438   0.0000       1.115804        30.3626 
 439   0.0000       1.118844        30.4453 
 440   0.0000       1.120086        30.4791 
 441   0.0000       1.125172        30.6175 
 442   0.0000       1.130483        30.7620 
 443   0.0000       1.131652        30.7938 
 444   0.0000       1.134056        30.8592 
 445   0.0000       1.134732        30.8776 
 446   0.0000       1.135475        30.8978 
 447   0.0000       1.139850        31.0169 
 448   0.0000       1.144965        31.1561 
 449   0.0000       1.145718        31.1766 
 450   0.0000       1.151889        31.3445 
 451   0.0000       1.152441        31.3595 
 452   0.0000       1.154330        31.4109 
 453   0.0000       1.155768        31.4500 
 454   0.0000       1.159608        31.5545 
 455   0.0000       1.166713        31.7479 
 456   0.0000       1.174927        31.9714 
 457   0.0000       1.177584        32.0437 
 458   0.0000       1.182074        32.1659 
 459   0.0000       1.185135        32.2492 
 460   0.0000       1.187987        32.3268 
 461   0.0000       1.190033        32.3824 
 462   0.0000       1.199558        32.6416 
 463   0.0000       1.204308        32.7709 
 464   0.0000       1.206891        32.8412 
 465   0.0000       1.209034        32.8995 
 466   0.0000       1.215144        33.0658 
 467   0.0000       1.215669        33.0800 
 468   0.0000       1.221750        33.2455 
 469   0.0000       1.228764        33.4364 
 470   0.0000       1.233795        33.5733 
 471   0.0000       1.234951        33.6047 
 472   0.0000       1.235751        33.6265 
 473   0.0000       1.240707        33.7614 
 474   0.0000       1.242167        33.8011 
 475   0.0000       1.246874        33.9292 
 476   0.0000       1.250493        34.0276 
 477   0.0000       1.253376        34.1061 
 478   0.0000       1.254976        34.1496 
 479   0.0000       1.256499        34.1911 
 480   0.0000       1.260234        34.2927 
 481   0.0000       1.263640        34.3854 
 482   0.0000       1.268556        34.5192 
 483   0.0000       1.269659        34.5492 
 484   0.0000       1.276217        34.7276 
 485   0.0000       1.276982        34.7484 
 486   0.0000       1.282369        34.8950 
 487   0.0000       1.285214        34.9725 
 488   0.0000       1.289549        35.0904 
 489   0.0000       1.290582        35.1185 
 490   0.0000       1.293263        35.1915 
 491   0.0000       1.300272        35.3822 
 492   0.0000       1.303564        35.4718 
 493   0.0000       1.310116        35.6501 
 494   0.0000       1.314410        35.7669 
 495   0.0000       1.315966        35.8093 
 496   0.0000       1.318943        35.8903 
 497   0.0000       1.319681        35.9103 
 498   0.0000       1.325646        36.0727 
 499   0.0000       1.330283        36.1988 
 500   0.0000       1.334489        36.3133 
 501   0.0000       1.337493        36.3950 
 502   0.0000       1.341291        36.4984 
 503   0.0000       1.344288        36.5799 
 504   0.0000       1.350498        36.7489 
 505   0.0000       1.352275        36.7973 
 506   0.0000       1.354201        36.8497 
 507   0.0000       1.355296        36.8795 
 508   0.0000       1.357859        36.9492 
 509   0.0000       1.361152        37.0388 
 510   0.0000       1.365168        37.1481 
 511   0.0000       1.368304        37.2334 
 512   0.0000       1.371164        37.3113 
[...]
      pz      :     0.021988  p :     0.079598
      px      :     0.043343
      py      :     0.014266
 77 H s       :     0.888532  s :     0.888532
      pz      :     0.047673  p :     0.078940
      px      :     0.015013
      py      :     0.016254
 78 H s       :     0.888952  s :     0.888952
      pz      :     0.025725  p :     0.078878
      px      :     0.020544
      py      :     0.032609
 79 H s       :     0.909128  s :     0.909128
      pz      :     0.022061  p :     0.086665
      px      :     0.021755
      py      :     0.042849
 80 H s       :     0.870044  s :     0.870044
      pz      :     0.038935  p :     0.084209
      px      :     0.029976
      py      :     0.015298
 81 H s       :     0.887189  s :     0.887189
      pz      :     0.037763  p :     0.083904
      px      :     0.016150
      py      :     0.029991
 82 H s       :     0.915427  s :     0.915427
      pz      :     0.022115  p :     0.086839
      px      :     0.031387
      py      :     0.033337
 83 H s       :     0.872912  s :     0.872912
      pz      :     0.039242  p :     0.083991
      px      :     0.015260
      py      :     0.029489
 84 H s       :     0.887190  s :     0.887190
      pz      :     0.035779  p :     0.083682
      px      :     0.031716
      py      :     0.016188
 85 H s       :     0.893689  s :     0.893689
      pz      :     0.022495  p :     0.079735
      px      :     0.014090
      py      :     0.043150
 86 H s       :     0.890851  s :     0.890851
      pz      :     0.024723  p :     0.078851
      px      :     0.032989
      py      :     0.021139
 87 H s       :     0.890146  s :     0.890146
      pz      :     0.047972  p :     0.078707
      px      :     0.015605
      py      :     0.015131
 88 H s       :     0.913483  s :     0.913483
      pz      :     0.022027  p :     0.086973
      px      :     0.042563
      py      :     0.022383
 89 H s       :     0.871977  s :     0.871977
      pz      :     0.037926  p :     0.083898
      px      :     0.030497
      py      :     0.015475


                      *****************************
                      * MAYER POPULATION ANALYSIS *
                      *****************************

  NA   - Mulliken gross atomic population
  ZA   - Total nuclear charge
  QA   - Mulliken gross atomic charge
  VA   - Mayer's total valence
  BVA  - Mayer's bonded valence
  FA   - Mayer's free valence

  ATOM       NA         ZA         QA         VA         BVA        FA
  0 C      5.7953     6.0000     0.2047     3.8316     3.8316    -0.0000
  1 N      7.4455     7.0000    -0.4455     3.3567     3.3567    -0.0000
  2 C      6.0647     6.0000    -0.0647     3.9185     3.9185     0.0000
  3 N      7.3373     7.0000    -0.3373     3.4482     3.4482    -0.0000
  4 C      6.0703     6.0000    -0.0703     3.9839     3.9839     0.0000
  5 N      7.5618     7.0000    -0.5618     3.0877     3.0877     0.0000
  6 C      6.0728     6.0000    -0.0728     3.9993     3.9993     0.0000
  7 N      7.3386     7.0000    -0.3386     3.4392     3.4392    -0.0000
  8 C      5.7967     6.0000     0.2033     3.8315     3.8315    -0.0000
  9 N      7.5629     7.0000    -0.5629     3.0831     3.0831     0.0000
 10 C      5.8843     6.0000     0.1157     3.8983     3.8983    -0.0000
 11 N      7.4372     7.0000    -0.4372     3.3852     3.3852     0.0000
 12 C      6.0714     6.0000    -0.0714     3.9176     3.9176     0.0000
 13 N      7.4376     7.0000    -0.4376     3.3897     3.3897     0.0000
 14 C      5.7648     6.0000     0.2352     3.7895     3.7895     0.0000
 15 N      7.4409     7.0000    -0.4409     3.3711     3.3711     0.0000
 16 C      5.7664     6.0000     0.2336     3.7875     3.7875     0.0000
 17 C      6.0724     6.0000    -0.0724     3.9994     3.9994     0.0000
 18 C      6.1940     6.0000    -0.1940     3.7563     3.7563     0.0000
 19 C      5.7755     6.0000     0.2245     3.8759     3.8759     0.0000
 20 C      5.7899     6.0000     0.2101     3.8257     3.8257     0.0000
 21 C      6.0784     6.0000    -0.0784     3.9075     3.9075     0.0000
 22 C      6.0862     6.0000    -0.0862     3.9830     3.9830    -0.0000
 23 C      6.0470     6.0000    -0.0470     3.9904     3.9904    -0.0000
 24 C      5.7957     6.0000     0.2043     3.8228     3.8228    -0.0000
 25 C      5.8863     6.0000     0.1137     3.8894     3.8894     0.0000
 26 C      6.0734     6.0000    -0.0734     3.9035     3.9035    -0.0000
 27 C      5.7799     6.0000     0.2201     3.8790     3.8790    -0.0000
 28 C      6.0540     6.0000    -0.0540     3.9880     3.9880     0.0000
 29 C      6.1839     6.0000    -0.1839     3.7369     3.7369    -0.0000
 30 C      5.7623     6.0000     0.2377     3.7938     3.7938    -0.0000
 31 C      5.7844     6.0000     0.2156     3.8252     3.8252     0.0000
 32 C      6.0641     6.0000    -0.0641     3.9191     3.9191    -0.0000
 33 C      6.0769     6.0000    -0.0769     3.9821     3.9821    -0.0000
 34 C      6.0497     6.0000    -0.0497     3.9903     3.9903     0.0000
 35 C      5.7912     6.0000     0.2088     3.8232     3.8232     0.0000
 36 C      5.8871     6.0000     0.1129     3.8879     3.8879     0.0000
 37 C      6.0661     6.0000    -0.0661     3.9176     3.9176     0.0000
 38 C      5.7637     6.0000     0.2363     3.8002     3.8002    -0.0000
 39 C      6.0611     6.0000    -0.0611     3.9894     3.9894    -0.0000
 40 C      6.1871     6.0000    -0.1871     3.7379     3.7379    -0.0000
 41 C      5.7790     6.0000     0.2210     3.8820     3.8820    -0.0000
 42 C      5.7984     6.0000     0.2016     3.8273     3.8273     0.0000
 43 C      6.0736     6.0000    -0.0736     3.9024     3.9024    -0.0000
 44 C      6.0895     6.0000    -0.0895     3.9855     3.9855     0.0000
 45 C      6.0548     6.0000    -0.0548     3.9925     3.9925    -0.0000
 46 C      5.7953     6.0000     0.2047     3.8264     3.8264     0.0000
 47 C      5.8843     6.0000     0.1157     3.8938     3.8938    -0.0000
 48 C      6.0734     6.0000    -0.0734     3.9050     3.9050    -0.0000
 49 C      5.7716     6.0000     0.2284     3.8864     3.8864    -0.0000
 50 C      6.0514     6.0000    -0.0514     3.9904     3.9904     0.0000
 51 C      6.1909     6.0000    -0.1909     3.7371     3.7371     0.0000
 52 H      0.9494     1.0000     0.0506     0.9854     0.9854    -0.0000
 53 H      1.0147     1.0000    -0.0147     0.9989     0.9989     0.0000
 54 H      0.9539     1.0000     0.0461     1.0079     1.0079    -0.0000
 55 H      0.9504     1.0000     0.0496     0.9859     0.9859    -0.0000
 56 H      0.9433     1.0000     0.0567     0.9710     0.9710    -0.0000
 57 H      0.9455     1.0000     0.0545     0.9828     0.9828    -0.0000
 58 H      0.9464     1.0000     0.0536     0.9860     0.9860    -0.0000
 59 H      1.0098     1.0000    -0.0098     1.0002     1.0002     0.0000
 60 H      0.9559     1.0000     0.0441     1.0106     1.0106    -0.0000
 61 H      0.8277     1.0000     0.1723     1.0423     1.0423    -0.0000
 62 H      0.8264     1.0000     0.1736     1.0435     1.0435    -0.0000
 63 H      0.9428     1.0000     0.0572     0.9853     0.9853    -0.0000
 64 H      1.0173     1.0000    -0.0173     0.9958     0.9958     0.0000
 65 H      0.9532     1.0000     0.0468     1.0094     1.0094     0.0000
 66 H      0.9423     1.0000     0.0577     0.9850     0.9850    -0.0000
 67 H      0.9365     1.0000     0.0635     0.9720     0.9720     0.0000
 68 H      0.9417     1.0000     0.0583     0.9868     0.9868    -0.0000
 69 H      0.9412     1.0000     0.0588     0.9830     0.9830     0.0000
 70 H      1.0255     1.0000    -0.0255     0.9936     0.9936    -0.0000
 71 H      0.9519     1.0000     0.0481     1.0065     1.0065    -0.0000
 72 H      0.9404     1.0000     0.0596     0.9847     0.9847     0.0000
 73 H      1.0128     1.0000    -0.0128     0.9991     0.9991    -0.0000
 74 H      0.9503     1.0000     0.0497     1.0100     1.0100     0.0000
 75 H      0.9413     1.0000     0.0587     0.9852     0.9852     0.0000
 76 H      0.9352     1.0000     0.0648     0.9717     0.9717     0.0000
 77 H      0.9398     1.0000     0.0602     0.9852     0.9852     0.0000
 78 H      0.9406     1.0000     0.0594     0.9848     0.9848     0.0000
 79 H      1.0141     1.0000    -0.0141     0.9991     0.9991    -0.0000
 80 H      0.9500     1.0000     0.0500     1.0071     1.0071    -0.0000
 81 H      0.9464     1.0000     0.0536     0.9855     0.9855    -0.0000
 82 H      1.0242     1.0000    -0.0242     0.9939     0.9939    -0.0000
 83 H      0.9576     1.0000     0.0424     1.0091     1.0091    -0.0000
 84 H      0.9470     1.0000     0.0530     0.9855     0.9855     0.0000
 85 H      0.9409     1.0000     0.0591     0.9716     0.9716    -0.0000
 86 H      0.9441     1.0000     0.0559     0.9840     0.9840    -0.0000
 87 H      0.9433     1.0000     0.0567     0.9856     0.9856    -0.0000
 88 H      1.0205     1.0000    -0.0205     0.9949     0.9949     0.0000
 89 H      0.9546     1.0000     0.0454     1.0068     1.0068     0.0000

  Mayer bond orders larger than 0.100000
B(  0-C ,  1-N ) :   1.1076 B(  0-C , 17-C ) :   1.6546 B(  0-C , 52-H ) :   0.9692 
B(  1-N ,  8-C ) :   1.1044 B(  1-N , 10-C ) :   0.9668 B(  2-C , 12-C ) :   1.5310 
B(  2-C , 16-C ) :   1.3294 B(  2-C , 53-H ) :   0.9776 B(  3-N , 14-C ) :   1.2069 
B(  3-N , 16-C ) :   1.1943 B(  3-N , 61-H ) :   0.8988 B(  4-C ,  6-C ) :   1.2474 
B(  4-C , 17-C ) :   1.2503 B(  4-C , 18-C ) :   1.3112 B(  5-N , 19-C ) :   1.4282 
B(  5-N , 27-C ) :   1.3988 B(  6-C ,  8-C ) :   1.6569 B(  6-C , 54-H ) :   0.9703 
B(  7-N , 30-C ) :   1.1927 B(  7-N , 38-C ) :   1.1997 B(  7-N , 62-H ) :   0.8979 
B(  8-C , 55-H ) :   0.9702 B(  9-N , 41-C ) :   1.4035 B(  9-N , 49-C ) :   1.4200 
B( 10-C , 56-H ) :   0.9763 B( 10-C , 57-H ) :   0.9826 B( 10-C , 58-H ) :   0.9831 
B( 11-N , 20-C ) :   1.1276 B( 11-N , 24-C ) :   1.1214 B( 11-N , 25-C ) :   0.9577 
B( 12-C , 14-C ) :   1.3318 B( 12-C , 59-H ) :   0.9766 B( 13-N , 31-C ) :   1.1326 
B( 13-N , 35-C ) :   1.1252 B( 13-N , 36-C ) :   0.9558 B( 14-C , 18-C ) :   1.1817 
B( 15-N , 42-C ) :   1.1133 B( 15-N , 46-C ) :   1.1161 B( 15-N , 47-C ) :   0.9624 
B( 16-C , 51-C ) :   1.1947 B( 17-C , 60-H ) :   0.9701 B( 18-C , 19-C ) :   1.1942 
B( 19-C , 21-C ) :   1.2203 B( 20-C , 28-C ) :   1.6223 B( 20-C , 63-H ) :   0.9702 
B( 21-C , 26-C ) :   1.6358 B( 21-C , 64-H ) :   0.9729 B( 22-C , 23-C ) :   1.2864 
B( 22-C , 28-C ) :   1.2742 B( 22-C , 29-C ) :   1.2246 B( 23-C , 24-C ) :   1.6165 
B( 23-C , 65-H ) :   0.9708 B( 24-C , 66-H ) :   0.9692 B( 25-C , 67-H ) :   0.9761 
B( 25-C , 68-H ) :   0.9829 B( 25-C , 69-H ) :   0.9821 B( 26-C , 27-C ) :   1.2161 
B( 26-C , 70-H ) :   0.9728 B( 27-C , 29-C ) :   1.2256 B( 28-C , 71-H ) :   0.9715 
B( 29-C , 30-C ) :   1.2205 B( 30-C , 32-C ) :   1.3034 B( 31-C , 39-C ) :   1.6215 
B( 31-C , 72-H ) :   0.9693 B( 32-C , 37-C ) :   1.5551 B( 32-C , 73-H ) :   0.9779 
B( 33-C , 34-C ) :   1.2827 B( 33-C , 39-C ) :   1.2753 B( 33-C , 40-C ) :   1.2323 
B( 34-C , 35-C ) :   1.6182 B( 34-C , 74-H ) :   0.9702 B( 35-C , 75-H ) :   0.9693 
B( 36-C , 76-H ) :   0.9764 B( 36-C , 77-H ) :   0.9820 B( 36-C , 78-H ) :   0.9829 
B( 37-C , 38-C ) :   1.3054 B( 37-C , 79-H ) :   0.9776 B( 38-C , 40-C ) :   1.2151 
B( 39-C , 80-H ) :   0.9713 B( 40-C , 41-C ) :   1.2246 B( 41-C , 43-C ) :   1.2096 
B( 42-C , 50-C ) :   1.6342 B( 42-C , 81-H ) :   0.9696 B( 43-C , 48-C ) :   1.6418 
B( 43-C , 82-H ) :   0.9733 B( 44-C , 45-C ) :   1.2683 B( 44-C , 50-C ) :   1.2676 
B( 44-C , 51-C ) :   1.2586 B( 45-C , 46-C ) :   1.6338 B( 45-C , 83-H ) :   0.9713 
B( 46-C , 84-H ) :   0.9702 B( 47-C , 85-H ) :   0.9761 B( 47-C , 86-H ) :   0.9828 
B( 47-C , 87-H ) :   0.9826 B( 48-C , 49-C ) :   1.2104 B( 48-C , 88-H ) :   0.9741 
B( 49-C , 51-C ) :   1.2208 B( 50-C , 89-H ) :   0.9712 

-------
TIMINGS
-------

Total SCF time: 0 days 0 hours 28 min 46 sec 

Total time                  ....    1726.056 sec
Sum of individual times     ....    1721.605 sec  ( 99.7%)

Fock matrix formation       ....    1699.502 sec  ( 98.5%)
Diagonalization             ....       6.922 sec  (  0.4%)
Density matrix formation    ....       0.621 sec  (  0.0%)
Population analysis         ....       0.522 sec  (  0.0%)
Initial guess               ....       2.045 sec  (  0.1%)
Orbital Transformation      ....       0.000 sec  (  0.0%)
Orbital Orthonormalization  ....       0.000 sec  (  0.0%)
DIIS solution               ....       3.482 sec  (  0.2%)
SOSCF solution              ....       7.461 sec  (  0.4%)

Maximum memory used throughout the entire SCF-calculation: 302.6 MB


           ************************************************************
           *        Program running with 16 parallel MPI-processes    *
           *              working on a common directory               *
           ************************************************************

------------------------------------------------------------------------------
                                ORCA  MP2 
------------------------------------------------------------------------------

Freezing NCore=104 chemical core electrons

----------
MP2 ENERGY (disk based algorithm)
----------

Dimension of the basis                    ...  918
Memory devoted to MP2                     ... 2000 MB   
Data format for buffers                   ... DOUBLE
Compression type for matrix containers    ... UNCOMPRESSED

-------------------------------
PARTIAL EXCHANGE TRANSFORMATION
-------------------------------

Transformation type                        ... one-operator
Generation of integrals (i,mue|j,nue)      ... ON
Generation of integrals (mue,kappa|nue,tau)... OFF
Generation of integrals (i,mue|a,nue)      ... OFF
Dimension of the basis                     ...  918
Number of internal MOs                     ...  127 (  52- 178)
Pair cutoff                                ... 2.500e-12 Eh
Number of AO pairs in the trafo            ... 421821
Total Number of distinct AO pairs          ... 421821
Memory devoted for trafo                   ... 2000.0 MB 
Max. Number of MO pairs treated together   ...  311      
Number Format for Storage                  ... Double (8 Byte)
Integral package used                      ... LIBINT

Starting integral evaluation:
    ... done with AO integral generation
Closing buffer AOK     (38.18 GB; CompressionRatio= 1.33)
Collecting buffer AOK 
Number of MO pairs included in the trafo   ... 8128
------------------------
SORTING OF (i,mue|j,nue)
------------------------

IBATCH = 1 of  2
IBATCH = 2 of  2
Closing buffer KAO     (51.03 GB; CompressionRatio= 1.00)
Collecting buffer KAO 
N(AO-Batches) Done                         ...  85332910 
N(AO-Batches) Skipped                      ...  82497418 
N(IJ)-pairs Skipped                        ...         0 
TOTAL TIME for half transformation         ...  3105.902 sec
AO-integral generation                     ...   208.545 sec
Half transformation                        ...   369.018 sec
K-integral sorting                         ...  2339.720 sec
Process 10:   Internal MO 132
Process 13:   Internal MO 156

Finished integral transformation - now doing MP2 part

OPERATOR COMBINATION   0   0: ij=( 52..178, 52..178)
Process  1:   Internal MO  60
Process  4:   Internal MO  84
Process  7:   Internal MO 108
Process  0:   Internal MO  54
Process  0:   Internal MO  57
Process  2:   Internal MO  69
Process  1:   Internal MO  63
Process  3:   Internal MO  78
Process  5:   Internal MO  93
Process  8:   Internal MO 117
Process  2:   Internal MO  72
Process  1:   Internal MO  66
Process  4:   Internal MO  87
Process 14:   Internal MO 165
Process 11:   Internal MO 141
Process  2:   Internal MO  75
Process  9:   Internal MO 126
Process  3:   Internal MO  81
Process  6:   Internal MO 102
Process  5:   Internal MO  96
Process 12:   Internal MO 150
Process  4:   Internal MO  90
Process 15:   Internal MO 174
Process 10:   Internal MO 135
Process  8:   Internal MO 120
Process  6:   Internal MO 105
Process  9:   Internal MO 129
Process  5:   Internal MO  99
Process 13:   Internal MO 159
Process 11:   Internal MO 144
Process  7:   Internal MO 111
Process 10:   Internal MO 138
Process 14:   Internal MO 168
Process 12:   Internal MO 153
Process 15:   Internal MO 177
Process  8:   Internal MO 123
Process  7:   Internal MO 114
Process 13:   Internal MO 162
Process 11:   Internal MO 147
Process 14:   Internal MO 171
-----------------------------------------------
 MP2 CORRELATION ENERGY   :     -7.288741843 Eh
-----------------------------------------------


-------
TIMINGS
-------
Total time                : 3458.195 sec
Integral trafo            : 3108.117 sec ( 89.9%)
K(i,j)                    :    5.983 sec (  0.2%)
T(i,j)                    :    0.084 sec (  0.0%)

---------------------------------------
MP2 TOTAL ENERGY:    -2130.915931905 Eh
---------------------------------------

Maximum memory used throughout the entire MP2-calculation: 2275.2 MB

-------------------------   --------------------
FINAL SINGLE POINT ENERGY     -2130.915931904999
-------------------------   --------------------


                            ***************************************
                            *     ORCA property calculations      *
                            ***************************************


  WARNING: The energy has been calculated at the MP2 level but the densities
           used in the property calculations are still SCF densities
           MP2 response densities have not been calculated 
           use %mp2 Density relaxed end
           or  %mp2 Density unrelaxed end

                                    ---------------------
                                    Active property flags
                                    ---------------------
   (+) Dipole Moment


------------------------------------------------------------------------------
                       ORCA ELECTRIC PROPERTIES CALCULATION
------------------------------------------------------------------------------

Dipole Moment Calculation                       ... on
Quadrupole Moment Calculation                   ... off
Polarizability Calculation                      ... off
GBWName                                         ... /scratch/allen/tmpyp4_amber_gaff2/conf1/conf1/Conf125.orca.gbw
Electron density                                ... /scratch/allen/tmpyp4_amber_gaff2/conf1/conf1/Conf125.orca.scfp
The origin for moment calculation is the CENTER OF MASS  = ( 0.002893, -0.002181  0.003043)

-------------
DIPOLE MOMENT
-------------
                                X             Y             Z
Electronic contribution:      0.30158      -1.63636      -0.21045
Nuclear contribution   :      0.00744       0.19118       0.22778
                        -----------------------------------------
Total Dipole Moment    :      0.30902      -1.44518       0.01733
                        -----------------------------------------
Magnitude (a.u.)       :      1.47795
Magnitude (Debye)      :      3.75664



--------------------
Rotational spectrum 
--------------------
 
Rotational constants in cm-1:     0.001498     0.001475     0.000762 
Rotational constants in MHz :    44.921054    44.215804    22.842773 

 Dipole components along the rotational axes: 
x,y,z [a.u.] :     0.774390    -1.258662     0.020384 
x,y,z [Debye]:     1.968344    -3.199265     0.051813 

 

Timings for individual modules:

Sum of individual times         ...     5206.104 sec (=  86.768 min)
GTO integral calculation        ...        3.298 sec (=   0.055 min)   0.1 %
SCF iterations                  ...     1727.135 sec (=  28.786 min)  33.2 %
MP2 module                      ...     3475.671 sec (=  57.928 min)  66.8 %
                             ****ORCA TERMINATED NORMALLY****
TOTAL RUN TIME: 0 days 1 hours 26 minutes 49 seconds 516 msec
# of primitive gaussian functions

