
                                 *****************
                                 * O   R   C   A *
                                 *****************

                                            #,                                       
                                            ###                                      
                                            ####                                     
                                            #####                                    
                                            ######                                   
                                           ########,                                 
                                     ,,################,,,,,                         
                               ,,#################################,,                 
                          ,,##########################################,,             
                       ,#########################################, ''#####,          
                    ,#############################################,,   '####,        
                  ,##################################################,,,,####,       
                ,###########''''           ''''###############################       
              ,#####''   ,,,,##########,,,,          '''####'''          '####       
            ,##' ,,,,###########################,,,                        '##       
           ' ,,###''''                  '''############,,,                           
         ,,##''                                '''############,,,,        ,,,,,,###''
      ,#''                                            '''#######################'''  
     '                                                          ''''####''''         
             ,#######,   #######,   ,#######,      ##                                
            ,#'     '#,  ##    ##  ,#'     '#,    #''#        ######   ,####,        
            ##       ##  ##   ,#'  ##            #'  '#       #        #'  '#        
            ##       ##  #######   ##           ,######,      #####,   #    #        
            '#,     ,#'  ##    ##  '#,     ,#' ,#      #,         ##   #,  ,#        
             '#######'   ##     ##  '#######'  #'      '#     #####' # '####'        



                  #######################################################
                  #                        -***-                        #
                  #          Department of theory and spectroscopy      #
                  #    Directorship and core code : Frank Neese         #
                  #        Max Planck Institute fuer Kohlenforschung    #
                  #                Kaiser Wilhelm Platz 1               #
                  #                 D-45470 Muelheim/Ruhr               #
                  #                      Germany                        #
                  #                                                     #
                  #                  All rights reserved                #
                  #                        -***-                        #
                  #######################################################


                         Program Version 5.0.4 -  RELEASE  -


 With contributions from (in alphabetic order):
   Daniel Aravena         : Magnetic Suceptibility
   Michael Atanasov       : Ab Initio Ligand Field Theory (pilot matlab implementation)
   Alexander A. Auer      : GIAO ZORA, VPT2 properties, NMR spectrum
   Ute Becker             : Parallelization
   Giovanni Bistoni       : ED, misc. LED, open-shell LED, HFLD
   Martin Brehm           : Molecular dynamics
   Dmytro Bykov           : SCF Hessian
   Vijay G. Chilkuri      : MRCI spin determinant printing, contributions to CSF-ICE
   Dipayan Datta          : RHF DLPNO-CCSD density
   Achintya Kumar Dutta   : EOM-CC, STEOM-CC
   Dmitry Ganyushin       : Spin-Orbit,Spin-Spin,Magnetic field MRCI
   Miquel Garcia          : C-PCM and meta-GGA Hessian, CC/C-PCM, Gaussian charge scheme
   Yang Guo               : DLPNO-NEVPT2, F12-NEVPT2, CIM, IAO-localization
   Andreas Hansen         : Spin unrestricted coupled pair/coupled cluster methods
   Benjamin Helmich-Paris : MC-RPA, TRAH-SCF, COSX integrals
   Lee Huntington         : MR-EOM, pCC
   Robert Izsak           : Overlap fitted RIJCOSX, COSX-SCS-MP3, EOM
   Marcus Kettner         : VPT2
   Christian Kollmar      : KDIIS, OOCD, Brueckner-CCSD(T), CCSD density, CASPT2, CASPT2-K
   Simone Kossmann        : Meta GGA functionals, TD-DFT gradient, OOMP2, MP2 Hessian
   Martin Krupicka        : Initial AUTO-CI
   Lucas Lang             : DCDCAS
   Marvin Lechner         : AUTO-CI (C++ implementation), FIC-MRCC
   Dagmar Lenk            : GEPOL surface, SMD
   Dimitrios Liakos       : Extrapolation schemes; Compound Job, initial MDCI parallelization
   Dimitrios Manganas     : Further ROCIS development; embedding schemes
   Dimitrios Pantazis     : SARC Basis sets
   Anastasios Papadopoulos: AUTO-CI, single reference methods and gradients
   Taras Petrenko         : DFT Hessian,TD-DFT gradient, ASA, ECA, R-Raman, ABS, FL, XAS/XES, NRVS
   Peter Pinski           : DLPNO-MP2, DLPNO-MP2 Gradient
   Christoph Reimann      : Effective Core Potentials
   Marius Retegan         : Local ZFS, SOC
   Christoph Riplinger    : Optimizer, TS searches, QM/MM, DLPNO-CCSD(T), (RO)-DLPNO pert. Triples
   Tobias Risthaus        : Range-separated hybrids, TD-DFT gradient, RPA, STAB
   Michael Roemelt        : Original ROCIS implementation
   Masaaki Saitow         : Open-shell DLPNO-CCSD energy and density
   Barbara Sandhoefer     : DKH picture change effects
   Avijit Sen             : IP-ROCIS
   Kantharuban Sivalingam : CASSCF convergence, NEVPT2, FIC-MRCI
   Bernardo de Souza      : ESD, SOC TD-DFT
   Georgi Stoychev        : AutoAux, RI-MP2 NMR, DLPNO-MP2 response
   Willem Van den Heuvel  : Paramagnetic NMR
   Boris Wezisla          : Elementary symmetry handling
   Frank Wennmohs         : Technical directorship


 We gratefully acknowledge several colleagues who have allowed us to
 interface, adapt or use parts of their codes:
   Stefan Grimme, W. Hujo, H. Kruse, P. Pracht,  : VdW corrections, initial TS optimization,
                  C. Bannwarth, S. Ehlert          DFT functionals, gCP, sTDA/sTD-DF
   Ed Valeev, F. Pavosevic, A. Kumar             : LibInt (2-el integral package), F12 methods
   Garnet Chan, S. Sharma, J. Yang, R. Olivares  : DMRG
   Ulf Ekstrom                                   : XCFun DFT Library
   Mihaly Kallay                                 : mrcc  (arbitrary order and MRCC methods)
   Jiri Pittner, Ondrej Demel                    : Mk-CCSD
   Frank Weinhold                                : gennbo (NPA and NBO analysis)
   Christopher J. Cramer and Donald G. Truhlar   : smd solvation model
   Lars Goerigk                                  : TD-DFT with DH, B97 family of functionals
   V. Asgeirsson, H. Jonsson                     : NEB implementation
   FAccTs GmbH                                   : IRC, NEB, NEB-TS, DLPNO-Multilevel, CI-OPT
                                                   MM, QMMM, 2- and 3-layer-ONIOM, Crystal-QMMM,
                                                   LR-CPCM, SF, NACMEs, symmetry and pop. for TD-DFT,
                                                   nearIR, NL-DFT gradient (VV10), updates on ESD,
                                                   ML-optimized integration grids
   S Lehtola, MJT Oliveira, MAL Marques          : LibXC Library
   Liviu Ungur et al                             : ANISO software


 Your calculation uses the libint2 library for the computation of 2-el integrals
 For citations please refer to: http://libint.valeyev.net

 Your ORCA version has been built with support for libXC version: 5.1.0
 For citations please refer to: https://tddft.org/programs/libxc/

 This ORCA versions uses:
   CBLAS   interface :  Fast vector & matrix operations
   LAPACKE interface :  Fast linear algebra routines
   SCALAPACK package :  Parallel linear algebra routines
   Shared memory     :  Shared parallel matrices
   BLAS/LAPACK       :  OpenBLAS 0.3.15  USE64BITINT DYNAMIC_ARCH NO_AFFINITY Sandybridge SINGLE_THREADED
        Core in use  :  Sandybridge
   Copyright (c) 2011-2014, The OpenBLAS Project


================================================================================

----- Orbital basis set information -----
Your calculation utilizes the basis: cc-pVDZ 
       H, B-Ne : Obtained from the ccRepo (grant-hill.group.shef.ac.uk/ccrepo) Feb. 2017
                 T. H. Dunning, Jr., J. Chem. Phys. 90, 1007 (1989)
            He : Obtained from the ccRepo (grant-hill.group.shef.ac.uk/ccrepo) Feb. 2017
                 D. E. Woon, T. H. Dunning, Jr., J. Chem. Phys. 100, 2975 (1994)
  Li-Be, Na-Mg : Obtained from the ccRepo (grant-hill.group.shef.ac.uk/ccrepo) Feb. 2017
                 B. P. Prascher, D. E. Woon, K. A. Peterson, T. H. Dunning, Jr., A. K. Wilson, Theor. Chem. Acc. 128, 69 (2011)
         Al-Ar : Obtained from the ccRepo (grant-hill.group.shef.ac.uk/ccrepo) Feb. 2017
                 D. E. Woon, T. H. Dunning, Jr., J. Chem. Phys. 98, 1358 (1993)
            Ca : Obtained from the Peterson Research Group Website (tyr0.chem.wsu.edu/~kipeters) Feb. 2017
                 J. Koput, K. A. Peterson, J. Phys. Chem. 106, 9595 (2002)
         Sc-Zn : Obtained from the ccRepo (grant-hill.group.shef.ac.uk/ccrepo) Feb. 2017
                 N. B. Balabanov, K. A. Peterson, J. Chem. Phys. 123, 064107 (2005)
                 N. B. Balabanov, K. A. Peterson, J. Chem. Phys. 125, 074110 (2006)
         Ga-Kr : Obtained from the ccRepo (grant-hill.group.shef.ac.uk/ccrepo) Feb. 2017
                 A. K. Wilson, D. E. Woon, K. A. Peterson, T. H. Dunning, Jr., J. Chem. Phys. 110, 7667 (1999)

================================================================================
                                        WARNINGS
                       Please study these warnings very carefully!
================================================================================


WARNING: No MP2 level density has been requested!
         To caclulate MP2 level properties use
         %mp2 Density relaxed end
         or
         %mp2 Density unrelaxed end

WARNING: Post HF methods need fully converged wavefunctions
  ===> : Setting SCFConvForced true
         You can overwrite this default with %scf ConvForced false 


INFO   : the flag for use of the SHARK integral package has been found!

================================================================================
                                       INPUT FILE
================================================================================
NAME = /scratch/allen/tmpyp4_amber_gaff2/2.Mdgx/conf11/conf11/Conf209.orca
|  1> ! PAL2
|  2> ! mp2 cc-pvdz TightSCF  NoKeepInts
|  3> 
|  4> %scf
|  5>   MaxCore 2000
|  6> end
|  7> %mp2
|  8>   MaxCore 2000
|  9> end
| 10> * xyz 0 1
| 11>    C       -4.85400         5.24100         0.59400
| 12>    C        1.47400         4.04100         0.05700
| 13>    C       -2.80200         4.09300         0.04900
| 14>    C       -2.32700         5.30200        -0.48200
| 15>    C       -3.12100         6.43100        -0.45500
| 16>    C       -5.17700         7.62600         0.12200
| 17>    C        0.13200         4.30700         0.06100
| 18>    C       -0.56900         3.05600         0.04700
| 19>    C        1.64900         2.61800         0.02300
| 20>    C       -4.09500         4.08700         0.59600
| 21>    N       -4.36600         6.39000         0.07400
| 22>    N        0.38800         2.06700         0.02500
| 23>    N       -2.01000         0.39500        -0.07500
| 24>    N       -0.38800        -2.07400        -0.02700
| 25>    N        2.01000        -0.40100         0.06500
| 26>    C       -1.96000         2.86100         0.02400
| 27>    C       -2.62300         1.61500        -0.01800
| 28>    C       -5.57300        -4.32900         1.06600
| 29>    C       -4.07300         1.47100         0.05600
| 30>    C       -4.10600        -2.75600        -0.02600
| 31>    C       -4.99500        -2.75700        -1.11100
| 32>    C       -6.13200        -3.54200        -1.07600
| 33>    C       -7.65100        -5.11300         0.04000
| 34>    C       -4.32400         0.14100         0.03700
| 35>    C       -3.02500        -0.52000        -0.04800
| 36>    C       -4.42200        -3.56600         1.07500
| 37>    N       -6.40700        -4.31300         0.00100
| 38>    C       -2.86700        -1.92200        -0.04000
| 39>    C       -1.65000        -2.62400        -0.02700
| 40>    C        3.56800        -6.14200        -1.04000
| 41>    C       -1.47600        -4.04900        -0.03400
| 42>    C        2.80300        -4.09900        -0.00800
| 43>    C        3.65700        -4.38400         1.06900
| 44>    C        4.42700        -5.53000         1.05900
| 45>    C        5.24500        -7.58800         0.01400
| 46>    C       -0.13400        -4.31500        -0.02200
| 47>    C        0.56800        -3.06400        -0.02700
| 48>    C        2.77500        -5.01200        -1.07400
| 49>    N        4.37600        -6.39100         0.01700
| 50>    C        1.95900        -2.86900        -0.00900
| 51>    C        2.62100        -1.62200         0.00900
| 52>    C        5.54300         4.33900        -1.13000
| 53>    C        4.07000        -1.47900        -0.09400
| 54>    C        4.10400         2.75100        -0.02100
| 55>    C        5.02700         2.72900         1.03600
| 56>    C        6.16600         3.50900         0.97800
| 57>    C        7.61900         5.15300        -0.11500
| 58>    C        4.32100        -0.14800        -0.09200
| 59>    C        3.02500         0.51400         0.01500
| 60>    C        4.38700         3.58200        -1.11500
| 61>    C        2.86600         1.91600         0.01300
| 62>    N        6.41300         4.29600        -0.09500
| 63>    H       -5.86000         5.27900         0.99400
| 64>    H        2.27400         4.76600         0.08100
| 65>    H       -1.33400         5.37300        -0.90900
| 66>    H       -2.79500         7.38700        -0.84300
| 67>    H       -4.92400         8.18300         1.02700
| 68>    H       -4.95700         8.22500        -0.76100
| 69>    H       -6.23200         7.35300         0.13400
| 70>    H       -0.33200         5.28200         0.06900
| 71>    H       -4.52400         3.18100         1.00800
| 72>    H        0.18200         1.07200         0.00500
| 73>    H       -0.18300        -1.08000        -0.02100
| 74>    H       -5.86400        -4.96200         1.89500
| 75>    H       -4.79400         2.27200         0.13900
| 76>    H       -4.80000        -2.16000        -1.99400
| 77>    H       -6.84100        -3.58200        -1.89300
| 78>    H       -8.42800        -4.53600         0.54600
| 79>    H       -7.95600        -5.33700        -0.98100
| 80>    H       -7.45600        -6.03700         0.58400
| 81>    H       -5.28700        -0.34400         0.10000
| 82>    H       -3.78000        -3.60100         1.94700
| 83>    H        3.58700        -6.86800        -1.84300
| 84>    H       -2.27600        -4.77400        -0.05000
| 85>    H        3.71400        -3.72400         1.92600
| 86>    H        5.09200        -5.79500         1.87100
| 87>    H        6.20500        -7.32900        -0.43900
| 88>    H        5.39300        -7.91700         1.04200
| 89>    H        4.75900        -8.37300        -0.56400
| 90>    H        0.32900        -5.29000        -0.00800
| 91>    H        2.14600        -4.84200        -1.94000
| 92>    H        5.80800         4.98600        -1.95600
| 93>    H        4.78800        -2.28100        -0.18500
| 94>    H        4.86000         2.11400         1.91200
| 95>    H        6.90100         3.53100         1.77200
| 96>    H        7.38300         6.10900         0.35600
| 97>    H        8.41400         4.65200         0.43500
| 98>    H        7.92100         5.31000        -1.15000
| 99>    H        5.28300         0.33600        -0.17900
|100>    H        3.72000         3.63200        -1.96700
|101> *
|102> 
|103>                          ****END OF INPUT****
================================================================================

                       ****************************
                       * Single Point Calculation *
                       ****************************

---------------------------------
CARTESIAN COORDINATES (ANGSTROEM)
---------------------------------
  C     -4.854000    5.241000    0.594000
  C      1.474000    4.041000    0.057000
  C     -2.802000    4.093000    0.049000
  C     -2.327000    5.302000   -0.482000
  C     -3.121000    6.431000   -0.455000
  C     -5.177000    7.626000    0.122000
  C      0.132000    4.307000    0.061000
  C     -0.569000    3.056000    0.047000
  C      1.649000    2.618000    0.023000
  C     -4.095000    4.087000    0.596000
  N     -4.366000    6.390000    0.074000
  N      0.388000    2.067000    0.025000
  N     -2.010000    0.395000   -0.075000
  N     -0.388000   -2.074000   -0.027000
  N      2.010000   -0.401000    0.065000
  C     -1.960000    2.861000    0.024000
  C     -2.623000    1.615000   -0.018000
  C     -5.573000   -4.329000    1.066000
  C     -4.073000    1.471000    0.056000
  C     -4.106000   -2.756000   -0.026000
  C     -4.995000   -2.757000   -1.111000
  C     -6.132000   -3.542000   -1.076000
  C     -7.651000   -5.113000    0.040000
  C     -4.324000    0.141000    0.037000
  C     -3.025000   -0.520000   -0.048000
  C     -4.422000   -3.566000    1.075000
  N     -6.407000   -4.313000    0.001000
  C     -2.867000   -1.922000   -0.040000
  C     -1.650000   -2.624000   -0.027000
  C      3.568000   -6.142000   -1.040000
  C     -1.476000   -4.049000   -0.034000
  C      2.803000   -4.099000   -0.008000
  C      3.657000   -4.384000    1.069000
  C      4.427000   -5.530000    1.059000
  C      5.245000   -7.588000    0.014000
  C     -0.134000   -4.315000   -0.022000
  C      0.568000   -3.064000   -0.027000
  C      2.775000   -5.012000   -1.074000
  N      4.376000   -6.391000    0.017000
  C      1.959000   -2.869000   -0.009000
  C      2.621000   -1.622000    0.009000
  C      5.543000    4.339000   -1.130000
  C      4.070000   -1.479000   -0.094000
  C      4.104000    2.751000   -0.021000
  C      5.027000    2.729000    1.036000
  C      6.166000    3.509000    0.978000
  C      7.619000    5.153000   -0.115000
  C      4.321000   -0.148000   -0.092000
  C      3.025000    0.514000    0.015000
  C      4.387000    3.582000   -1.115000
  C      2.866000    1.916000    0.013000
  N      6.413000    4.296000   -0.095000
  H     -5.860000    5.279000    0.994000
  H      2.274000    4.766000    0.081000
  H     -1.334000    5.373000   -0.909000
  H     -2.795000    7.387000   -0.843000
  H     -4.924000    8.183000    1.027000
  H     -4.957000    8.225000   -0.761000
  H     -6.232000    7.353000    0.134000
  H     -0.332000    5.282000    0.069000
  H     -4.524000    3.181000    1.008000
  H      0.182000    1.072000    0.005000
  H     -0.183000   -1.080000   -0.021000
  H     -5.864000   -4.962000    1.895000
  H     -4.794000    2.272000    0.139000
  H     -4.800000   -2.160000   -1.994000
  H     -6.841000   -3.582000   -1.893000
  H     -8.428000   -4.536000    0.546000
  H     -7.956000   -5.337000   -0.981000
  H     -7.456000   -6.037000    0.584000
  H     -5.287000   -0.344000    0.100000
  H     -3.780000   -3.601000    1.947000
  H      3.587000   -6.868000   -1.843000
  H     -2.276000   -4.774000   -0.050000
  H      3.714000   -3.724000    1.926000
  H      5.092000   -5.795000    1.871000
  H      6.205000   -7.329000   -0.439000
  H      5.393000   -7.917000    1.042000
  H      4.759000   -8.373000   -0.564000
  H      0.329000   -5.290000   -0.008000
  H      2.146000   -4.842000   -1.940000
  H      5.808000    4.986000   -1.956000
  H      4.788000   -2.281000   -0.185000
  H      4.860000    2.114000    1.912000
  H      6.901000    3.531000    1.772000
  H      7.383000    6.109000    0.356000
  H      8.414000    4.652000    0.435000
  H      7.921000    5.310000   -1.150000
  H      5.283000    0.336000   -0.179000
  H      3.720000    3.632000   -1.967000

----------------------------
CARTESIAN COORDINATES (A.U.)
----------------------------
  NO LB      ZA    FRAG     MASS         X           Y           Z
   0 C     6.0000    0    12.011   -9.172731    9.904055    1.122497
   1 C     6.0000    0    12.011    2.785456    7.636383    0.107714
   2 C     6.0000    0    12.011   -5.295013    7.734649    0.092597
   3 C     6.0000    0    12.011   -4.397393   10.019328   -0.910848
   4 C     6.0000    0    12.011   -5.897835   12.152829   -0.859825
   5 C     6.0000    0    12.011   -9.783112   14.411051    0.230547
   6 C     6.0000    0    12.011    0.249444    8.139050    0.115273
   7 C     6.0000    0    12.011   -1.075254    5.775003    0.088817
   8 C     6.0000    0    12.011    3.116158    4.947303    0.043464
   9 C     6.0000    0    12.011   -7.738429    7.723311    1.126277
  10 N     7.0000    0    14.007   -8.250544   12.075350    0.139840
  11 N     7.0000    0    14.007    0.733214    3.906064    0.047243
  12 N     7.0000    0    14.007   -3.798350    0.746442   -0.141729
  13 N     7.0000    0    14.007   -0.733214   -3.919292   -0.051023
  14 N     7.0000    0    14.007    3.798350   -0.757780    0.122832
  15 C     6.0000    0    12.011   -3.703863    5.406506    0.045353
  16 C     6.0000    0    12.011   -4.956752    3.051908   -0.034015
  17 C     6.0000    0    12.011  -10.531444   -8.180624    2.014448
  18 C     6.0000    0    12.011   -7.696855    2.779787    0.105825
  19 C     6.0000    0    12.011   -7.759216   -5.208085   -0.049133
  20 C     6.0000    0    12.011   -9.439182   -5.209975   -2.099486
  21 C     6.0000    0    12.011  -11.587801   -6.693410   -2.033345
  22 C     6.0000    0    12.011  -14.458295   -9.662170    0.075589
  23 C     6.0000    0    12.011   -8.171176    0.266451    0.069920
  24 C     6.0000    0    12.011   -5.716422   -0.982658   -0.090707
  25 C     6.0000    0    12.011   -8.356369   -6.738763    2.031456
  26 N     7.0000    0    14.007  -12.107475   -8.150389    0.001890
  27 C     6.0000    0    12.011   -5.417845   -3.632054   -0.075589
  28 C     6.0000    0    12.011   -3.118048   -4.958641   -0.051023
  29 C     6.0000    0    12.011    6.742543  -11.606698   -1.965315
  30 C     6.0000    0    12.011   -2.789236   -7.651501   -0.064251
  31 C     6.0000    0    12.011    5.296902   -7.745987   -0.015118
  32 C     6.0000    0    12.011    6.910728   -8.284559    2.020117
  33 C     6.0000    0    12.011    8.365818  -10.450186    2.001220
  34 C     6.0000    0    12.011    9.911614  -14.339242    0.026456
  35 C     6.0000    0    12.011   -0.253223   -8.154168   -0.041574
  36 C     6.0000    0    12.011    1.073364   -5.790121   -0.051023
  37 C     6.0000    0    12.011    5.243990   -9.471307   -2.029566
  38 N     7.0000    0    14.007    8.269442  -12.077240    0.032125
  39 C     6.0000    0    12.011    3.701973   -5.421624   -0.017008
  40 C     6.0000    0    12.011    4.952972   -3.065136    0.017008
  41 C     6.0000    0    12.011   10.474752    8.199522   -2.135391
  42 C     6.0000    0    12.011    7.691185   -2.794905   -0.177634
  43 C     6.0000    0    12.011    7.755436    5.198637   -0.039684
  44 C     6.0000    0    12.011    9.499653    5.157063    1.957756
  45 C     6.0000    0    12.011   11.652051    6.631049    1.848152
  46 C     6.0000    0    12.011   14.397823    9.737759   -0.217319
  47 C     6.0000    0    12.011    8.165507   -0.279679   -0.173855
  48 C     6.0000    0    12.011    5.716422    0.971319    0.028346
  49 C     6.0000    0    12.011    8.290229    6.768999   -2.107045
  50 C     6.0000    0    12.011    5.415955    3.620715    0.024566
  51 N     7.0000    0    14.007   12.118814    8.118263   -0.179524
  52 H     1.0000    0     1.008  -11.073795    9.975864    1.878388
  53 H     1.0000    0     1.008    4.297237    9.006435    0.153068
  54 H     1.0000    0     1.008   -2.520895   10.153499   -1.717761
  55 H     1.0000    0     1.008   -5.281785   13.959407   -1.593039
  56 H     1.0000    0     1.008   -9.305011   15.463629    1.940749
  57 H     1.0000    0     1.008   -9.367372   15.542997   -1.438082
  58 H     1.0000    0     1.008  -11.776773   13.895156    0.253223
  59 H     1.0000    0     1.008   -0.627389    9.981533    0.130391
  60 H     1.0000    0     1.008   -8.549121    6.011219    1.904844
  61 H     1.0000    0     1.008    0.343930    2.025786    0.009449
  62 H     1.0000    0     1.008   -0.345820   -2.040904   -0.039684
  63 H     1.0000    0     1.008  -11.081354   -9.376821    3.581031
  64 H     1.0000    0     1.008   -9.059347    4.293458    0.262672
  65 H     1.0000    0     1.008   -9.070685   -4.081808   -3.768114
  66 H     1.0000    0     1.008  -12.927616   -6.768999   -3.577252
  67 H     1.0000    0     1.008  -15.926612   -8.571798    1.031790
  68 H     1.0000    0     1.008  -15.034661  -10.085468   -1.853821
  69 H     1.0000    0     1.008  -14.089798  -11.408277    1.103600
  70 H     1.0000    0     1.008   -9.990982   -0.650066    0.188973
  71 H     1.0000    0     1.008   -7.143165   -6.804904    3.679297
  72 H     1.0000    0     1.008    6.778448  -12.978639   -3.482765
  73 H     1.0000    0     1.008   -4.301017   -9.021553   -0.094486
  74 H     1.0000    0     1.008    7.018443   -7.037340    3.639613
  75 H     1.0000    0     1.008    9.622485  -10.950963    3.535678
  76 H     1.0000    0     1.008   11.725751  -13.849803   -0.829590
  77 H     1.0000    0     1.008   10.191293  -14.960962    1.969095
  78 H     1.0000    0     1.008    8.993207  -15.822677   -1.065806
  79 H     1.0000    0     1.008    0.621720   -9.996651   -0.015118
  80 H     1.0000    0     1.008    4.055352   -9.150054   -3.666069
  81 H     1.0000    0     1.008   10.975529    9.422175   -3.696304
  82 H     1.0000    0     1.008    9.048009   -4.310465   -0.349599
  83 H     1.0000    0     1.008    9.184069    3.994881    3.613156
  84 H     1.0000    0     1.008   13.041000    6.672623    3.348595
  85 H     1.0000    0     1.008   13.951848   11.544337    0.672743
  86 H     1.0000    0     1.008   15.900156    8.791006    0.822031
  87 H     1.0000    0     1.008   14.968521   10.034446   -2.173185
  88 H     1.0000    0     1.008    9.983423    0.634948   -0.338261
  89 H     1.0000    0     1.008    7.029781    6.863485   -3.717091

--------------------------------
INTERNAL COORDINATES (ANGSTROEM)
--------------------------------
 C      0   0   0     0.000000000000     0.00000000     0.00000000
 C      1   0   0     6.463122542549     0.00000000     0.00000000
 C      1   2   0     2.413634810820    20.03781477     0.00000000
 C      3   1   2     1.403305740030    87.90470104   313.85558429
 C      4   3   1     1.380509326300   120.16527963     0.17621704
 C      5   4   3     2.447057416572   152.52611948     1.58004609
 C      2   1   3     1.368114030335     4.62277214    70.24937947
 C      7   2   4     1.434084376876   108.05010202   131.47952430
 C      2   1   3     1.434123425651   107.79866303   334.25979101
 C      1   2   7     1.381231696711    46.12999654   100.60059248
 N      1   2   7     1.352310984944    76.84926463   298.02150859
 N      9   2   1     1.376127174356   106.58526707     4.07827609
 N     12   9   2     2.925062050624   168.53581413   171.12065651
 N     13  12   9     2.954513327098    91.55032014    11.12112580
 N     14  13  12     2.925371258490    88.43092389   359.84326247
 C      8   7   2     1.404790019896   127.24786865   181.11170171
 C     13  12   9     1.366535034311    81.72106996   188.00453233
 C     14  13  12     5.758810554272    80.56209567   166.76250791
 C     17  13  12     1.459010623676   111.08861209   183.82872609
 C     18  14  13     2.412235892279    27.27532823    36.33507194
 C     20  18  14     1.402692767501    87.95206320   148.94598259
 C     21  20  18     1.382106725257   120.14573887   359.70382047
 C     18  14  13     2.446510985056   144.15733107    82.80075377
 C     19  17  13     1.353610726908   106.29293361   359.75308708
 C     13  12   9     1.366813447402   172.21332906    33.46711076
 C     18  14  13     1.380960173213    15.08449437   309.23336894
 N     22  21  20     1.352773077792   120.73759875     0.27865223
 C     25  13  17     1.410897586645   125.60330303   182.37774668
 C     14  13  12     1.376642291955    80.24689249   177.85461986
 C     14  13  12     5.764089607215   164.51507311   312.20821879
 C     29  14  13     1.435600919476   106.58649366   178.76395472
 C     30  14  13     2.413316804732    27.10625047    82.12560436
 C     32  30  14     1.403734305344    87.90059683   149.76154742
 C     33  32  30     1.380694028378   120.14881443   359.74174632
 C     34  33  32     2.448777858443   152.49203239     2.45173620
 C     31  29  14     1.368160809262   108.16950133     0.70383075
 C     14  13  12     1.376239804685   169.26375223   353.09862627
 C     30  14  13     1.380907310430    14.68948582   353.70041132
 N     34  33  32     1.352658863128   120.85575621     0.19603406
 C     37  14  29     1.404717053360   126.01551127   180.90772073
 C     15  14  13     1.366491126938    81.61824056   183.09049352
 C      2   1   3     4.249062720177   161.40414098   115.21871023
 C     41  15  14     1.459677704153   111.05201287   175.08990246
 C     42   2   1     2.412953791518    41.78584867   193.26873863
 C     44  42   2     1.403446472082    87.95153797   233.97558675
 C     45  44  42     1.381696421071   120.11137308     0.19721020
 C     42   2   1     2.450019795838   135.97209175   103.58358773
 C     43  41  15     1.354461516618   106.26758155     0.30894352
 C     15  14  13     1.367461151185   171.87382904   332.35056460
 C     42   2   1     1.381886391857    32.59078432   242.12401782
 C      9   2   1     1.404988612053   126.98745415   185.08261362
 N     42   2   1     1.352765315936   113.57249190   131.32017692
 H      1   2   7     1.083272818823   161.16369248   160.47386592
 H      2   1   3     1.079907866440   126.78545123   159.53607942
 H      4   3   1     1.083244663038   121.05848087   179.51801131
 H      5   4   3     1.082014787330   122.83822027   179.38489477
 H      6   5   4     1.092374935633   104.46325530   100.10850857
 H      6   5   4     1.089444812737    84.70535047   209.57447838
 H      6   5   4     1.089815580729   133.91718789   322.39036668
 H      7   2  54     1.079807853278   126.66122480     1.30600390
 H     10   1   2     1.083799335671   118.78088662   161.04492715
 H     12   9   2     1.016297692608   125.29023241   180.00180175
 H     14  13  12     1.014936943854    44.97226959   359.42596618
 H     18  14  13     1.082871645210   128.03556573   234.20482432
 H     19  17  13     1.080893611786   126.41830519   178.11313280
 H     21  20  18     1.083569563987   121.05669627   180.67006309
 H     22  21  20     1.082483256222   122.73097286   180.59748951
 H     23  18  14     1.092105306278   103.92715769   234.93429879
 H     23  18  14     1.088871893291   134.19244188    12.25587044
 H     23  18  14     1.089833473518    84.85857450   125.45241208
 H     24  19  17     1.080075460327   127.28078426   178.44613241
 H     26  18  14     1.083408048706   118.76995697   244.94906660
 H     30  14  13     1.082703098730   127.99711412   279.66882698
 H     31  29  14     1.079759695488   125.22293469   180.92530585
 H     33  32  30     1.083188810873   121.01964473   180.74284758
 H     34  33  32     1.082494341787   122.70821597   180.59516895
 H     35  34  33     1.092652735319   105.73575241    97.19771933
 H     35  34  33     1.089462711615    84.05943581   206.43036958
 H     35  34  33     1.089268102902   133.08365142   318.50306270
 H     36  31  29     1.079439669458   126.61599965   178.98859863
 H     38  30  73     1.083742127999   118.77264435   359.90091293
 H     42   2   1     1.082178358682   119.31790784   347.95170738
 H     43  41  15     1.080281907652   126.36969097   182.06329380
 H     45  44  42     1.083277434455   121.10105945   179.58025624
 H     46  45  44     1.082194529648   122.72144639   179.46906377
 H     47  42   2     1.091546151109   106.65128841   315.16475048
 H     47  42   2     1.088818625851   132.46019523    94.52397119
 H     47  42   2     1.089531091801    83.63838232   206.04504406
 H     48  43  41     1.080402239909   127.23657387   181.62955349
 H     50  42   2     1.083186502870   118.77001737    94.71359229

---------------------------
INTERNAL COORDINATES (A.U.)
---------------------------
 C      0   0   0     0.000000000000     0.00000000     0.00000000
 C      1   0   0    12.213531575390     0.00000000     0.00000000
 C      1   2   0     4.561108779748    20.03781477     0.00000000
 C      3   1   2     2.651863530816    87.90470104   313.85558429
 C      4   3   1     2.608784552030   120.16527963     0.17621704
 C      5   4   3     4.624268351302   152.52611948     1.58004609
 C      2   1   3     2.585360837309     4.62277214    70.24937947
 C      7   2   4     2.710026725231   108.05010202   131.47952430
 C      2   1   3     2.710100516721   107.79866303   334.25979101
 C      1   2   7     2.610149634276    46.12999654   100.60059248
 N      1   2   7     2.555497409437    76.84926463   298.02150859
 N      9   2   1     2.600503484979   106.58526707     4.07827609
 N     12   9   2     5.527566200405   168.53581413   171.12065651
 N     13  12   9     5.583221047236    91.55032014    11.12112580
 N     14  13  12     5.528150518591    88.43092389   359.84326247
 C      8   7   2     2.654668413270   127.24786865   181.11170171
 C     13  12   9     2.582376967257    81.72106996   188.00453233
 C     14  13  12    10.882574804710    80.56209567   166.76250791
 C     17  13  12     2.757130505230   111.08861209   183.82872609
 C     18  14  13     4.558465206823    27.27532823    36.33507194
 C     20  18  14     2.650705180609    87.95206320   148.94598259
 C     21  20  18     2.611803198586   120.14573887   359.70382047
 C     18  14  13     4.623235745386   144.15733107    82.80075377
 C     19  17  13     2.557953565794   106.29293361   359.75308708
 C     13  12   9     2.582903091751   172.21332906    33.46711076
 C     18  14  13     2.609636529225    15.08449437   309.23336894
 N     22  21  20     2.556370638369   120.73759875     0.27865223
 C     25  13  17     2.666210041769   125.60330303   182.37774668
 C     14  13  12     2.601476916169    80.24689249   177.85461986
 C     14  13  12    10.892550769017   164.51507311   312.20821879
 C     29  14  13     2.712892575415   106.58649366   178.76395472
 C     30  14  13     4.560507835333    27.10625047    82.12560436
 C     32  30  14     2.652673401891    87.90059683   149.76154742
 C     33  32  30     2.609133588376   120.14881443   359.74174632
 C     34  33  32     4.627519515267   152.49203239     2.45173620
 C     31  29  14     2.585449236669   108.16950133     0.70383075
 C     14  13  12     2.600716325456   169.26375223   353.09862627
 C     30  14  13     2.609536633043    14.68948582   353.70041132
 N     34  33  32     2.556154803934   120.85575621     0.19603406
 C     37  14  29     2.654530526499   126.01551127   180.90772073
 C     15  14  13     2.582293994346    81.61824056   183.09049352
 C      2   1   3     8.029564866989   161.40414098   115.21871023
 C     41  15  14     2.758391104639   111.05201287   175.08990246
 C     42   2   1     4.559821839776    41.78584867   193.26873863
 C     44  42   2     2.652129475853    87.95153797   233.97558675
 C     45  44  42     2.611027836043   120.11137308     0.19721020
 C     42   2   1     4.629866436820   135.97209175   103.58358773
 C     43  41  15     2.559561325344   106.26758155     0.30894352
 C     15  14  13     2.584127074516   171.87382904   332.35056460
 C     42   2   1     2.611386828803    32.59078432   242.12401782
 C      9   2   1     2.655043698059   126.98745415   185.08261362
 N     42   2   1     2.556355970587   113.57249190   131.32017692
 H      1   2   7     2.047088955896   161.16369248   160.47386592
 H      2   1   3     2.040730117440   126.78545123   159.53607942
 H      4   3   1     2.047035749173   121.05848087   179.51801131
 H      5   4   3     2.044711620906   122.83822027   179.38489477
 H      6   5   4     2.064289463907   104.46325530   100.10850857
 H      6   5   4     2.058752334094    84.70535047   209.57447838
 H      6   5   4     2.059452984058   133.91718789   322.39036668
 H      7   2  54     2.040541119952   126.66122480     1.30600390
 H     10   1   2     2.048083928543   118.78088662   161.04492715
 H     12   9   2     1.920524309565   125.29023241   180.00180175
 H     14  13  12     1.917952867083    44.97226959   359.42596618
 H     18  14  13     2.046330847636   128.03556573   234.20482432
 H     19  17  13     2.042592906181   126.41830519   178.11313280
 H     21  20  18     2.047649722989   121.05669627   180.67006309
 H     22  21  20     2.045596898814   122.73097286   180.59748951
 H     23  18  14     2.063779938267   103.92715769   234.93429879
 H     23  18  14     2.057669673245   134.19244188    12.25587044
 H     23  18  14     2.059486796529    84.85857450   125.45241208
 H     24  19  17     2.041046823986   127.28078426   178.44613241
 H     26  18  14     2.047344503340   118.76995697   244.94906660
 H     30  14  13     2.046012340948   127.99711412   279.66882698
 H     31  29  14     2.040450114918   125.22293469   180.92530585
 H     33  32  30     2.046930203877   121.01964473   180.74284758
 H     34  33  32     2.045617847496   122.70821597   180.59516895
 H     35  34  33     2.064814429233   105.73575241    97.19771933
 H     35  34  33     2.058786158072    84.05943581   206.43036958
 H     35  34  33     2.058418400901   133.08365142   318.50306270
 H     36  31  29     2.039845353366   126.61599965   178.98859863
 H     38  30  73     2.047975821711   118.77264435   359.90091293
 H     42   2   1     2.045020725966   119.31790784   347.95170738
 H     43  41  15     2.041436952892   126.36969097   182.06329380
 H     45  44  42     2.047097678177   121.10105945   179.58025624
 H     46  45  44     2.045051284662   122.72144639   179.46906377
 H     47  42   2     2.062723288131   106.65128841   315.16475048
 H     47  42   2     2.057569012371   132.46019523    94.52397119
 H     47  42   2     2.058915377895    83.63838232   206.04504406
 H     48  43  41     2.041664347903   127.23657387   181.62955349
 H     50  42   2     2.046925842384   118.77001737    94.71359229

---------------------
BASIS SET INFORMATION
---------------------
There are 3 groups of distinct atoms

 Group   1 Type C   : 17s4p1d contracted to 3s2p1d pattern {881/31/1}
 Group   2 Type N   : 17s4p1d contracted to 3s2p1d pattern {881/31/1}
 Group   3 Type H   : 4s1p contracted to 2s1p pattern {31/1}

Atom   0C    basis set group =>   1
Atom   1N    basis set group =>   2
Atom   2C    basis set group =>   1
Atom   3N    basis set group =>   2
Atom   4C    basis set group =>   1
Atom   5N    basis set group =>   2
Atom   6C    basis set group =>   1
Atom   7N    basis set group =>   2
Atom   8C    basis set group =>   1
Atom   9N    basis set group =>   2
Atom  10C    basis set group =>   1
Atom  11N    basis set group =>   2
Atom  12C    basis set group =>   1
Atom  13N    basis set group =>   2
Atom  14C    basis set group =>   1
Atom  15N    basis set group =>   2
Atom  16C    basis set group =>   1
Atom  17C    basis set group =>   1
Atom  18C    basis set group =>   1
Atom  19C    basis set group =>   1
Atom  20C    basis set group =>   1
Atom  21C    basis set group =>   1
Atom  22C    basis set group =>   1
Atom  23C    basis set group =>   1
Atom  24C    basis set group =>   1
Atom  25C    basis set group =>   1
Atom  26C    basis set group =>   1
Atom  27C    basis set group =>   1
Atom  28C    basis set group =>   1
Atom  29C    basis set group =>   1
Atom  30C    basis set group =>   1
Atom  31C    basis set group =>   1
Atom  32C    basis set group =>   1
Atom  33C    basis set group =>   1
Atom  34C    basis set group =>   1
Atom  35C    basis set group =>   1
Atom  36C    basis set group =>   1
Atom  37C    basis set group =>   1
Atom  38C    basis set group =>   1
Atom  39C    basis set group =>   1
Atom  40C    basis set group =>   1
Atom  41C    basis set group =>   1
Atom  42C    basis set group =>   1
Atom  43C    basis set group =>   1
Atom  44C    basis set group =>   1
Atom  45C    basis set group =>   1
Atom  46C    basis set group =>   1
Atom  47C    basis set group =>   1
Atom  48C    basis set group =>   1
Atom  49C    basis set group =>   1
Atom  50C    basis set group =>   1
Atom  51C    basis set group =>   1
Atom  52H    basis set group =>   3
Atom  53H    basis set group =>   3
Atom  54H    basis set group =>   3
Atom  55H    basis set group =>   3
Atom  56H    basis set group =>   3
Atom  57H    basis set group =>   3
Atom  58H    basis set group =>   3
Atom  59H    basis set group =>   3
Atom  60H    basis set group =>   3
Atom  61H    basis set group =>   3
Atom  62H    basis set group =>   3
Atom  63H    basis set group =>   3
Atom  64H    basis set group =>   3
Atom  65H    basis set group =>   3
Atom  66H    basis set group =>   3
Atom  67H    basis set group =>   3
Atom  68H    basis set group =>   3
Atom  69H    basis set group =>   3
Atom  70H    basis set group =>   3
Atom  71H    basis set group =>   3
Atom  72H    basis set group =>   3
Atom  73H    basis set group =>   3
Atom  74H    basis set group =>   3
Atom  75H    basis set group =>   3
Atom  76H    basis set group =>   3
Atom  77H    basis set group =>   3
Atom  78H    basis set group =>   3
Atom  79H    basis set group =>   3
Atom  80H    basis set group =>   3
Atom  81H    basis set group =>   3
Atom  82H    basis set group =>   3
Atom  83H    basis set group =>   3
Atom  84H    basis set group =>   3
Atom  85H    basis set group =>   3
Atom  86H    basis set group =>   3
Atom  87H    basis set group =>   3
Atom  88H    basis set group =>   3
Atom  89H    basis set group =>   3


           ************************************************************
           *        Program running with 16 parallel MPI-processes    *
           *              working on a common directory               *
           ************************************************************
------------------------------------------------------------------------------
                           ORCA GTO INTEGRAL CALCULATION
------------------------------------------------------------------------------
------------------------------------------------------------------------------
                   ___                                                        
                  /   \      - P O W E R E D   B Y -                         
                 /     \                                                     
                 |  |  |   _    _      __       _____    __    __             
                 |  |  |  | |  | |    /  \     |  _  \  |  |  /  |          
                  \  \/   | |  | |   /    \    | | | |  |  | /  /          
                 / \  \   | |__| |  /  /\  \   | |_| |  |  |/  /          
                |  |  |   |  __  | /  /__\  \  |    /   |      \           
                |  |  |   | |  | | |   __   |  |    \   |  |\   \          
                \     /   | |  | | |  |  |  |  | |\  \  |  | \   \       
                 \___/    |_|  |_| |__|  |__|  |_| \__\ |__|  \__/        
                                                                              
                      - O R C A' S   B I G   F R I E N D -                    
                                      &                                       
                       - I N T E G R A L  F E E D E R -                       
                                                                              
 v1 FN, 2020, v2 2021                                                         
------------------------------------------------------------------------------


Reading SHARK input file /scratch/allen/tmpyp4_amber_gaff2/conf1/conf1/Conf209.orca.SHARKINP.tmp ... ok
----------------------
SHARK INTEGRAL PACKAGE
----------------------

Number of atoms                             ...     90
Number of basis functions                   ...   1230
Number of shells                            ...    738
Maximum angular momentum                    ...      2
Integral batch strategy                     ... SHARK/LIBINT Hybrid
RI-J (if used) integral strategy            ... SPLIT-RIJ (Revised 2003 algorithm where possible)
Printlevel                                  ...      1
Contraction scheme used                     ... PARTIAL GENERAL contraction
Coulomb Range Separation                    ... NOT USED
Exchange Range Separation                   ... NOT USED
Finite Nucleus Model                        ... NOT USED
Auxiliary Coulomb fitting basis             ... NOT available
Auxiliary J/K fitting basis                 ... NOT available
Auxiliary Correlation fitting basis         ... NOT available
Auxiliary 'external' fitting basis          ... NOT available
Integral threshold                          ...     2.500000e-11
Primitive cut-off                           ...     2.500000e-12
Primitive pair pre-selection threshold      ...     2.500000e-12

Calculating pre-screening integrals         ... done (  0.1 sec) Dimension = 738
Calculating pre-screening integrals (ORCA)  ... done (  0.3 sec) Dimension = 426
Organizing shell pair data                  ... done (  0.7 sec)
Shell pair information
Total number of shell pairs                 ...    272691
Shell pairs after pre-screening             ...     71680
Total number of primitive shell pairs       ...    422091
Primitive shell pairs kept                  ...     92550
          la=0 lb=0:  29424 shell pairs
          la=1 lb=0:  26011 shell pairs
          la=1 lb=1:   4706 shell pairs
          la=2 lb=0:   7888 shell pairs
          la=2 lb=1:   3122 shell pairs
          la=2 lb=2:    529 shell pairs

Calculating one electron integrals          ... done (  0.2 sec)
Calculating Nuclear repulsion               ... done (  0.0 sec) ENN=   6232.248063001987 Eh

SHARK setup successfully completed in   2.2 seconds

Maximum memory used throughout the entire GTOINT-calculation: 99.1 MB


           ************************************************************
           *        Program running with 16 parallel MPI-processes    *
           *              working on a common directory               *
           ************************************************************
-------------------------------------------------------------------------------
                                 ORCA SCF
-------------------------------------------------------------------------------

------------
SCF SETTINGS
------------
Hamiltonian:
 Ab initio Hamiltonian  Method          .... Hartree-Fock(GTOs)


General Settings:
 Integral files         IntName         .... /scratch/allen/tmpyp4_amber_gaff2/conf1/conf1/Conf209.orca
 Hartree-Fock type      HFTyp           .... RHF
 Total Charge           Charge          ....    0
 Multiplicity           Mult            ....    1
 Number of Electrons    NEL             ....  358
 Basis Dimension        Dim             ....  918
 Nuclear Repulsion      ENuc            ....   6232.2480630020 Eh

Convergence Acceleration:
 DIIS                   CNVDIIS         .... on
   Start iteration      DIISMaxIt       ....    12
   Startup error        DIISStart       ....  0.200000
   # of expansion vecs  DIISMaxEq       ....     5
   Bias factor          DIISBfac        ....   1.050
   Max. coefficient     DIISMaxC        ....  10.000
 Trust-Rad. Augm. Hess. CNVTRAH         .... auto
   Auto Start mean grad. ratio tolernc. ....  1.125000
   Auto Start start iteration           ....    20
   Auto Start num. interpolation iter.  ....    10
   Max. Number of Micro iterations      ....    16
   Max. Number of Macro iterations      .... Maxiter - #DIIS iter
   Number of Davidson start vectors     ....     2
   Converg. threshold I  (grad. norm)   ....   1.000e-05
   Converg. threshold II (energy diff.) ....   1.000e-08
   Grad. Scal. Fac. for Micro threshold ....   0.100
   Minimum threshold for Micro iter.    ....   0.010
   NR start threshold (gradient norm)   ....   0.001
   Initial trust radius                 ....   0.400
   Minimum AH scaling param. (alpha)    ....   1.000
   Maximum AH scaling param. (alpha)    .... 1000.000
   Orbital update algorithm             .... Taylor
   White noise on init. David. guess    .... on
   Maximum white noise                  ....   0.010
   Quad. conv. algorithm                .... NR
 SOSCF                  CNVSOSCF        .... on
   Start iteration      SOSCFMaxIt      ....   150
   Startup grad/error   SOSCFStart      ....  0.003300
 Level Shifting         CNVShift        .... on
   Level shift para.    LevelShift      ....    0.2500
   Turn off err/grad.   ShiftErr        ....    0.0010
 Zerner damping         CNVZerner       .... off
 Static damping         CNVDamp         .... on
   Fraction old density DampFac         ....    0.7000
   Max. Damping (<1)    DampMax         ....    0.9800
   Min. Damping (>=0)   DampMin         ....    0.0000
   Turn off err/grad.   DampErr         ....    0.1000
 Fernandez-Rico         CNVRico         .... off

SCF Procedure:
 Maximum # iterations   MaxIter         ....   125
 SCF integral mode      SCFMode         .... Direct
   Integral package                     .... SHARK and LIBINT hybrid scheme
 Reset frequency        DirectResetFreq ....    20
 Integral Threshold     Thresh          ....  2.500e-11 Eh
 Primitive CutOff       TCut            ....  2.500e-12 Eh

Convergence Tolerance:
 Convergence Check Mode ConvCheckMode   .... Total+1el-Energy
 Convergence forced     ConvForced      .... 1
 Energy Change          TolE            ....  1.000e-08 Eh
 1-El. energy change                    ....  1.000e-05 Eh
 Orbital Gradient       TolG            ....  1.000e-05
 Orbital Rotation angle TolX            ....  1.000e-05
 DIIS Error             TolErr          ....  5.000e-07


Diagonalization of the overlap matrix:
Smallest eigenvalue                        ... 2.157e-04
Time for diagonalization                   ...    0.436 sec
Threshold for overlap eigenvalues          ... 1.000e-08
Number of eigenvalues below threshold      ... 0
Time for construction of square roots      ...    0.267 sec
Total time needed                          ...    0.710 sec

Time for model grid setup =    1.300 sec

------------------------------
INITIAL GUESS: MODEL POTENTIAL
------------------------------
Loading Hartree-Fock densities                     ... done
Calculating cut-offs                               ... done
Initializing the effective Hamiltonian             ... done
Setting up the integral package (SHARK)            ... done
Starting the Coulomb interaction                   ... done (   1.5 sec)
Reading the grid                                   ... done
Mapping shells                                     ... done
Starting the XC term evaluation                    ... done (   0.2 sec)
Transforming the Hamiltonian                       ... done (   0.3 sec)
Diagonalizing the Hamiltonian                      ... done (   0.4 sec)
Back transforming the eigenvectors                 ... done (   0.1 sec)
Now organizing SCF variables                       ... done
                      ------------------
                      INITIAL GUESS DONE (   3.8 sec)
                      ------------------
--------------
SCF ITERATIONS
--------------
ITER       Energy         Delta-E        Max-DP      RMS-DP      [F,P]     Damp
               ***  Starting incremental Fock matrix formation  ***
  0  -2121.6713679554   0.000000000000 0.07421688  0.00122772  0.2318665 0.7000
  1  -2122.3226875767  -0.651319621256 0.05617508  0.00099947  0.1437071 0.7000
                               ***Turning on DIIS***
  2  -2122.7279781935  -0.405290616825 0.13137605  0.00226711  0.0802536 0.0000
  3  -2117.9605573086   4.767420884933 0.04565163  0.00068114  0.0437510 0.0000
  4  -2123.4079086789  -5.447351370281 0.01375184  0.00022698  0.0085446 0.0000
  5  -2123.5597796960  -0.151871017142 0.00660122  0.00013290  0.0049310 0.0000
  6  -2123.5439578399   0.015821856077 0.00387382  0.00008533  0.0020804 0.0000
  7  -2123.6399595144  -0.096001674450 0.00306144  0.00006728  0.0015859 0.0000
  8  -2123.6499166133  -0.009957098875 0.00324066  0.00006383  0.0014815 0.0000
  9  -2123.6205009885   0.029415624762 0.00258900  0.00004483  0.0011877 0.0000
 10  -2123.6295176085  -0.009016620028 0.00519852  0.00009335  0.0009223 0.0000
                      *** Initiating the SOSCF procedure ***
                           *** Shutting down DIIS ***
                      *** Re-Reading the Fockian *** 
                      *** Removing any level shift *** 
ITER      Energy       Delta-E        Grad      Rot      Max-DP    RMS-DP
 11  -2123.52101874   0.1084988645  0.000185  0.000185  0.000238  0.000005
               *** Restarting incremental Fock matrix formation ***
 12  -2123.58730144  -0.0662826937  0.000880  0.006100  0.001378  0.000034
 13  -2123.58740712  -0.0001056776  0.001092  0.030588  0.006402  0.000135
 14  -2123.58758821  -0.0001810907  0.000354  0.001722  0.000643  0.000012
 15  -2123.58760383  -0.0000156280  0.000174  0.002498  0.000671  0.000016
 16  -2123.58761269  -0.0000088554  0.000154  0.002693  0.000458  0.000010
 17  -2123.58761565  -0.0000029640  0.000136  0.001884  0.000322  0.000007
 18  -2123.58761722  -0.0000015694  0.000069  0.000864  0.000276  0.000004
 19  -2123.58761799  -0.0000007650  0.000045  0.000901  0.000187  0.000004
 20  -2123.58761831  -0.0000003179  0.000025  0.000605  0.000104  0.000002
 21  -2123.58761847  -0.0000001670  0.000023  0.000749  0.000132  0.000003
 22  -2123.58761861  -0.0000001398  0.000020  0.000688  0.000118  0.000002
 23  -2123.58761870  -0.0000000846  0.000013  0.000440  0.000076  0.000001
 24  -2123.58761874  -0.0000000454  0.000008  0.000337  0.000049  0.000001
 25  -2123.58761877  -0.0000000294  0.000009  0.000190  0.000035  0.000001
 26  -2123.58761879  -0.0000000144  0.000006  0.000155  0.000031  0.000001
 27  -2123.58761879  -0.0000000060  0.000004  0.000114  0.000023  0.000000
                  ***Gradient check signals convergence***
              ***Rediagonalizing the Fockian in SOSCF/NRSCF***

               *****************************************************
               *                     SUCCESS                       *
               *           SCF CONVERGED AFTER  28 CYCLES          *
               *****************************************************


----------------
TOTAL SCF ENERGY
----------------

Total Energy       :        -2123.58761879 Eh          -57785.75688 eV

Components:
Nuclear Repulsion  :         6232.24806300 Eh          169588.09149 eV
Electronic Energy  :        -8355.83568179 Eh         -227373.84836 eV
One Electron Energy:       -15305.20810937 Eh         -416475.88588 eV
Two Electron Energy:         6949.37242757 Eh          189102.03752 eV

Virial components:
Potential Energy   :        -4245.84867288 Eh         -115535.41610 eV
Kinetic Energy     :         2122.26105409 Eh           57749.65922 eV
Virial Ratio       :            2.00062507


---------------
SCF CONVERGENCE
---------------

  Last Energy change         ...    7.2214e-10  Tolerance :   1.0000e-08
  Last MAX-Density change    ...    1.2184e-05  Tolerance :   1.0000e-07
  Last RMS-Density change    ...    2.5170e-07  Tolerance :   5.0000e-09
  Last Orbital Gradient      ...    2.2199e-06  Tolerance :   1.0000e-05
  Last Orbital Rotation      ...    6.4951e-05  Tolerance :   1.0000e-05

             **** THE GBW FILE WAS UPDATED (/scratch/allen/tmpyp4_amber_gaff2/conf1/conf1/Conf209.orca.gbw) ****
             **** DENSITY /scratch/allen/tmpyp4_amber_gaff2/conf1/conf1/Conf209.orca.scfp WAS UPDATED ****
             **** ENERGY FILE WAS UPDATED (/scratch/allen/tmpyp4_amber_gaff2/conf1/conf1/Conf209.orca.en.tmp) ****
             **** THE GBW FILE WAS UPDATED (/scratch/allen/tmpyp4_amber_gaff2/conf1/conf1/Conf209.orca.gbw) ****
             **** DENSITY /scratch/allen/tmpyp4_amber_gaff2/conf1/conf1/Conf209.orca.scfp WAS UPDATED ****
----------------
ORBITAL ENERGIES
----------------

  NO   OCC          E(Eh)            E(eV) 
   0   2.0000     -15.674739      -426.5313 
   1   2.0000     -15.634561      -425.4380 
   2   2.0000     -15.631021      -425.3417 
   3   2.0000     -15.590686      -424.2441 
   4   2.0000     -15.524770      -422.4505 
   5   2.0000     -15.516147      -422.2158 
   6   2.0000     -15.452790      -420.4918 
   7   2.0000     -15.440999      -420.1709 
   8   2.0000     -11.325359      -308.1787 
   9   2.0000     -11.324816      -308.1639 
  10   2.0000     -11.323984      -308.1413 
  11   2.0000     -11.299692      -307.4803 
  12   2.0000     -11.297835      -307.4297 
  13   2.0000     -11.293250      -307.3049 
  14   2.0000     -11.290196      -307.2218 
  15   2.0000     -11.287316      -307.1435 
  16   2.0000     -11.286164      -307.1121 
  17   2.0000     -11.277319      -306.8715 
  18   2.0000     -11.272559      -306.7419 
  19   2.0000     -11.259854      -306.3962 
  20   2.0000     -11.258887      -306.3699 
  21   2.0000     -11.254768      -306.2578 
  22   2.0000     -11.254501      -306.2505 
  23   2.0000     -11.238232      -305.8078 
  24   2.0000     -11.235811      -305.7420 
  25   2.0000     -11.231624      -305.6280 
  26   2.0000     -11.230819      -305.6061 
  27   2.0000     -11.229153      -305.5608 
  28   2.0000     -11.229047      -305.5579 
  29   2.0000     -11.210047      -305.0409 
  30   2.0000     -11.208766      -305.0060 
  31   2.0000     -11.199064      -304.7420 
  32   2.0000     -11.190726      -304.5151 
  33   2.0000     -11.190437      -304.5073 
  34   2.0000     -11.189372      -304.4783 
  35   2.0000     -11.189091      -304.4706 
  36   2.0000     -11.187467      -304.4264 
  37   2.0000     -11.186401      -304.3975 
  38   2.0000     -11.185224      -304.3654 
  39   2.0000     -11.173005      -304.0329 
  40   2.0000     -11.172526      -304.0199 
  41   2.0000     -11.170255      -303.9581 
  42   2.0000     -11.167528      -303.8839 
  43   2.0000     -11.160960      -303.7052 
  44   2.0000     -11.159676      -303.6702 
  45   2.0000     -11.158539      -303.6393 
  46   2.0000     -11.156818      -303.5924 
  47   2.0000     -11.154844      -303.5387 
  48   2.0000     -11.147927      -303.3505 
  49   2.0000     -11.138911      -303.1052 
  50   2.0000     -11.131703      -302.9090 
  51   2.0000     -11.121280      -302.6254 
  52   2.0000      -1.356090       -36.9011 
  53   2.0000      -1.321728       -35.9660 
  54   2.0000      -1.318913       -35.8894 
  55   2.0000      -1.284473       -34.9523 
  56   2.0000      -1.225448       -33.3461 
  57   2.0000      -1.210598       -32.9421 
  58   2.0000      -1.171899       -31.8890 
  59   2.0000      -1.151757       -31.3409 
  60   2.0000      -1.140072       -31.0229 
  61   2.0000      -1.110597       -30.2209 
  62   2.0000      -1.108426       -30.1618 
  63   2.0000      -1.080358       -29.3980 
  64   2.0000      -1.078100       -29.3366 
  65   2.0000      -1.045882       -28.4599 
  66   2.0000      -1.043627       -28.3985 
  67   2.0000      -1.038738       -28.2655 
  68   2.0000      -1.014564       -27.6077 
  69   2.0000      -1.013784       -27.5865 
  70   2.0000      -1.009617       -27.4731 
  71   2.0000      -0.992867       -27.0173 
  72   2.0000      -0.986753       -26.8509 
  73   2.0000      -0.980165       -26.6717 
  74   2.0000      -0.972437       -26.4614 
  75   2.0000      -0.961042       -26.1513 
  76   2.0000      -0.953432       -25.9442 
  77   2.0000      -0.946333       -25.7510 
  78   2.0000      -0.935141       -25.4465 
  79   2.0000      -0.918941       -25.0057 
  80   2.0000      -0.906956       -24.6795 
  81   2.0000      -0.894236       -24.3334 
  82   2.0000      -0.874795       -23.8044 
  83   2.0000      -0.872062       -23.7300 
  84   2.0000      -0.869116       -23.6498 
  85   2.0000      -0.857143       -23.3241 
  86   2.0000      -0.841467       -22.8975 
  87   2.0000      -0.835948       -22.7473 
  88   2.0000      -0.824511       -22.4361 
  89   2.0000      -0.797692       -21.7063 
  90   2.0000      -0.791346       -21.5336 
  91   2.0000      -0.751065       -20.4375 
  92   2.0000      -0.744289       -20.2531 
  93   2.0000      -0.732940       -19.9443 
  94   2.0000      -0.724498       -19.7146 
  95   2.0000      -0.721992       -19.6464 
  96   2.0000      -0.716181       -19.4883 
  97   2.0000      -0.712121       -19.3778 
  98   2.0000      -0.707691       -19.2572 
  99   2.0000      -0.696913       -18.9640 
 100   2.0000      -0.696221       -18.9451 
 101   2.0000      -0.685078       -18.6419 
 102   2.0000      -0.681132       -18.5345 
 103   2.0000      -0.680628       -18.5208 
 104   2.0000      -0.678431       -18.4610 
 105   2.0000      -0.673397       -18.3241 
 106   2.0000      -0.669870       -18.2281 
 107   2.0000      -0.660765       -17.9803 
 108   2.0000      -0.656382       -17.8611 
 109   2.0000      -0.653470       -17.7818 
 110   2.0000      -0.650875       -17.7112 
 111   2.0000      -0.643574       -17.5125 
 112   2.0000      -0.642473       -17.4826 
 113   2.0000      -0.639731       -17.4080 
 114   2.0000      -0.637690       -17.3524 
 115   2.0000      -0.627757       -17.0821 
 116   2.0000      -0.624183       -16.9849 
 117   2.0000      -0.619642       -16.8613 
 118   2.0000      -0.612949       -16.6792 
 119   2.0000      -0.612499       -16.6670 
 120   2.0000      -0.610866       -16.6225 
 121   2.0000      -0.608160       -16.5489 
 122   2.0000      -0.600467       -16.3395 
 123   2.0000      -0.586673       -15.9642 
 124   2.0000      -0.582073       -15.8390 
 125   2.0000      -0.580354       -15.7922 
 126   2.0000      -0.579637       -15.7727 
 127   2.0000      -0.574142       -15.6232 
 128   2.0000      -0.567727       -15.4486 
 129   2.0000      -0.559255       -15.2181 
 130   2.0000      -0.551490       -15.0068 
 131   2.0000      -0.547540       -14.8993 
 132   2.0000      -0.542388       -14.7591 
 133   2.0000      -0.541173       -14.7261 
 134   2.0000      -0.538422       -14.6512 
 135   2.0000      -0.535600       -14.5744 
 136   2.0000      -0.528811       -14.3897 
 137   2.0000      -0.522552       -14.2194 
 138   2.0000      -0.516934       -14.0665 
 139   2.0000      -0.513931       -13.9848 
 140   2.0000      -0.512113       -13.9353 
 141   2.0000      -0.511167       -13.9095 
 142   2.0000      -0.509288       -13.8584 
 143   2.0000      -0.503731       -13.7072 
 144   2.0000      -0.502067       -13.6620 
 145   2.0000      -0.496996       -13.5239 
 146   2.0000      -0.492388       -13.3986 
 147   2.0000      -0.483476       -13.1561 
 148   2.0000      -0.479466       -13.0469 
 149   2.0000      -0.466704       -12.6997 
 150   2.0000      -0.466275       -12.6880 
 151   2.0000      -0.457166       -12.4401 
 152   2.0000      -0.450658       -12.2630 
 153   2.0000      -0.445108       -12.1120 
 154   2.0000      -0.441216       -12.0061 
 155   2.0000      -0.429160       -11.6780 
 156   2.0000      -0.427343       -11.6286 
 157   2.0000      -0.411532       -11.1984 
 158   2.0000      -0.404579       -11.0092 
 159   2.0000      -0.388503       -10.5717 
 160   2.0000      -0.384361       -10.4590 
 161   2.0000      -0.378349       -10.2954 
 162   2.0000      -0.370183       -10.0732 
 163   2.0000      -0.357021        -9.7150 
 164   2.0000      -0.355322        -9.6688 
 165   2.0000      -0.340745        -9.2722 
 166   2.0000      -0.337553        -9.1853 
 167   2.0000      -0.325857        -8.8670 
 168   2.0000      -0.324122        -8.8198 
 169   2.0000      -0.304366        -8.2822 
 170   2.0000      -0.299659        -8.1541 
 171   2.0000      -0.285860        -7.7786 
 172   2.0000      -0.281378        -7.6567 
 173   2.0000      -0.262915        -7.1543 
 174   2.0000      -0.242494        -6.5986 
 175   2.0000      -0.189912        -5.1678 
 176   2.0000      -0.180360        -4.9078 
 177   2.0000      -0.076438        -2.0800 
 178   2.0000      -0.058623        -1.5952 
 179   0.0000       0.028443         0.7740 
 180   0.0000       0.066132         1.7995 
 181   0.0000       0.091068         2.4781 
 182   0.0000       0.109470         2.9788 
 183   0.0000       0.110880         3.0172 
 184   0.0000       0.136722         3.7204 
 185   0.0000       0.139786         3.8038 
 186   0.0000       0.143560         3.9065 
 187   0.0000       0.163468         4.4482 
 188   0.0000       0.164794         4.4843 
 189   0.0000       0.166101         4.5198 
 190   0.0000       0.170005         4.6261 
 191   0.0000       0.183024         4.9803 
 192   0.0000       0.186425         5.0729 
 193   0.0000       0.187098         5.0912 
 194   0.0000       0.204595         5.5673 
 195   0.0000       0.206005         5.6057 
 196   0.0000       0.207923         5.6579 
 197   0.0000       0.209042         5.6883 
 198   0.0000       0.218983         5.9588 
 199   0.0000       0.226926         6.1750 
 200   0.0000       0.231269         6.2932 
 201   0.0000       0.236181         6.4268 
 202   0.0000       0.238947         6.5021 
 203   0.0000       0.240143         6.5346 
 204   0.0000       0.247842         6.7441 
 205   0.0000       0.256381         6.9765 
 206   0.0000       0.257009         6.9936 
 207   0.0000       0.257299         7.0015 
 208   0.0000       0.260150         7.0790 
 209   0.0000       0.261945         7.1279 
 210   0.0000       0.263106         7.1595 
 211   0.0000       0.268255         7.2996 
 212   0.0000       0.269573         7.3354 
 213   0.0000       0.271606         7.3908 
 214   0.0000       0.273009         7.4290 
 215   0.0000       0.276512         7.5243 
 216   0.0000       0.278599         7.5811 
 217   0.0000       0.280677         7.6376 
 218   0.0000       0.285467         7.7680 
 219   0.0000       0.288130         7.8404 
 220   0.0000       0.289101         7.8668 
 221   0.0000       0.292107         7.9486 
 222   0.0000       0.294451         8.0124 
 223   0.0000       0.296458         8.0670 
 224   0.0000       0.297882         8.1058 
 225   0.0000       0.299696         8.1552 
 226   0.0000       0.305397         8.3103 
 227   0.0000       0.308366         8.3911 
 228   0.0000       0.310310         8.4440 
 229   0.0000       0.324566         8.8319 
 230   0.0000       0.326834         8.8936 
 231   0.0000       0.330786         9.0011 
 232   0.0000       0.338342         9.2068 
 233   0.0000       0.345990         9.4149 
 234   0.0000       0.353067         9.6074 
 235   0.0000       0.355091         9.6625 
 236   0.0000       0.376461        10.2440 
 237   0.0000       0.380911        10.3651 
 238   0.0000       0.393615        10.7108 
 239   0.0000       0.396683        10.7943 
 240   0.0000       0.400782        10.9058 
 241   0.0000       0.410450        11.1689 
 242   0.0000       0.414277        11.2730 
 243   0.0000       0.419732        11.4215 
 244   0.0000       0.429183        11.6787 
 245   0.0000       0.433949        11.8083 
 246   0.0000       0.436547        11.8791 
 247   0.0000       0.441172        12.0049 
 248   0.0000       0.441672        12.0185 
 249   0.0000       0.449117        12.2211 
 250   0.0000       0.457982        12.4623 
 251   0.0000       0.460574        12.5329 
 252   0.0000       0.466227        12.6867 
 253   0.0000       0.471052        12.8180 
 254   0.0000       0.472504        12.8575 
 255   0.0000       0.474973        12.9247 
 256   0.0000       0.477625        12.9968 
 257   0.0000       0.480631        13.0786 
 258   0.0000       0.486747        13.2451 
 259   0.0000       0.497137        13.5278 
 260   0.0000       0.503443        13.6994 
 261   0.0000       0.504929        13.7398 
 262   0.0000       0.506965        13.7952 
 263   0.0000       0.511436        13.9169 
 264   0.0000       0.514115        13.9898 
 265   0.0000       0.518761        14.1162 
 266   0.0000       0.524592        14.2749 
 267   0.0000       0.530161        14.4264 
 268   0.0000       0.532604        14.4929 
 269   0.0000       0.536913        14.6101 
 270   0.0000       0.540253        14.7010 
 271   0.0000       0.545251        14.8370 
 272   0.0000       0.555172        15.1070 
 273   0.0000       0.559443        15.2232 
 274   0.0000       0.562265        15.3000 
 275   0.0000       0.565007        15.3746 
 276   0.0000       0.570244        15.5171 
 277   0.0000       0.572629        15.5820 
 278   0.0000       0.577385        15.7114 
 279   0.0000       0.586537        15.9605 
 280   0.0000       0.590218        16.0607 
 281   0.0000       0.591719        16.1015 
 282   0.0000       0.594567        16.1790 
 283   0.0000       0.595759        16.2114 
 284   0.0000       0.598321        16.2811 
 285   0.0000       0.601947        16.3798 
 286   0.0000       0.608205        16.5501 
 287   0.0000       0.611431        16.6379 
 288   0.0000       0.613645        16.6981 
 289   0.0000       0.624329        16.9889 
 290   0.0000       0.627307        17.0699 
 291   0.0000       0.629006        17.1161 
 292   0.0000       0.634811        17.2741 
 293   0.0000       0.637107        17.3366 
 294   0.0000       0.646401        17.5895 
 295   0.0000       0.647935        17.6312 
 296   0.0000       0.653327        17.7779 
 297   0.0000       0.655830        17.8461 
 298   0.0000       0.662740        18.0341 
 299   0.0000       0.667459        18.1625 
 300   0.0000       0.671102        18.2616 
 301   0.0000       0.675443        18.3797 
 302   0.0000       0.676134        18.3985 
 303   0.0000       0.678154        18.4535 
 304   0.0000       0.680252        18.5106 
 305   0.0000       0.685639        18.6572 
 306   0.0000       0.689411        18.7598 
 307   0.0000       0.691510        18.8169 
 308   0.0000       0.695725        18.9316 
 309   0.0000       0.698076        18.9956 
 310   0.0000       0.702500        19.1160 
 311   0.0000       0.704007        19.1570 
 312   0.0000       0.706749        19.2316 
 313   0.0000       0.711056        19.3488 
 314   0.0000       0.711493        19.3607 
 315   0.0000       0.715511        19.4701 
 316   0.0000       0.717253        19.5174 
 317   0.0000       0.718783        19.5591 
 318   0.0000       0.721977        19.6460 
 319   0.0000       0.722438        19.6585 
 320   0.0000       0.726463        19.7681 
 321   0.0000       0.730600        19.8806 
 322   0.0000       0.731732        19.9114 
 323   0.0000       0.734265        19.9804 
 324   0.0000       0.736805        20.0495 
 325   0.0000       0.738871        20.1057 
 326   0.0000       0.742347        20.2003 
 327   0.0000       0.747441        20.3389 
 328   0.0000       0.751987        20.4626 
 329   0.0000       0.753336        20.4993 
 330   0.0000       0.755759        20.5653 
 331   0.0000       0.758542        20.6410 
 332   0.0000       0.760411        20.6918 
 333   0.0000       0.761351        20.7174 
 334   0.0000       0.767939        20.8967 
 335   0.0000       0.771825        21.0024 
 336   0.0000       0.774957        21.0877 
 337   0.0000       0.782105        21.2822 
 338   0.0000       0.786845        21.4112 
 339   0.0000       0.788616        21.4593 
 340   0.0000       0.790259        21.5040 
 341   0.0000       0.794257        21.6128 
 342   0.0000       0.797503        21.7012 
 343   0.0000       0.802002        21.8236 
 344   0.0000       0.805922        21.9303 
 345   0.0000       0.808212        21.9926 
 346   0.0000       0.809734        22.0340 
 347   0.0000       0.812230        22.1019 
 348   0.0000       0.814017        22.1505 
 349   0.0000       0.817970        22.2581 
 350   0.0000       0.818378        22.2692 
 351   0.0000       0.820196        22.3187 
 352   0.0000       0.825170        22.4540 
 353   0.0000       0.826324        22.4854 
 354   0.0000       0.828183        22.5360 
 355   0.0000       0.831539        22.6273 
 356   0.0000       0.833133        22.6707 
 357   0.0000       0.836414        22.7600 
 358   0.0000       0.836487        22.7620 
 359   0.0000       0.838427        22.8147 
 360   0.0000       0.839616        22.8471 
 361   0.0000       0.842330        22.9210 
 362   0.0000       0.843984        22.9660 
 363   0.0000       0.846559        23.0360 
 364   0.0000       0.850853        23.1529 
 365   0.0000       0.855549        23.2807 
 366   0.0000       0.858887        23.3715 
 367   0.0000       0.860360        23.4116 
 368   0.0000       0.863789        23.5049 
 369   0.0000       0.865711        23.5572 
 370   0.0000       0.869410        23.6579 
 371   0.0000       0.872913        23.7532 
 372   0.0000       0.874151        23.7869 
 373   0.0000       0.877489        23.8777 
 374   0.0000       0.879198        23.9242 
 375   0.0000       0.883625        24.0447 
 376   0.0000       0.886072        24.1112 
 377   0.0000       0.887486        24.1497 
 378   0.0000       0.891208        24.2510 
 379   0.0000       0.891926        24.2705 
 380   0.0000       0.896349        24.3909 
 381   0.0000       0.899199        24.4684 
 382   0.0000       0.900932        24.5156 
 383   0.0000       0.902982        24.5714 
 384   0.0000       0.904558        24.6143 
 385   0.0000       0.904972        24.6255 
 386   0.0000       0.907504        24.6944 
 387   0.0000       0.909248        24.7419 
 388   0.0000       0.913515        24.8580 
 389   0.0000       0.916656        24.9435 
 390   0.0000       0.920843        25.0574 
 391   0.0000       0.922929        25.1142 
 392   0.0000       0.926177        25.2026 
 393   0.0000       0.927194        25.2302 
 394   0.0000       0.929288        25.2872 
 395   0.0000       0.930618        25.3234 
 396   0.0000       0.932060        25.3626 
 397   0.0000       0.938787        25.5457 
 398   0.0000       0.941159        25.6102 
 399   0.0000       0.943576        25.6760 
 400   0.0000       0.945978        25.7414 
 401   0.0000       0.951317        25.8866 
 402   0.0000       0.952639        25.9226 
 403   0.0000       0.955605        26.0033 
 404   0.0000       0.959741        26.1159 
 405   0.0000       0.963215        26.2104 
 406   0.0000       0.966715        26.3056 
 407   0.0000       0.970606        26.4115 
 408   0.0000       0.975089        26.5335 
 409   0.0000       0.980953        26.6931 
 410   0.0000       0.983590        26.7648 
 411   0.0000       0.986254        26.8373 
 412   0.0000       0.993658        27.0388 
 413   0.0000       0.998252        27.1638 
 414   0.0000       1.000378        27.2217 
 415   0.0000       1.002339        27.2750 
 416   0.0000       1.008865        27.4526 
 417   0.0000       1.013113        27.5682 
 418   0.0000       1.022126        27.8135 
 419   0.0000       1.026995        27.9459 
 420   0.0000       1.030866        28.0513 
 421   0.0000       1.032812        28.1042 
 422   0.0000       1.038038        28.2464 
 423   0.0000       1.045899        28.4604 
 424   0.0000       1.053531        28.6680 
 425   0.0000       1.056851        28.7584 
 426   0.0000       1.060399        28.8549 
 427   0.0000       1.066498        29.0209 
 428   0.0000       1.076095        29.2820 
 429   0.0000       1.082909        29.4675 
 430   0.0000       1.083496        29.4834 
 431   0.0000       1.087492        29.5922 
 432   0.0000       1.088954        29.6319 
 433   0.0000       1.093473        29.7549 
 434   0.0000       1.099792        29.9269 
 435   0.0000       1.102362        29.9968 
 436   0.0000       1.108479        30.1633 
 437   0.0000       1.110545        30.2195 
 438   0.0000       1.115764        30.3615 
 439   0.0000       1.120052        30.4782 
 440   0.0000       1.121102        30.5067 
 441   0.0000       1.123290        30.5663 
 442   0.0000       1.124389        30.5962 
 443   0.0000       1.128048        30.6957 
 444   0.0000       1.132499        30.8169 
 445   0.0000       1.136215        30.9180 
 446   0.0000       1.140462        31.0335 
 447   0.0000       1.146413        31.1955 
 448   0.0000       1.147768        31.2324 
 449   0.0000       1.149470        31.2787 
 450   0.0000       1.153354        31.3844 
 451   0.0000       1.159140        31.5418 
 452   0.0000       1.163477        31.6598 
 453   0.0000       1.166211        31.7342 
 454   0.0000       1.170041        31.8384 
 455   0.0000       1.172084        31.8940 
 456   0.0000       1.173176        31.9237 
 457   0.0000       1.179244        32.0889 
 458   0.0000       1.184533        32.2328 
 459   0.0000       1.189404        32.3653 
 460   0.0000       1.191645        32.4263 
 461   0.0000       1.198028        32.6000 
 462   0.0000       1.201114        32.6840 
 463   0.0000       1.203817        32.7575 
 464   0.0000       1.208423        32.8829 
 465   0.0000       1.210730        32.9456 
 466   0.0000       1.215314        33.0704 
 467   0.0000       1.217287        33.1241 
 468   0.0000       1.223391        33.2902 
 469   0.0000       1.227696        33.4073 
 470   0.0000       1.229406        33.4538 
 471   0.0000       1.233282        33.5593 
 472   0.0000       1.234993        33.6059 
 473   0.0000       1.235945        33.6318 
 474   0.0000       1.243059        33.8254 
 475   0.0000       1.243519        33.8379 
 476   0.0000       1.249413        33.9982 
 477   0.0000       1.250388        34.0248 
 478   0.0000       1.251940        34.0670 
 479   0.0000       1.255733        34.1702 
 480   0.0000       1.257781        34.2260 
 481   0.0000       1.263988        34.3949 
 482   0.0000       1.264412        34.4064 
 483   0.0000       1.272280        34.6205 
 484   0.0000       1.274886        34.6914 
 485   0.0000       1.279261        34.8105 
 486   0.0000       1.282531        34.8994 
 487   0.0000       1.285587        34.9826 
 488   0.0000       1.288025        35.0490 
 489   0.0000       1.292558        35.1723 
 490   0.0000       1.294885        35.2356 
 491   0.0000       1.297814        35.3153 
 492   0.0000       1.299645        35.3651 
 493   0.0000       1.309608        35.6362 
 494   0.0000       1.311400        35.6850 
 495   0.0000       1.317736        35.8574 
 496   0.0000       1.320646        35.9366 
 497   0.0000       1.321392        35.9569 
 498   0.0000       1.327018        36.1100 
 499   0.0000       1.328597        36.1530 
 500   0.0000       1.333170        36.2774 
 501   0.0000       1.338073        36.4108 
 502   0.0000       1.339864        36.4596 
 503   0.0000       1.344783        36.5934 
 504   0.0000       1.345639        36.6167 
 505   0.0000       1.351273        36.7700 
 506   0.0000       1.352720        36.8094 
 507   0.0000       1.355861        36.8949 
 508   0.0000       1.358632        36.9702 
 509   0.0000       1.360834        37.0302 
[...]
      pz      :     0.022102  p :     0.079757
      px      :     0.043577
      py      :     0.014078
 77 H s       :     0.885054  s :     0.885054
      pz      :     0.047938  p :     0.079245
      px      :     0.015022
      py      :     0.016285
 78 H s       :     0.885411  s :     0.885411
      pz      :     0.025862  p :     0.079210
      px      :     0.020467
      py      :     0.032881
 79 H s       :     0.910507  s :     0.910507
      pz      :     0.021834  p :     0.086357
      px      :     0.021672
      py      :     0.042851
 80 H s       :     0.865164  s :     0.865164
      pz      :     0.039330  p :     0.084745
      px      :     0.030241
      py      :     0.015174
 81 H s       :     0.886951  s :     0.886951
      pz      :     0.037807  p :     0.084099
      px      :     0.016184
      py      :     0.030108
 82 H s       :     0.915911  s :     0.915911
      pz      :     0.021966  p :     0.086740
      px      :     0.031621
      py      :     0.033153
 83 H s       :     0.873341  s :     0.873341
      pz      :     0.039274  p :     0.084076
      px      :     0.015273
      py      :     0.029529
 84 H s       :     0.886745  s :     0.886745
      pz      :     0.035773  p :     0.083471
      px      :     0.031698
      py      :     0.016001
 85 H s       :     0.892939  s :     0.892939
      pz      :     0.022491  p :     0.079783
      px      :     0.014073
      py      :     0.043220
 86 H s       :     0.890988  s :     0.890988
      pz      :     0.024729  p :     0.078830
      px      :     0.032980
      py      :     0.021121
 87 H s       :     0.889949  s :     0.889949
      pz      :     0.048003  p :     0.078731
      px      :     0.015589
      py      :     0.015139
 88 H s       :     0.910864  s :     0.910864
      pz      :     0.021661  p :     0.087009
      px      :     0.042899
      py      :     0.022449
 89 H s       :     0.871571  s :     0.871571
      pz      :     0.037931  p :     0.083826
      px      :     0.030471
      py      :     0.015424


                      *****************************
                      * MAYER POPULATION ANALYSIS *
                      *****************************

  NA   - Mulliken gross atomic population
  ZA   - Total nuclear charge
  QA   - Mulliken gross atomic charge
  VA   - Mayer's total valence
  BVA  - Mayer's bonded valence
  FA   - Mayer's free valence

  ATOM       NA         ZA         QA         VA         BVA        FA
  0 C      5.7908     6.0000     0.2092     3.8414     3.8414     0.0000
  1 N      7.4551     7.0000    -0.4551     3.3340     3.3340    -0.0000
  2 C      6.0673     6.0000    -0.0673     3.9204     3.9204    -0.0000
  3 N      7.3378     7.0000    -0.3378     3.4571     3.4571    -0.0000
  4 C      6.0488     6.0000    -0.0488     4.0374     4.0374    -0.0000
  5 N      7.5649     7.0000    -0.5649     3.0944     3.0944     0.0000
  6 C      6.1168     6.0000    -0.1168     3.9896     3.9896     0.0000
  7 N      7.3403     7.0000    -0.3403     3.4340     3.4340    -0.0000
  8 C      5.7918     6.0000     0.2082     3.8438     3.8438     0.0000
  9 N      7.5623     7.0000    -0.5623     3.0778     3.0778    -0.0000
 10 C      5.8810     6.0000     0.1190     3.9090     3.9090    -0.0000
 11 N      7.4383     7.0000    -0.4383     3.3787     3.3787     0.0000
 12 C      6.0799     6.0000    -0.0799     3.8917     3.8917    -0.0000
 13 N      7.4306     7.0000    -0.4306     3.4228     3.4228    -0.0000
 14 C      5.7691     6.0000     0.2309     3.7864     3.7864    -0.0000
 15 N      7.4411     7.0000    -0.4411     3.3717     3.3717    -0.0000
 16 C      5.7714     6.0000     0.2286     3.7785     3.7785    -0.0000
 17 C      6.1141     6.0000    -0.1141     3.9821     3.9821    -0.0000
 18 C      6.1925     6.0000    -0.1925     3.7662     3.7662    -0.0000
 19 C      5.7757     6.0000     0.2243     3.8627     3.8627     0.0000
 20 C      5.7870     6.0000     0.2130     3.8289     3.8289    -0.0000
 21 C      6.0898     6.0000    -0.0898     3.8773     3.8773    -0.0000
 22 C      6.0910     6.0000    -0.0910     3.9827     3.9827    -0.0000
 23 C      6.0403     6.0000    -0.0403     3.9925     3.9925    -0.0000
 24 C      5.8053     6.0000     0.1947     3.8214     3.8214    -0.0000
 25 C      5.8855     6.0000     0.1145     3.8914     3.8914    -0.0000
 26 C      6.0831     6.0000    -0.0831     3.9105     3.9105     0.0000
 27 C      5.7866     6.0000     0.2134     3.8634     3.8634    -0.0000
 28 C      6.0609     6.0000    -0.0609     3.9886     3.9886    -0.0000
 29 C      6.1805     6.0000    -0.1805     3.7448     3.7448    -0.0000
 30 C      5.7549     6.0000     0.2451     3.8000     3.8000    -0.0000
 31 C      5.7717     6.0000     0.2283     3.8184     3.8184    -0.0000
 32 C      6.0620     6.0000    -0.0620     3.9227     3.9227    -0.0000
 33 C      6.0626     6.0000    -0.0626     3.9733     3.9733     0.0000
 34 C      6.0509     6.0000    -0.0509     3.9846     3.9846     0.0000
 35 C      5.7744     6.0000     0.2256     3.8176     3.8176    -0.0000
 36 C      5.8911     6.0000     0.1089     3.8766     3.8766    -0.0000
 37 C      6.0645     6.0000    -0.0645     3.9177     3.9177    -0.0000
 38 C      5.7681     6.0000     0.2319     3.8004     3.8004    -0.0000
 39 C      6.0582     6.0000    -0.0582     3.9840     3.9840    -0.0000
 40 C      6.1820     6.0000    -0.1820     3.7288     3.7288    -0.0000
 41 C      5.7746     6.0000     0.2254     3.8862     3.8862    -0.0000
 42 C      5.8022     6.0000     0.1978     3.8261     3.8261    -0.0000
 43 C      6.0724     6.0000    -0.0724     3.9002     3.9002    -0.0000
 44 C      6.0897     6.0000    -0.0897     3.9850     3.9850     0.0000
 45 C      6.0605     6.0000    -0.0605     3.9923     3.9923     0.0000
 46 C      5.7894     6.0000     0.2106     3.8283     3.8283    -0.0000
 47 C      5.8846     6.0000     0.1154     3.8931     3.8931     0.0000
 48 C      6.0677     6.0000    -0.0677     3.9091     3.9091    -0.0000
 49 C      5.7622     6.0000     0.2378     3.8929     3.8929    -0.0000
 50 C      6.0472     6.0000    -0.0472     3.9905     3.9905    -0.0000
 51 C      6.1921     6.0000    -0.1921     3.7360     3.7360    -0.0000
 52 H      0.9605     1.0000     0.0395     0.9860     0.9860     0.0000
 53 H      1.0168     1.0000    -0.0168     0.9984     0.9984    -0.0000
 54 H      0.9512     1.0000     0.0488     1.0153     1.0153     0.0000
 55 H      0.9625     1.0000     0.0375     0.9867     0.9867     0.0000
 56 H      0.9505     1.0000     0.0495     0.9696     0.9696     0.0000
 57 H      0.9525     1.0000     0.0475     0.9828     0.9828    -0.0000
 58 H      0.9520     1.0000     0.0480     0.9848     0.9848    -0.0000
 59 H      0.9992     1.0000     0.0008     1.0028     1.0028    -0.0000
 60 H      0.9486     1.0000     0.0514     1.0171     1.0171     0.0000
 61 H      0.8287     1.0000     0.1713     1.0421     1.0421    -0.0000
 62 H      0.8247     1.0000     0.1753     1.0436     1.0436    -0.0000
 63 H      0.9446     1.0000     0.0554     0.9853     0.9853    -0.0000
 64 H      1.0099     1.0000    -0.0099     0.9954     0.9954    -0.0000
 65 H      0.9526     1.0000     0.0474     1.0096     1.0096    -0.0000
 66 H      0.9441     1.0000     0.0559     0.9854     0.9854    -0.0000
 67 H      0.9376     1.0000     0.0624     0.9719     0.9719    -0.0000
 68 H      0.9426     1.0000     0.0574     0.9868     0.9868     0.0000
 69 H      0.9434     1.0000     0.0566     0.9828     0.9828     0.0000
 70 H      1.0296     1.0000    -0.0296     0.9936     0.9936     0.0000
 71 H      0.9551     1.0000     0.0449     1.0060     1.0060    -0.0000
 72 H      0.9302     1.0000     0.0698     0.9837     0.9837    -0.0000
 73 H      1.0085     1.0000    -0.0085     1.0007     1.0007    -0.0000
 74 H      0.9410     1.0000     0.0590     1.0101     1.0101     0.0000
 75 H      0.9308     1.0000     0.0692     0.9840     0.9840     0.0000
 76 H      0.9264     1.0000     0.0736     0.9721     0.9721     0.0000
 77 H      0.9330     1.0000     0.0670     0.9854     0.9854    -0.0000
 78 H      0.9338     1.0000     0.0662     0.9853     0.9853    -0.0000
 79 H      1.0162     1.0000    -0.0162     0.9977     0.9977    -0.0000
 80 H      0.9402     1.0000     0.0598     1.0072     1.0072    -0.0000
 81 H      0.9460     1.0000     0.0540     0.9856     0.9856    -0.0000
 82 H      1.0247     1.0000    -0.0247     0.9935     0.9935     0.0000
 83 H      0.9580     1.0000     0.0420     1.0083     1.0083     0.0000
 84 H      0.9460     1.0000     0.0540     0.9853     0.9853     0.0000
 85 H      0.9393     1.0000     0.0607     0.9716     0.9716    -0.0000
 86 H      0.9444     1.0000     0.0556     0.9839     0.9839     0.0000
 87 H      0.9430     1.0000     0.0570     0.9856     0.9856     0.0000
 88 H      1.0150     1.0000    -0.0150     0.9966     0.9966     0.0000
 89 H      0.9540     1.0000     0.0460     1.0075     1.0075    -0.0000

  Mayer bond orders larger than 0.100000
B(  0-C ,  1-N ) :   1.0914 B(  0-C , 17-C ) :   1.7076 B(  0-C , 52-H ) :   0.9661 
B(  1-N ,  8-C ) :   1.0912 B(  1-N , 10-C ) :   0.9774 B(  2-C , 12-C ) :   1.5044 
B(  2-C , 16-C ) :   1.3582 B(  2-C , 53-H ) :   0.9748 B(  3-N , 14-C ) :   1.2189 
B(  3-N , 16-C ) :   1.1886 B(  3-N , 61-H ) :   0.8990 B(  4-C ,  6-C ) :   1.2140 
B(  4-C , 17-C ) :   1.2121 B(  4-C , 18-C ) :   1.4401 B(  5-N , 19-C ) :   1.4524 
B(  5-N , 27-C ) :   1.3782 B(  6-C ,  8-C ) :   1.7042 B(  6-C , 54-H ) :   0.9513 
B(  7-N , 30-C ) :   1.1956 B(  7-N , 38-C ) :   1.1911 B(  7-N , 62-H ) :   0.8969 
B(  8-C , 55-H ) :   0.9670 B(  9-N , 41-C ) :   1.3949 B(  9-N , 49-C ) :   1.4250 
B( 10-C , 56-H ) :   0.9771 B( 10-C , 57-H ) :   0.9822 B( 10-C , 58-H ) :   0.9843 
B( 11-N , 20-C ) :   1.1305 B( 11-N , 24-C ) :   1.1082 B( 11-N , 25-C ) :   0.9600 
B( 12-C , 14-C ) :   1.3560 B( 12-C , 59-H ) :   0.9707 B( 13-N , 31-C ) :   1.1574 
B( 13-N , 35-C ) :   1.1550 B( 13-N , 36-C ) :   0.9433 B( 14-C , 18-C ) :   1.1294 
B( 15-N , 42-C ) :   1.1081 B( 15-N , 46-C ) :   1.1228 B( 15-N , 47-C ) :   0.9615 
B( 16-C , 51-C ) :   1.1714 B( 17-C , 60-H ) :   0.9462 B( 18-C , 19-C ) :   1.1333 
B( 19-C , 21-C ) :   1.2463 B( 20-C , 28-C ) :   1.6281 B( 20-C , 63-H ) :   0.9703 
B( 21-C , 26-C ) :   1.6029 B( 21-C , 64-H ) :   0.9627 B( 22-C , 23-C ) :   1.2891 
B( 22-C , 28-C ) :   1.2648 B( 22-C , 29-C ) :   1.2239 B( 23-C , 24-C ) :   1.6199 
B( 23-C , 65-H ) :   0.9703 B( 24-C , 66-H ) :   0.9695 B( 25-C , 67-H ) :   0.9760 
B( 25-C , 68-H ) :   0.9828 B( 25-C , 69-H ) :   0.9823 B( 26-C , 27-C ) :   1.2445 
B( 26-C , 70-H ) :   0.9703 B( 27-C , 29-C ) :   1.2122 B( 28-C , 71-H ) :   0.9719 
B( 29-C , 30-C ) :   1.2416 B( 30-C , 32-C ) :   1.2831 B( 31-C , 39-C ) :   1.5926 
B( 31-C , 72-H ) :   0.9683 B( 32-C , 37-C ) :   1.5757 B( 32-C , 73-H ) :   0.9785 
B( 33-C , 34-C ) :   1.3039 B( 33-C , 39-C ) :   1.2999 B( 33-C , 40-C ) :   1.1837 
B( 34-C , 35-C ) :   1.5899 B( 34-C , 74-H ) :   0.9697 B( 35-C , 75-H ) :   0.9683 
B( 36-C , 76-H ) :   0.9767 B( 36-C , 77-H ) :   0.9816 B( 36-C , 78-H ) :   0.9824 
B( 37-C , 38-C ) :   1.2881 B( 37-C , 79-H ) :   0.9766 B( 38-C , 40-C ) :   1.2308 
B( 39-C , 80-H ) :   0.9706 B( 40-C , 41-C ) :   1.2477 B( 41-C , 43-C ) :   1.1874 
B( 42-C , 50-C ) :   1.6336 B( 42-C , 81-H ) :   0.9697 B( 43-C , 48-C ) :   1.6651 
B( 43-C , 82-H ) :   0.9723 B( 44-C , 45-C ) :   1.2639 B( 44-C , 50-C ) :   1.2714 
B( 44-C , 51-C ) :   1.2609 B( 45-C , 46-C ) :   1.6350 B( 45-C , 83-H ) :   0.9718 
B( 46-C , 84-H ) :   0.9700 B( 47-C , 85-H ) :   0.9762 B( 47-C , 86-H ) :   0.9829 
B( 47-C , 87-H ) :   0.9825 B( 48-C , 49-C ) :   1.1908 B( 48-C , 88-H ) :   0.9748 
B( 49-C , 51-C ) :   1.2407 B( 50-C , 89-H ) :   0.9710 

-------
TIMINGS
-------

Total SCF time: 0 days 0 hours 28 min 48 sec 

Total time                  ....    1728.370 sec
Sum of individual times     ....    1723.633 sec  ( 99.7%)

Fock matrix formation       ....    1695.775 sec  ( 98.1%)
Diagonalization             ....       8.808 sec  (  0.5%)
Density matrix formation    ....       0.540 sec  (  0.0%)
Population analysis         ....       0.606 sec  (  0.0%)
Initial guess               ....       2.532 sec  (  0.1%)
Orbital Transformation      ....       0.000 sec  (  0.0%)
Orbital Orthonormalization  ....       0.000 sec  (  0.0%)
DIIS solution               ....       3.974 sec  (  0.2%)
SOSCF solution              ....      10.099 sec  (  0.6%)

Maximum memory used throughout the entire SCF-calculation: 302.6 MB


           ************************************************************
           *        Program running with 16 parallel MPI-processes    *
           *              working on a common directory               *
           ************************************************************

------------------------------------------------------------------------------
                                ORCA  MP2 
------------------------------------------------------------------------------

Freezing NCore=104 chemical core electrons

----------
MP2 ENERGY (disk based algorithm)
----------

Dimension of the basis                    ...  918
Memory devoted to MP2                     ... 2000 MB   
Data format for buffers                   ... DOUBLE
Compression type for matrix containers    ... UNCOMPRESSED

-------------------------------
PARTIAL EXCHANGE TRANSFORMATION
-------------------------------

Transformation type                        ... one-operator
Generation of integrals (i,mue|j,nue)      ... ON
Generation of integrals (mue,kappa|nue,tau)... OFF
Generation of integrals (i,mue|a,nue)      ... OFF
Dimension of the basis                     ...  918
Number of internal MOs                     ...  127 (  52- 178)
Pair cutoff                                ... 2.500e-12 Eh
Number of AO pairs in the trafo            ... 421821
Total Number of distinct AO pairs          ... 421821
Memory devoted for trafo                   ... 2000.0 MB 
Max. Number of MO pairs treated together   ...  311      
Number Format for Storage                  ... Double (8 Byte)
Integral package used                      ... LIBINT

Starting integral evaluation:
    ... done with AO integral generation
Closing buffer AOK     (38.27 GB; CompressionRatio= 1.32)
Collecting buffer AOK 
Number of MO pairs included in the trafo   ... 8128
------------------------
SORTING OF (i,mue|j,nue)
------------------------

IBATCH = 1 of  2
IBATCH = 2 of  2
Closing buffer KAO     (51.03 GB; CompressionRatio= 1.00)
Collecting buffer KAO 
N(AO-Batches) Done                         ...  85987898 
N(AO-Batches) Skipped                      ...  82285966 
N(IJ)-pairs Skipped                        ...         0 
TOTAL TIME for half transformation         ...  2697.107 sec
AO-integral generation                     ...   212.101 sec
Half transformation                        ...   424.646 sec
K-integral sorting                         ...  1841.041 sec
Process 10:   Internal MO 132
Process 13:   Internal MO 156

Finished integral transformation - now doing MP2 part

Process  4:   Internal MO  84
Process  1:   Internal MO  60
Process  7:   Internal MO 108
OPERATOR COMBINATION   0   0: ij=( 52..178, 52..178)
Process  5:   Internal MO  93
Process  1:   Internal MO  63
Process  2:   Internal MO  69
Process  8:   Internal MO 117
Process  0:   Internal MO  54
Process  1:   Internal MO  66
Process  0:   Internal MO  57
Process 11:   Internal MO 141
Process  2:   Internal MO  72
Process 14:   Internal MO 165
Process  4:   Internal MO  87
Process  9:   Internal MO 126
Process  2:   Internal MO  75
Process  5:   Internal MO  96
Process  6:   Internal MO 102
Process 12:   Internal MO 150
Process  7:   Internal MO 111
Process  4:   Internal MO  90
Process  3:   Internal MO  78
Process 15:   Internal MO 174
Process  8:   Internal MO 120
Process 10:   Internal MO 135
Process  3:   Internal MO  81
Process  5:   Internal MO  99
Process  9:   Internal MO 129
Process  6:   Internal MO 105
Process  7:   Internal MO 114
Process 13:   Internal MO 159
Process 11:   Internal MO 144
Process 12:   Internal MO 153
Process  8:   Internal MO 123
Process 14:   Internal MO 168
Process 10:   Internal MO 138
Process 15:   Internal MO 177
Process 11:   Internal MO 147
Process 13:   Internal MO 162
Process 14:   Internal MO 171
-----------------------------------------------
 MP2 CORRELATION ENERGY   :     -7.284021601 Eh
-----------------------------------------------


-------
TIMINGS
-------
Total time                : 3037.667 sec
Integral trafo            : 2699.274 sec ( 88.9%)
K(i,j)                    :   32.366 sec (  1.1%)
T(i,j)                    :    3.384 sec (  0.1%)

---------------------------------------
MP2 TOTAL ENERGY:    -2130.871640392 Eh
---------------------------------------

Maximum memory used throughout the entire MP2-calculation: 2275.3 MB

-------------------------   --------------------
FINAL SINGLE POINT ENERGY     -2130.871640392245
-------------------------   --------------------


                            ***************************************
                            *     ORCA property calculations      *
                            ***************************************


  WARNING: The energy has been calculated at the MP2 level but the densities
           used in the property calculations are still SCF densities
           MP2 response densities have not been calculated 
           use %mp2 Density relaxed end
           or  %mp2 Density unrelaxed end

                                    ---------------------
                                    Active property flags
                                    ---------------------
   (+) Dipole Moment


------------------------------------------------------------------------------
                       ORCA ELECTRIC PROPERTIES CALCULATION
------------------------------------------------------------------------------

Dipole Moment Calculation                       ... on
Quadrupole Moment Calculation                   ... off
Polarizability Calculation                      ... off
GBWName                                         ... /scratch/allen/tmpyp4_amber_gaff2/conf1/conf1/Conf209.orca.gbw
Electron density                                ... /scratch/allen/tmpyp4_amber_gaff2/conf1/conf1/Conf209.orca.scfp
The origin for moment calculation is the CENTER OF MASS  = ( 0.002677, -0.002188 -0.000938)

-------------
DIPOLE MOMENT
-------------
                                X             Y             Z
Electronic contribution:      2.38220      -4.00719      -0.16890
Nuclear contribution   :      0.07711       0.23912       0.16775
                        -----------------------------------------
Total Dipole Moment    :      2.45930      -3.76807      -0.00115
                        -----------------------------------------
Magnitude (a.u.)       :      4.49962
Magnitude (Debye)      :     11.43712



--------------------
Rotational spectrum 
--------------------
 
Rotational constants in cm-1:     0.001501     0.001478     0.000760 
Rotational constants in MHz :    44.985389    44.322001    22.797351 

 Dipole components along the rotational axes: 
x,y,z [a.u.] :     3.224715    -3.138116    -0.001601 
x,y,z [Debye]:     8.196575    -7.976457    -0.004069 

 

Timings for individual modules:

Sum of individual times         ...     4790.712 sec (=  79.845 min)
GTO integral calculation        ...        3.458 sec (=   0.058 min)   0.1 %
SCF iterations                  ...     1729.580 sec (=  28.826 min)  36.1 %
MP2 module                      ...     3057.673 sec (=  50.961 min)  63.8 %
                             ****ORCA TERMINATED NORMALLY****
TOTAL RUN TIME: 0 days 1 hours 19 minutes 54 seconds 254 msec
# of primitive gaussian functions

