
                                 *****************
                                 * O   R   C   A *
                                 *****************

                                            #,                                       
                                            ###                                      
                                            ####                                     
                                            #####                                    
                                            ######                                   
                                           ########,                                 
                                     ,,################,,,,,                         
                               ,,#################################,,                 
                          ,,##########################################,,             
                       ,#########################################, ''#####,          
                    ,#############################################,,   '####,        
                  ,##################################################,,,,####,       
                ,###########''''           ''''###############################       
              ,#####''   ,,,,##########,,,,          '''####'''          '####       
            ,##' ,,,,###########################,,,                        '##       
           ' ,,###''''                  '''############,,,                           
         ,,##''                                '''############,,,,        ,,,,,,###''
      ,#''                                            '''#######################'''  
     '                                                          ''''####''''         
             ,#######,   #######,   ,#######,      ##                                
            ,#'     '#,  ##    ##  ,#'     '#,    #''#        ######   ,####,        
            ##       ##  ##   ,#'  ##            #'  '#       #        #'  '#        
            ##       ##  #######   ##           ,######,      #####,   #    #        
            '#,     ,#'  ##    ##  '#,     ,#' ,#      #,         ##   #,  ,#        
             '#######'   ##     ##  '#######'  #'      '#     #####' # '####'        



                  #######################################################
                  #                        -***-                        #
                  #          Department of theory and spectroscopy      #
                  #    Directorship and core code : Frank Neese         #
                  #        Max Planck Institute fuer Kohlenforschung    #
                  #                Kaiser Wilhelm Platz 1               #
                  #                 D-45470 Muelheim/Ruhr               #
                  #                      Germany                        #
                  #                                                     #
                  #                  All rights reserved                #
                  #                        -***-                        #
                  #######################################################


                         Program Version 5.0.4 -  RELEASE  -


 With contributions from (in alphabetic order):
   Daniel Aravena         : Magnetic Suceptibility
   Michael Atanasov       : Ab Initio Ligand Field Theory (pilot matlab implementation)
   Alexander A. Auer      : GIAO ZORA, VPT2 properties, NMR spectrum
   Ute Becker             : Parallelization
   Giovanni Bistoni       : ED, misc. LED, open-shell LED, HFLD
   Martin Brehm           : Molecular dynamics
   Dmytro Bykov           : SCF Hessian
   Vijay G. Chilkuri      : MRCI spin determinant printing, contributions to CSF-ICE
   Dipayan Datta          : RHF DLPNO-CCSD density
   Achintya Kumar Dutta   : EOM-CC, STEOM-CC
   Dmitry Ganyushin       : Spin-Orbit,Spin-Spin,Magnetic field MRCI
   Miquel Garcia          : C-PCM and meta-GGA Hessian, CC/C-PCM, Gaussian charge scheme
   Yang Guo               : DLPNO-NEVPT2, F12-NEVPT2, CIM, IAO-localization
   Andreas Hansen         : Spin unrestricted coupled pair/coupled cluster methods
   Benjamin Helmich-Paris : MC-RPA, TRAH-SCF, COSX integrals
   Lee Huntington         : MR-EOM, pCC
   Robert Izsak           : Overlap fitted RIJCOSX, COSX-SCS-MP3, EOM
   Marcus Kettner         : VPT2
   Christian Kollmar      : KDIIS, OOCD, Brueckner-CCSD(T), CCSD density, CASPT2, CASPT2-K
   Simone Kossmann        : Meta GGA functionals, TD-DFT gradient, OOMP2, MP2 Hessian
   Martin Krupicka        : Initial AUTO-CI
   Lucas Lang             : DCDCAS
   Marvin Lechner         : AUTO-CI (C++ implementation), FIC-MRCC
   Dagmar Lenk            : GEPOL surface, SMD
   Dimitrios Liakos       : Extrapolation schemes; Compound Job, initial MDCI parallelization
   Dimitrios Manganas     : Further ROCIS development; embedding schemes
   Dimitrios Pantazis     : SARC Basis sets
   Anastasios Papadopoulos: AUTO-CI, single reference methods and gradients
   Taras Petrenko         : DFT Hessian,TD-DFT gradient, ASA, ECA, R-Raman, ABS, FL, XAS/XES, NRVS
   Peter Pinski           : DLPNO-MP2, DLPNO-MP2 Gradient
   Christoph Reimann      : Effective Core Potentials
   Marius Retegan         : Local ZFS, SOC
   Christoph Riplinger    : Optimizer, TS searches, QM/MM, DLPNO-CCSD(T), (RO)-DLPNO pert. Triples
   Tobias Risthaus        : Range-separated hybrids, TD-DFT gradient, RPA, STAB
   Michael Roemelt        : Original ROCIS implementation
   Masaaki Saitow         : Open-shell DLPNO-CCSD energy and density
   Barbara Sandhoefer     : DKH picture change effects
   Avijit Sen             : IP-ROCIS
   Kantharuban Sivalingam : CASSCF convergence, NEVPT2, FIC-MRCI
   Bernardo de Souza      : ESD, SOC TD-DFT
   Georgi Stoychev        : AutoAux, RI-MP2 NMR, DLPNO-MP2 response
   Willem Van den Heuvel  : Paramagnetic NMR
   Boris Wezisla          : Elementary symmetry handling
   Frank Wennmohs         : Technical directorship


 We gratefully acknowledge several colleagues who have allowed us to
 interface, adapt or use parts of their codes:
   Stefan Grimme, W. Hujo, H. Kruse, P. Pracht,  : VdW corrections, initial TS optimization,
                  C. Bannwarth, S. Ehlert          DFT functionals, gCP, sTDA/sTD-DF
   Ed Valeev, F. Pavosevic, A. Kumar             : LibInt (2-el integral package), F12 methods
   Garnet Chan, S. Sharma, J. Yang, R. Olivares  : DMRG
   Ulf Ekstrom                                   : XCFun DFT Library
   Mihaly Kallay                                 : mrcc  (arbitrary order and MRCC methods)
   Jiri Pittner, Ondrej Demel                    : Mk-CCSD
   Frank Weinhold                                : gennbo (NPA and NBO analysis)
   Christopher J. Cramer and Donald G. Truhlar   : smd solvation model
   Lars Goerigk                                  : TD-DFT with DH, B97 family of functionals
   V. Asgeirsson, H. Jonsson                     : NEB implementation
   FAccTs GmbH                                   : IRC, NEB, NEB-TS, DLPNO-Multilevel, CI-OPT
                                                   MM, QMMM, 2- and 3-layer-ONIOM, Crystal-QMMM,
                                                   LR-CPCM, SF, NACMEs, symmetry and pop. for TD-DFT,
                                                   nearIR, NL-DFT gradient (VV10), updates on ESD,
                                                   ML-optimized integration grids
   S Lehtola, MJT Oliveira, MAL Marques          : LibXC Library
   Liviu Ungur et al                             : ANISO software


 Your calculation uses the libint2 library for the computation of 2-el integrals
 For citations please refer to: http://libint.valeyev.net

 Your ORCA version has been built with support for libXC version: 5.1.0
 For citations please refer to: https://tddft.org/programs/libxc/

 This ORCA versions uses:
   CBLAS   interface :  Fast vector & matrix operations
   LAPACKE interface :  Fast linear algebra routines
   SCALAPACK package :  Parallel linear algebra routines
   Shared memory     :  Shared parallel matrices
   BLAS/LAPACK       :  OpenBLAS 0.3.15  USE64BITINT DYNAMIC_ARCH NO_AFFINITY Sandybridge SINGLE_THREADED
        Core in use  :  Sandybridge
   Copyright (c) 2011-2014, The OpenBLAS Project


================================================================================

----- Orbital basis set information -----
Your calculation utilizes the basis: cc-pVDZ 
       H, B-Ne : Obtained from the ccRepo (grant-hill.group.shef.ac.uk/ccrepo) Feb. 2017
                 T. H. Dunning, Jr., J. Chem. Phys. 90, 1007 (1989)
            He : Obtained from the ccRepo (grant-hill.group.shef.ac.uk/ccrepo) Feb. 2017
                 D. E. Woon, T. H. Dunning, Jr., J. Chem. Phys. 100, 2975 (1994)
  Li-Be, Na-Mg : Obtained from the ccRepo (grant-hill.group.shef.ac.uk/ccrepo) Feb. 2017
                 B. P. Prascher, D. E. Woon, K. A. Peterson, T. H. Dunning, Jr., A. K. Wilson, Theor. Chem. Acc. 128, 69 (2011)
         Al-Ar : Obtained from the ccRepo (grant-hill.group.shef.ac.uk/ccrepo) Feb. 2017
                 D. E. Woon, T. H. Dunning, Jr., J. Chem. Phys. 98, 1358 (1993)
            Ca : Obtained from the Peterson Research Group Website (tyr0.chem.wsu.edu/~kipeters) Feb. 2017
                 J. Koput, K. A. Peterson, J. Phys. Chem. 106, 9595 (2002)
         Sc-Zn : Obtained from the ccRepo (grant-hill.group.shef.ac.uk/ccrepo) Feb. 2017
                 N. B. Balabanov, K. A. Peterson, J. Chem. Phys. 123, 064107 (2005)
                 N. B. Balabanov, K. A. Peterson, J. Chem. Phys. 125, 074110 (2006)
         Ga-Kr : Obtained from the ccRepo (grant-hill.group.shef.ac.uk/ccrepo) Feb. 2017
                 A. K. Wilson, D. E. Woon, K. A. Peterson, T. H. Dunning, Jr., J. Chem. Phys. 110, 7667 (1999)

================================================================================
                                        WARNINGS
                       Please study these warnings very carefully!
================================================================================


WARNING: No MP2 level density has been requested!
         To caclulate MP2 level properties use
         %mp2 Density relaxed end
         or
         %mp2 Density unrelaxed end

WARNING: Post HF methods need fully converged wavefunctions
  ===> : Setting SCFConvForced true
         You can overwrite this default with %scf ConvForced false 


INFO   : the flag for use of the SHARK integral package has been found!

================================================================================
                                       INPUT FILE
================================================================================
NAME = /scratch/allen/tmpyp4_amber_gaff2/2.Mdgx/conf11/conf11/Conf1.orca
|  1> ! PAL2
|  2> ! mp2 cc-pvdz TightSCF  NoKeepInts
|  3> 
|  4> %scf
|  5>   MaxCore 2000
|  6> end
|  7> %mp2
|  8>   MaxCore 2000
|  9> end
| 10> * xyz 0 1
| 11>    C       -3.03400         6.49400         0.11000
| 12>    C        1.47400         4.04100         0.05700
| 13>    C       -2.80200         4.09300         0.04900
| 14>    C       -4.20300         4.00900         0.05100
| 15>    C       -4.96600         5.15900         0.08000
| 16>    C       -5.22700         7.59200         0.10400
| 17>    C        0.13200         4.30700         0.06100
| 18>    C       -0.56900         3.05600         0.04700
| 19>    C        1.64900         2.61800         0.02300
| 20>    C       -2.22700         5.37300         0.07600
| 21>    N       -4.38100         6.37900         0.11200
| 22>    N        0.38800         2.06700         0.02500
| 23>    N       -2.01000         0.39500        -0.07500
| 24>    N       -0.38800        -2.07400        -0.02700
| 25>    N        2.01000        -0.40100         0.06500
| 26>    C       -1.96000         2.86100         0.02400
| 27>    C       -2.62300         1.61500        -0.01800
| 28>    C       -5.57300        -4.32900         1.06600
| 29>    C       -4.07300         1.47100         0.05600
| 30>    C       -4.10600        -2.75600        -0.02600
| 31>    C       -4.99500        -2.75700        -1.11100
| 32>    C       -6.13200        -3.54200        -1.07600
| 33>    C       -7.65100        -5.11300         0.04000
| 34>    C       -4.32400         0.14100         0.03700
| 35>    C       -3.02500        -0.52000        -0.04800
| 36>    C       -4.42200        -3.56600         1.07500
| 37>    N       -6.40700        -4.31300         0.00100
| 38>    C       -2.86700        -1.92200        -0.04000
| 39>    C       -1.65000        -2.62400        -0.02700
| 40>    C        3.56800        -6.14200        -1.04000
| 41>    C       -1.47600        -4.04900        -0.03400
| 42>    C        2.80300        -4.09900        -0.00800
| 43>    C        3.65700        -4.38400         1.06900
| 44>    C        4.42700        -5.53000         1.05900
| 45>    C        5.24500        -7.58800         0.01400
| 46>    C       -0.13400        -4.31500        -0.02200
| 47>    C        0.56800        -3.06400        -0.02700
| 48>    C        2.77500        -5.01200        -1.07400
| 49>    N        4.37600        -6.39100         0.01700
| 50>    C        1.95900        -2.86900        -0.00900
| 51>    C        2.62100        -1.62200         0.00900
| 52>    C        5.54300         4.33900        -1.13000
| 53>    C        4.07000        -1.47900        -0.09400
| 54>    C        4.10400         2.75100        -0.02100
| 55>    C        5.02700         2.72900         1.03600
| 56>    C        6.16600         3.50900         0.97800
| 57>    C        7.61900         5.15300        -0.11500
| 58>    C        4.32100        -0.14800        -0.09200
| 59>    C        3.02500         0.51400         0.01500
| 60>    C        4.38700         3.58200        -1.11500
| 61>    C        2.86600         1.91600         0.01300
| 62>    N        6.41300         4.29600        -0.09500
| 63>    H       -2.63400         7.50100         0.14500
| 64>    H        2.27400         4.76600         0.08100
| 65>    H       -4.70500         3.05000         0.02100
| 66>    H       -6.04900         5.14400         0.07400
| 67>    H       -5.46800         7.85100        -0.93000
| 68>    H       -6.14100         7.38700         0.66200
| 69>    H       -4.67700         8.40700         0.57400
| 70>    H       -0.33200         5.28200         0.06900
| 71>    H       -1.15200         5.50400         0.09100
| 72>    H        0.18200         1.07200         0.00500
| 73>    H       -0.18300        -1.08000        -0.02100
| 74>    H       -5.86400        -4.96200         1.89500
| 75>    H       -4.79400         2.27200         0.13900
| 76>    H       -4.80000        -2.16000        -1.99400
| 77>    H       -6.84100        -3.58200        -1.89300
| 78>    H       -8.42800        -4.53600         0.54600
| 79>    H       -7.95600        -5.33700        -0.98100
| 80>    H       -7.45600        -6.03700         0.58400
| 81>    H       -5.28700        -0.34400         0.10000
| 82>    H       -3.78000        -3.60100         1.94700
| 83>    H        3.58700        -6.86800        -1.84300
| 84>    H       -2.27600        -4.77400        -0.05000
| 85>    H        3.71400        -3.72400         1.92600
| 86>    H        5.09200        -5.79500         1.87100
| 87>    H        6.20500        -7.32900        -0.43900
| 88>    H        5.39300        -7.91700         1.04200
| 89>    H        4.75900        -8.37300        -0.56400
| 90>    H        0.32900        -5.29000        -0.00800
| 91>    H        2.14600        -4.84200        -1.94000
| 92>    H        5.80800         4.98600        -1.95600
| 93>    H        4.78800        -2.28100        -0.18500
| 94>    H        4.86000         2.11400         1.91200
| 95>    H        6.90100         3.53100         1.77200
| 96>    H        7.38300         6.10900         0.35600
| 97>    H        8.41400         4.65200         0.43500
| 98>    H        7.92100         5.31000        -1.15000
| 99>    H        5.28300         0.33600        -0.17900
|100>    H        3.72000         3.63200        -1.96700
|101> *
|102> 
|103>                          ****END OF INPUT****
================================================================================

                       ****************************
                       * Single Point Calculation *
                       ****************************

---------------------------------
CARTESIAN COORDINATES (ANGSTROEM)
---------------------------------
  C     -3.034000    6.494000    0.110000
  C      1.474000    4.041000    0.057000
  C     -2.802000    4.093000    0.049000
  C     -4.203000    4.009000    0.051000
  C     -4.966000    5.159000    0.080000
  C     -5.227000    7.592000    0.104000
  C      0.132000    4.307000    0.061000
  C     -0.569000    3.056000    0.047000
  C      1.649000    2.618000    0.023000
  C     -2.227000    5.373000    0.076000
  N     -4.381000    6.379000    0.112000
  N      0.388000    2.067000    0.025000
  N     -2.010000    0.395000   -0.075000
  N     -0.388000   -2.074000   -0.027000
  N      2.010000   -0.401000    0.065000
  C     -1.960000    2.861000    0.024000
  C     -2.623000    1.615000   -0.018000
  C     -5.573000   -4.329000    1.066000
  C     -4.073000    1.471000    0.056000
  C     -4.106000   -2.756000   -0.026000
  C     -4.995000   -2.757000   -1.111000
  C     -6.132000   -3.542000   -1.076000
  C     -7.651000   -5.113000    0.040000
  C     -4.324000    0.141000    0.037000
  C     -3.025000   -0.520000   -0.048000
  C     -4.422000   -3.566000    1.075000
  N     -6.407000   -4.313000    0.001000
  C     -2.867000   -1.922000   -0.040000
  C     -1.650000   -2.624000   -0.027000
  C      3.568000   -6.142000   -1.040000
  C     -1.476000   -4.049000   -0.034000
  C      2.803000   -4.099000   -0.008000
  C      3.657000   -4.384000    1.069000
  C      4.427000   -5.530000    1.059000
  C      5.245000   -7.588000    0.014000
  C     -0.134000   -4.315000   -0.022000
  C      0.568000   -3.064000   -0.027000
  C      2.775000   -5.012000   -1.074000
  N      4.376000   -6.391000    0.017000
  C      1.959000   -2.869000   -0.009000
  C      2.621000   -1.622000    0.009000
  C      5.543000    4.339000   -1.130000
  C      4.070000   -1.479000   -0.094000
  C      4.104000    2.751000   -0.021000
  C      5.027000    2.729000    1.036000
  C      6.166000    3.509000    0.978000
  C      7.619000    5.153000   -0.115000
  C      4.321000   -0.148000   -0.092000
  C      3.025000    0.514000    0.015000
  C      4.387000    3.582000   -1.115000
  C      2.866000    1.916000    0.013000
  N      6.413000    4.296000   -0.095000
  H     -2.634000    7.501000    0.145000
  H      2.274000    4.766000    0.081000
  H     -4.705000    3.050000    0.021000
  H     -6.049000    5.144000    0.074000
  H     -5.468000    7.851000   -0.930000
  H     -6.141000    7.387000    0.662000
  H     -4.677000    8.407000    0.574000
  H     -0.332000    5.282000    0.069000
  H     -1.152000    5.504000    0.091000
  H      0.182000    1.072000    0.005000
  H     -0.183000   -1.080000   -0.021000
  H     -5.864000   -4.962000    1.895000
  H     -4.794000    2.272000    0.139000
  H     -4.800000   -2.160000   -1.994000
  H     -6.841000   -3.582000   -1.893000
  H     -8.428000   -4.536000    0.546000
  H     -7.956000   -5.337000   -0.981000
  H     -7.456000   -6.037000    0.584000
  H     -5.287000   -0.344000    0.100000
  H     -3.780000   -3.601000    1.947000
  H      3.587000   -6.868000   -1.843000
  H     -2.276000   -4.774000   -0.050000
  H      3.714000   -3.724000    1.926000
  H      5.092000   -5.795000    1.871000
  H      6.205000   -7.329000   -0.439000
  H      5.393000   -7.917000    1.042000
  H      4.759000   -8.373000   -0.564000
  H      0.329000   -5.290000   -0.008000
  H      2.146000   -4.842000   -1.940000
  H      5.808000    4.986000   -1.956000
  H      4.788000   -2.281000   -0.185000
  H      4.860000    2.114000    1.912000
  H      6.901000    3.531000    1.772000
  H      7.383000    6.109000    0.356000
  H      8.414000    4.652000    0.435000
  H      7.921000    5.310000   -1.150000
  H      5.283000    0.336000   -0.179000
  H      3.720000    3.632000   -1.967000

----------------------------
CARTESIAN COORDINATES (A.U.)
----------------------------
  NO LB      ZA    FRAG     MASS         X           Y           Z
   0 C     6.0000    0    12.011   -5.733429   12.271882    0.207870
   1 C     6.0000    0    12.011    2.785456    7.636383    0.107714
   2 C     6.0000    0    12.011   -5.295013    7.734649    0.092597
   3 C     6.0000    0    12.011   -7.942519    7.575912    0.096376
   4 C     6.0000    0    12.011   -9.384380    9.749097    0.151178
   5 C     6.0000    0    12.011   -9.877599   14.346801    0.196532
   6 C     6.0000    0    12.011    0.249444    8.139050    0.115273
   7 C     6.0000    0    12.011   -1.075254    5.775003    0.088817
   8 C     6.0000    0    12.011    3.116158    4.947303    0.043464
   9 C     6.0000    0    12.011   -4.208420   10.153499    0.143619
  10 N     7.0000    0    14.007   -8.278890   12.054563    0.211649
  11 N     7.0000    0    14.007    0.733214    3.906064    0.047243
  12 N     7.0000    0    14.007   -3.798350    0.746442   -0.141729
  13 N     7.0000    0    14.007   -0.733214   -3.919292   -0.051023
  14 N     7.0000    0    14.007    3.798350   -0.757780    0.122832
  15 C     6.0000    0    12.011   -3.703863    5.406506    0.045353
  16 C     6.0000    0    12.011   -4.956752    3.051908   -0.034015
  17 C     6.0000    0    12.011  -10.531444   -8.180624    2.014448
  18 C     6.0000    0    12.011   -7.696855    2.779787    0.105825
  19 C     6.0000    0    12.011   -7.759216   -5.208085   -0.049133
  20 C     6.0000    0    12.011   -9.439182   -5.209975   -2.099486
  21 C     6.0000    0    12.011  -11.587801   -6.693410   -2.033345
  22 C     6.0000    0    12.011  -14.458295   -9.662170    0.075589
  23 C     6.0000    0    12.011   -8.171176    0.266451    0.069920
  24 C     6.0000    0    12.011   -5.716422   -0.982658   -0.090707
  25 C     6.0000    0    12.011   -8.356369   -6.738763    2.031456
  26 N     7.0000    0    14.007  -12.107475   -8.150389    0.001890
  27 C     6.0000    0    12.011   -5.417845   -3.632054   -0.075589
  28 C     6.0000    0    12.011   -3.118048   -4.958641   -0.051023
  29 C     6.0000    0    12.011    6.742543  -11.606698   -1.965315
  30 C     6.0000    0    12.011   -2.789236   -7.651501   -0.064251
  31 C     6.0000    0    12.011    5.296902   -7.745987   -0.015118
  32 C     6.0000    0    12.011    6.910728   -8.284559    2.020117
  33 C     6.0000    0    12.011    8.365818  -10.450186    2.001220
  34 C     6.0000    0    12.011    9.911614  -14.339242    0.026456
  35 C     6.0000    0    12.011   -0.253223   -8.154168   -0.041574
  36 C     6.0000    0    12.011    1.073364   -5.790121   -0.051023
  37 C     6.0000    0    12.011    5.243990   -9.471307   -2.029566
  38 N     7.0000    0    14.007    8.269442  -12.077240    0.032125
  39 C     6.0000    0    12.011    3.701973   -5.421624   -0.017008
  40 C     6.0000    0    12.011    4.952972   -3.065136    0.017008
  41 C     6.0000    0    12.011   10.474752    8.199522   -2.135391
  42 C     6.0000    0    12.011    7.691185   -2.794905   -0.177634
  43 C     6.0000    0    12.011    7.755436    5.198637   -0.039684
  44 C     6.0000    0    12.011    9.499653    5.157063    1.957756
  45 C     6.0000    0    12.011   11.652051    6.631049    1.848152
  46 C     6.0000    0    12.011   14.397823    9.737759   -0.217319
  47 C     6.0000    0    12.011    8.165507   -0.279679   -0.173855
  48 C     6.0000    0    12.011    5.716422    0.971319    0.028346
  49 C     6.0000    0    12.011    8.290229    6.768999   -2.107045
  50 C     6.0000    0    12.011    5.415955    3.620715    0.024566
  51 N     7.0000    0    14.007   12.118814    8.118263   -0.179524
  52 H     1.0000    0     1.008   -4.977539   14.174836    0.274010
  53 H     1.0000    0     1.008    4.297237    9.006435    0.153068
  54 H     1.0000    0     1.008   -8.891161    5.763665    0.039684
  55 H     1.0000    0     1.008  -11.430953    9.720751    0.139840
  56 H     1.0000    0     1.008  -10.333023   14.836240   -1.757445
  57 H     1.0000    0     1.008  -11.604808   13.959407    1.250999
  58 H     1.0000    0     1.008   -8.838249   15.886928    1.084703
  59 H     1.0000    0     1.008   -0.627389    9.981533    0.130391
  60 H     1.0000    0     1.008   -2.176965   10.401053    0.171965
  61 H     1.0000    0     1.008    0.343930    2.025786    0.009449
  62 H     1.0000    0     1.008   -0.345820   -2.040904   -0.039684
  63 H     1.0000    0     1.008  -11.081354   -9.376821    3.581031
  64 H     1.0000    0     1.008   -9.059347    4.293458    0.262672
  65 H     1.0000    0     1.008   -9.070685   -4.081808   -3.768114
  66 H     1.0000    0     1.008  -12.927616   -6.768999   -3.577252
  67 H     1.0000    0     1.008  -15.926612   -8.571798    1.031790
  68 H     1.0000    0     1.008  -15.034661  -10.085468   -1.853821
  69 H     1.0000    0     1.008  -14.089798  -11.408277    1.103600
  70 H     1.0000    0     1.008   -9.990982   -0.650066    0.188973
  71 H     1.0000    0     1.008   -7.143165   -6.804904    3.679297
  72 H     1.0000    0     1.008    6.778448  -12.978639   -3.482765
  73 H     1.0000    0     1.008   -4.301017   -9.021553   -0.094486
  74 H     1.0000    0     1.008    7.018443   -7.037340    3.639613
  75 H     1.0000    0     1.008    9.622485  -10.950963    3.535678
  76 H     1.0000    0     1.008   11.725751  -13.849803   -0.829590
  77 H     1.0000    0     1.008   10.191293  -14.960962    1.969095
  78 H     1.0000    0     1.008    8.993207  -15.822677   -1.065806
  79 H     1.0000    0     1.008    0.621720   -9.996651   -0.015118
  80 H     1.0000    0     1.008    4.055352   -9.150054   -3.666069
  81 H     1.0000    0     1.008   10.975529    9.422175   -3.696304
  82 H     1.0000    0     1.008    9.048009   -4.310465   -0.349599
  83 H     1.0000    0     1.008    9.184069    3.994881    3.613156
  84 H     1.0000    0     1.008   13.041000    6.672623    3.348595
  85 H     1.0000    0     1.008   13.951848   11.544337    0.672743
  86 H     1.0000    0     1.008   15.900156    8.791006    0.822031
  87 H     1.0000    0     1.008   14.968521   10.034446   -2.173185
  88 H     1.0000    0     1.008    9.983423    0.634948   -0.338261
  89 H     1.0000    0     1.008    7.029781    6.863485   -3.717091

--------------------------------
INTERNAL COORDINATES (ANGSTROEM)
--------------------------------
 C      0   0   0     0.000000000000     0.00000000     0.00000000
 C      1   0   0     5.132453799110     0.00000000     0.00000000
 C      1   2   0     2.412953791518    55.92469645     0.00000000
 C      3   1   2     1.403517367189    87.91063872   179.70559038
 C      4   3   1     1.380402115327   120.12683365     0.10216013
 C      5   4   3     2.447077031889   152.55553712     1.70307389
 C      2   1   3     1.368114030335    17.34593570     0.00000000
 C      7   2   1     1.434084376876   108.05010202   180.80544598
 C      2   1   3     1.434123425651   125.56710137   359.89831607
 C      1   2   3     1.381682307913    25.70643001   359.32673171
 N      1   2   3     1.351901623640   146.56453214     0.60636223
 N      9   2   1     1.376127174356   106.58526707   359.26438688
 N     12   9   2     2.925062050624   168.53581413   171.12065651
 N     13  12   9     2.954513327098    91.55032014    11.12112580
 N     14  13  12     2.925371258490    88.43092389   359.84326247
 C      8   7   2     1.404790019896   127.24786865   181.11170171
 C     13  12   9     1.366535034311    81.72106996   188.00453233
 C     14  13  12     5.758810554272    80.56209567   166.76250791
 C     17  13  12     1.459010623676   111.08861209   183.82872609
 C     18  14  13     2.412235892279    27.27532823    36.33507194
 C     20  18  14     1.402692767501    87.95206320   148.94598259
 C     21  20  18     1.382106725257   120.14573887   359.70382047
 C     18  14  13     2.446510985056   144.15733107    82.80075377
 C     19  17  13     1.353610726908   106.29293361   359.75308708
 C     13  12   9     1.366813447402   172.21332906    33.46711076
 C     18  14  13     1.380960173213    15.08449437   309.23336894
 N     22  21  20     1.352773077792   120.73759875     0.27865223
 C     25  13  17     1.410897586645   125.60330303   182.37774668
 C     14  13  12     1.376642291955    80.24689249   177.85461986
 C     14  13  12     5.764089607215   164.51507311   312.20821879
 C     29  14  13     1.435600919476   106.58649366   178.76395472
 C     30  14  13     2.413316804732    27.10625047    82.12560436
 C     32  30  14     1.403734305344    87.90059683   149.76154742
 C     33  32  30     1.380694028378   120.14881443   359.74174632
 C     34  33  32     2.448777858443   152.49203239     2.45173620
 C     31  29  14     1.368160809262   108.16950133     0.70383075
 C     14  13  12     1.376239804685   169.26375223   353.09862627
 C     30  14  13     1.380907310430    14.68948582   353.70041132
 N     34  33  32     1.352658863128   120.85575621     0.19603406
 C     37  14  29     1.404717053360   126.01551127   180.90772073
 C     15  14  13     1.366491126938    81.61824056   183.09049352
 C      2   1   3     4.249062720177   144.14252085   151.09375627
 C     41  15  14     1.459677704153   111.05201287   175.08990246
 C     42   2   1     2.412953791518    41.78584867   179.46600168
 C     44  42   2     1.403446472082    87.95153797   233.97558675
 C     45  44  42     1.381696421071   120.11137308     0.19721020
 C     42   2   1     2.450019795838   135.97209175    89.78085079
 C     43  41  15     1.354461516618   106.26758155     0.30894352
 C     15  14  13     1.367461151185   171.87382904   332.35056460
 C     42   2   1     1.381886391857    32.59078432   228.32128088
 C      9   2   1     1.404988612053   126.98745415   180.26872441
 N     42   2   1     1.352765315936   113.57249190   117.51743998
 H      1   2   3     1.084100548842    96.90386999   179.55663818
 H      2   1   3     1.079907866440   109.24307054   180.20683175
 H      4   3   1     1.082859640027   121.04561032   179.54435408
 H      5   4   3     1.083120491912   122.75325541   179.45219141
 H      6   5   4     1.092848571395   104.47000761   100.02712057
 H      6   5   4     1.090314174906    84.69209301   209.46214071
 H      6   5   4     1.089782088309   133.94397834   322.34440014
 H      7   2   1     1.079807853278   126.66122480     1.04385976
 H     60   7   2     0.849804683442   130.59496796   181.69703805
 H     12   9   2     1.016297692608   125.29023241   180.00180175
 H     14  13  12     1.014936943854    44.97226959   359.42596618
 H     18  14  13     1.082871645210   128.03556573   234.20482432
 H     55   4   3     0.791914768141   156.63965878    27.16171097
 H     21  20  18     1.083569563987   121.05669627   180.67006309
 H     22  21  20     1.082483256222   122.73097286   180.59748951
 H     23  18  14     1.092105306278   103.92715769   234.93429879
 H     23  18  14     1.088871893291   134.19244188    12.25587044
 H     23  18  14     1.089833473518    84.85857450   125.45241208
 H     24  19  17     1.080075460327   127.28078426   178.44613241
 H     26  18  14     1.083408048706   118.76995697   244.94906660
 H     30  14  13     1.082703098730   127.99711412   279.66882698
 H     31  29  14     1.079759695488   125.22293469   180.92530585
 H     33  32  30     1.083188810873   121.01964473   180.74284758
 H     34  33  32     1.082494341787   122.70821597   180.59516895
 H     35  34  33     1.092652735319   105.73575241    97.19771933
 H     35  34  33     1.089462711615    84.05943581   206.43036958
 H     35  34  33     1.089268102902   133.08365142   318.50306270
 H     36  31  29     1.079439669458   126.61599965   178.98859863
 H     38  30  73     1.083742127999   118.77264435   359.90091293
 H     42   2   1     1.082178358682   119.31790784   334.14897043
 H     43  41  15     1.080281907652   126.36969097   182.06329380
 H     45  44  42     1.083277434455   121.10105945   179.58025624
 H     46  45  44     1.082194529648   122.72144639   179.46906377
 H     47  42   2     1.091546151109   106.65128841   315.16475048
 H     47  42   2     1.088818625851   132.46019523    94.52397119
 H     47  42   2     1.089531091801    83.63838232   206.04504406
 H     48  43  41     1.080402239909   127.23657387   181.62955349
 H     50  42   2     1.083186502870   118.77001737    94.71359229

---------------------------
INTERNAL COORDINATES (A.U.)
---------------------------
 C      0   0   0     0.000000000000     0.00000000     0.00000000
 C      1   0   0     9.698932075322     0.00000000     0.00000000
 C      1   2   0     4.559821839776    55.92469645     0.00000000
 C      3   1   2     2.652263448189    87.91063872   179.70559038
 C      4   3   1     2.608581952654   120.12683365     0.10216013
 C      5   4   3     4.624305418880   152.55553712     1.70307389
 C      2   1   3     2.585360837309    17.34593570     0.00000000
 C      7   2   1     2.710026725231   108.05010202   180.80544598
 C      2   1   3     2.710100516721   125.56710137   359.89831607
 C      1   2   3     2.611001166040    25.70643001   359.32673171
 N      1   2   3     2.554723828683   146.56453214     0.60636223
 N      9   2   1     2.600503484979   106.58526707   359.26438688
 N     12   9   2     5.527566200405   168.53581413   171.12065651
 N     13  12   9     5.583221047236    91.55032014    11.12112580
 N     14  13  12     5.528150518591    88.43092389   359.84326247
 C      8   7   2     2.654668413270   127.24786865   181.11170171
 C     13  12   9     2.582376967257    81.72106996   188.00453233
 C     14  13  12    10.882574804710    80.56209567   166.76250791
 C     17  13  12     2.757130505230   111.08861209   183.82872609
 C     18  14  13     4.558465206823    27.27532823    36.33507194
 C     20  18  14     2.650705180609    87.95206320   148.94598259
 C     21  20  18     2.611803198586   120.14573887   359.70382047
 C     18  14  13     4.623235745386   144.15733107    82.80075377
 C     19  17  13     2.557953565794   106.29293361   359.75308708
 C     13  12   9     2.582903091751   172.21332906    33.46711076
 C     18  14  13     2.609636529225    15.08449437   309.23336894
 N     22  21  20     2.556370638369   120.73759875     0.27865223
 C     25  13  17     2.666210041769   125.60330303   182.37774668
 C     14  13  12     2.601476916169    80.24689249   177.85461986
 C     14  13  12    10.892550769017   164.51507311   312.20821879
 C     29  14  13     2.712892575415   106.58649366   178.76395472
 C     30  14  13     4.560507835333    27.10625047    82.12560436
 C     32  30  14     2.652673401891    87.90059683   149.76154742
 C     33  32  30     2.609133588376   120.14881443   359.74174632
 C     34  33  32     4.627519515267   152.49203239     2.45173620
 C     31  29  14     2.585449236669   108.16950133     0.70383075
 C     14  13  12     2.600716325456   169.26375223   353.09862627
 C     30  14  13     2.609536633043    14.68948582   353.70041132
 N     34  33  32     2.556154803934   120.85575621     0.19603406
 C     37  14  29     2.654530526499   126.01551127   180.90772073
 C     15  14  13     2.582293994346    81.61824056   183.09049352
 C      2   1   3     8.029564866989   144.14252085   151.09375627
 C     41  15  14     2.758391104639   111.05201287   175.08990246
 C     42   2   1     4.559821839776    41.78584867   179.46600168
 C     44  42   2     2.652129475853    87.95153797   233.97558675
 C     45  44  42     2.611027836043   120.11137308     0.19721020
 C     42   2   1     4.629866436820   135.97209175    89.78085079
 C     43  41  15     2.559561325344   106.26758155     0.30894352
 C     15  14  13     2.584127074516   171.87382904   332.35056460
 C     42   2   1     2.611386828803    32.59078432   228.32128088
 C      9   2   1     2.655043698059   126.98745415   180.26872441
 N     42   2   1     2.556355970587   113.57249190   117.51743998
 H      1   2   3     2.048653138946    96.90386999   179.55663818
 H      2   1   3     2.040730117440   109.24307054   180.20683175
 H      4   3   1     2.046308161128   121.04561032   179.54435408
 H      5   4   3     2.046801099752   122.75325541   179.45219141
 H      6   5   4     2.065184505784   104.47000761   100.02712057
 H      6   5   4     2.060395190504    84.69209301   209.46214071
 H      6   5   4     2.059389692558   133.94397834   322.34440014
 H      7   2   1     2.040541119952   126.66122480     1.04385976
 H     60   7   2     1.605898119029   130.59496796   181.69703805
 H     12   9   2     1.920524309565   125.29023241   180.00180175
 H     14  13  12     1.917952867083    44.97226959   359.42596618
 H     18  14  13     2.046330847636   128.03556573   234.20482432
 H     55   4   3     1.496502033194   156.63965878    27.16171097
 H     21  20  18     2.047649722989   121.05669627   180.67006309
 H     22  21  20     2.045596898814   122.73097286   180.59748951
 H     23  18  14     2.063779938267   103.92715769   234.93429879
 H     23  18  14     2.057669673245   134.19244188    12.25587044
 H     23  18  14     2.059486796529    84.85857450   125.45241208
 H     24  19  17     2.041046823986   127.28078426   178.44613241
 H     26  18  14     2.047344503340   118.76995697   244.94906660
 H     30  14  13     2.046012340948   127.99711412   279.66882698
 H     31  29  14     2.040450114918   125.22293469   180.92530585
 H     33  32  30     2.046930203877   121.01964473   180.74284758
 H     34  33  32     2.045617847496   122.70821597   180.59516895
 H     35  34  33     2.064814429233   105.73575241    97.19771933
 H     35  34  33     2.058786158072    84.05943581   206.43036958
 H     35  34  33     2.058418400901   133.08365142   318.50306270
 H     36  31  29     2.039845353366   126.61599965   178.98859863
 H     38  30  73     2.047975821711   118.77264435   359.90091293
 H     42   2   1     2.045020725966   119.31790784   334.14897043
 H     43  41  15     2.041436952892   126.36969097   182.06329380
 H     45  44  42     2.047097678177   121.10105945   179.58025624
 H     46  45  44     2.045051284662   122.72144639   179.46906377
 H     47  42   2     2.062723288131   106.65128841   315.16475048
 H     47  42   2     2.057569012371   132.46019523    94.52397119
 H     47  42   2     2.058915377895    83.63838232   206.04504406
 H     48  43  41     2.041664347903   127.23657387   181.62955349
 H     50  42   2     2.046925842384   118.77001737    94.71359229

---------------------
BASIS SET INFORMATION
---------------------
There are 3 groups of distinct atoms

 Group   1 Type C   : 17s4p1d contracted to 3s2p1d pattern {881/31/1}
 Group   2 Type N   : 17s4p1d contracted to 3s2p1d pattern {881/31/1}
 Group   3 Type H   : 4s1p contracted to 2s1p pattern {31/1}

Atom   0C    basis set group =>   1
Atom   1N    basis set group =>   2
Atom   2C    basis set group =>   1
Atom   3N    basis set group =>   2
Atom   4C    basis set group =>   1
Atom   5N    basis set group =>   2
Atom   6C    basis set group =>   1
Atom   7N    basis set group =>   2
Atom   8C    basis set group =>   1
Atom   9N    basis set group =>   2
Atom  10C    basis set group =>   1
Atom  11N    basis set group =>   2
Atom  12C    basis set group =>   1
Atom  13N    basis set group =>   2
Atom  14C    basis set group =>   1
Atom  15N    basis set group =>   2
Atom  16C    basis set group =>   1
Atom  17C    basis set group =>   1
Atom  18C    basis set group =>   1
Atom  19C    basis set group =>   1
Atom  20C    basis set group =>   1
Atom  21C    basis set group =>   1
Atom  22C    basis set group =>   1
Atom  23C    basis set group =>   1
Atom  24C    basis set group =>   1
Atom  25C    basis set group =>   1
Atom  26C    basis set group =>   1
Atom  27C    basis set group =>   1
Atom  28C    basis set group =>   1
Atom  29C    basis set group =>   1
Atom  30C    basis set group =>   1
Atom  31C    basis set group =>   1
Atom  32C    basis set group =>   1
Atom  33C    basis set group =>   1
Atom  34C    basis set group =>   1
Atom  35C    basis set group =>   1
Atom  36C    basis set group =>   1
Atom  37C    basis set group =>   1
Atom  38C    basis set group =>   1
Atom  39C    basis set group =>   1
Atom  40C    basis set group =>   1
Atom  41C    basis set group =>   1
Atom  42C    basis set group =>   1
Atom  43C    basis set group =>   1
Atom  44C    basis set group =>   1
Atom  45C    basis set group =>   1
Atom  46C    basis set group =>   1
Atom  47C    basis set group =>   1
Atom  48C    basis set group =>   1
Atom  49C    basis set group =>   1
Atom  50C    basis set group =>   1
Atom  51C    basis set group =>   1
Atom  52H    basis set group =>   3
Atom  53H    basis set group =>   3
Atom  54H    basis set group =>   3
Atom  55H    basis set group =>   3
Atom  56H    basis set group =>   3
Atom  57H    basis set group =>   3
Atom  58H    basis set group =>   3
Atom  59H    basis set group =>   3
Atom  60H    basis set group =>   3
Atom  61H    basis set group =>   3
Atom  62H    basis set group =>   3
Atom  63H    basis set group =>   3
Atom  64H    basis set group =>   3
Atom  65H    basis set group =>   3
Atom  66H    basis set group =>   3
Atom  67H    basis set group =>   3
Atom  68H    basis set group =>   3
Atom  69H    basis set group =>   3
Atom  70H    basis set group =>   3
Atom  71H    basis set group =>   3
Atom  72H    basis set group =>   3
Atom  73H    basis set group =>   3
Atom  74H    basis set group =>   3
Atom  75H    basis set group =>   3
Atom  76H    basis set group =>   3
Atom  77H    basis set group =>   3
Atom  78H    basis set group =>   3
Atom  79H    basis set group =>   3
Atom  80H    basis set group =>   3
Atom  81H    basis set group =>   3
Atom  82H    basis set group =>   3
Atom  83H    basis set group =>   3
Atom  84H    basis set group =>   3
Atom  85H    basis set group =>   3
Atom  86H    basis set group =>   3
Atom  87H    basis set group =>   3
Atom  88H    basis set group =>   3
Atom  89H    basis set group =>   3


           ************************************************************
           *        Program running with 16 parallel MPI-processes    *
           *              working on a common directory               *
           ************************************************************
------------------------------------------------------------------------------
                           ORCA GTO INTEGRAL CALCULATION
------------------------------------------------------------------------------
------------------------------------------------------------------------------
                   ___                                                        
                  /   \      - P O W E R E D   B Y -                         
                 /     \                                                     
                 |  |  |   _    _      __       _____    __    __             
                 |  |  |  | |  | |    /  \     |  _  \  |  |  /  |          
                  \  \/   | |  | |   /    \    | | | |  |  | /  /          
                 / \  \   | |__| |  /  /\  \   | |_| |  |  |/  /          
                |  |  |   |  __  | /  /__\  \  |    /   |      \           
                |  |  |   | |  | | |   __   |  |    \   |  |\   \          
                \     /   | |  | | |  |  |  |  | |\  \  |  | \   \       
                 \___/    |_|  |_| |__|  |__|  |_| \__\ |__|  \__/        
                                                                              
                      - O R C A' S   B I G   F R I E N D -                    
                                      &                                       
                       - I N T E G R A L  F E E D E R -                       
                                                                              
 v1 FN, 2020, v2 2021                                                         
------------------------------------------------------------------------------


Reading SHARK input file /scratch/allen/tmpyp4_amber_gaff2/conf1/conf1/Conf1.orca.SHARKINP.tmp ... ok
----------------------
SHARK INTEGRAL PACKAGE
----------------------

Number of atoms                             ...     90
Number of basis functions                   ...   1230
Number of shells                            ...    738
Maximum angular momentum                    ...      2
Integral batch strategy                     ... SHARK/LIBINT Hybrid
RI-J (if used) integral strategy            ... SPLIT-RIJ (Revised 2003 algorithm where possible)
Printlevel                                  ...      1
Contraction scheme used                     ... PARTIAL GENERAL contraction
Coulomb Range Separation                    ... NOT USED
Exchange Range Separation                   ... NOT USED
Finite Nucleus Model                        ... NOT USED
Auxiliary Coulomb fitting basis             ... NOT available
Auxiliary J/K fitting basis                 ... NOT available
Auxiliary Correlation fitting basis         ... NOT available
Auxiliary 'external' fitting basis          ... NOT available
Integral threshold                          ...     2.500000e-11
Primitive cut-off                           ...     2.500000e-12
Primitive pair pre-selection threshold      ...     2.500000e-12

Calculating pre-screening integrals         ... done (  0.1 sec) Dimension = 738
Calculating pre-screening integrals (ORCA)  ... done (  0.3 sec) Dimension = 426
Organizing shell pair data                  ... done (  0.5 sec)
Shell pair information
Total number of shell pairs                 ...    272691
Shell pairs after pre-screening             ...     71741
Total number of primitive shell pairs       ...    422091
Primitive shell pairs kept                  ...     92642
          la=0 lb=0:  29447 shell pairs
          la=1 lb=0:  26042 shell pairs
          la=1 lb=1:   4699 shell pairs
          la=2 lb=0:   7894 shell pairs
          la=2 lb=1:   3130 shell pairs
          la=2 lb=2:    529 shell pairs

Calculating one electron integrals          ... done (  0.2 sec)
Calculating Nuclear repulsion               ... done (  0.0 sec) ENN=   6235.920147061582 Eh

SHARK setup successfully completed in   1.8 seconds

Maximum memory used throughout the entire GTOINT-calculation: 99.1 MB


           ************************************************************
           *        Program running with 16 parallel MPI-processes    *
           *              working on a common directory               *
           ************************************************************
-------------------------------------------------------------------------------
                                 ORCA SCF
-------------------------------------------------------------------------------

------------
SCF SETTINGS
------------
Hamiltonian:
 Ab initio Hamiltonian  Method          .... Hartree-Fock(GTOs)


General Settings:
 Integral files         IntName         .... /scratch/allen/tmpyp4_amber_gaff2/conf1/conf1/Conf1.orca
 Hartree-Fock type      HFTyp           .... RHF
 Total Charge           Charge          ....    0
 Multiplicity           Mult            ....    1
 Number of Electrons    NEL             ....  358
 Basis Dimension        Dim             ....  918
 Nuclear Repulsion      ENuc            ....   6235.9201470616 Eh

Convergence Acceleration:
 DIIS                   CNVDIIS         .... on
   Start iteration      DIISMaxIt       ....    12
   Startup error        DIISStart       ....  0.200000
   # of expansion vecs  DIISMaxEq       ....     5
   Bias factor          DIISBfac        ....   1.050
   Max. coefficient     DIISMaxC        ....  10.000
 Trust-Rad. Augm. Hess. CNVTRAH         .... auto
   Auto Start mean grad. ratio tolernc. ....  1.125000
   Auto Start start iteration           ....    20
   Auto Start num. interpolation iter.  ....    10
   Max. Number of Micro iterations      ....    16
   Max. Number of Macro iterations      .... Maxiter - #DIIS iter
   Number of Davidson start vectors     ....     2
   Converg. threshold I  (grad. norm)   ....   1.000e-05
   Converg. threshold II (energy diff.) ....   1.000e-08
   Grad. Scal. Fac. for Micro threshold ....   0.100
   Minimum threshold for Micro iter.    ....   0.010
   NR start threshold (gradient norm)   ....   0.001
   Initial trust radius                 ....   0.400
   Minimum AH scaling param. (alpha)    ....   1.000
   Maximum AH scaling param. (alpha)    .... 1000.000
   Orbital update algorithm             .... Taylor
   White noise on init. David. guess    .... on
   Maximum white noise                  ....   0.010
   Quad. conv. algorithm                .... NR
 SOSCF                  CNVSOSCF        .... on
   Start iteration      SOSCFMaxIt      ....   150
   Startup grad/error   SOSCFStart      ....  0.003300
 Level Shifting         CNVShift        .... on
   Level shift para.    LevelShift      ....    0.2500
   Turn off err/grad.   ShiftErr        ....    0.0010
 Zerner damping         CNVZerner       .... off
 Static damping         CNVDamp         .... on
   Fraction old density DampFac         ....    0.7000
   Max. Damping (<1)    DampMax         ....    0.9800
   Min. Damping (>=0)   DampMin         ....    0.0000
   Turn off err/grad.   DampErr         ....    0.1000
 Fernandez-Rico         CNVRico         .... off

SCF Procedure:
 Maximum # iterations   MaxIter         ....   125
 SCF integral mode      SCFMode         .... Direct
   Integral package                     .... SHARK and LIBINT hybrid scheme
 Reset frequency        DirectResetFreq ....    20
 Integral Threshold     Thresh          ....  2.500e-11 Eh
 Primitive CutOff       TCut            ....  2.500e-12 Eh

Convergence Tolerance:
 Convergence Check Mode ConvCheckMode   .... Total+1el-Energy
 Convergence forced     ConvForced      .... 1
 Energy Change          TolE            ....  1.000e-08 Eh
 1-El. energy change                    ....  1.000e-05 Eh
 Orbital Gradient       TolG            ....  1.000e-05
 Orbital Rotation angle TolX            ....  1.000e-05
 DIIS Error             TolErr          ....  5.000e-07


Diagonalization of the overlap matrix:
Smallest eigenvalue                        ... 1.597e-04
Time for diagonalization                   ...    0.454 sec
Threshold for overlap eigenvalues          ... 1.000e-08
Number of eigenvalues below threshold      ... 0
Time for construction of square roots      ...    0.190 sec
Total time needed                          ...    0.650 sec

Time for model grid setup =    1.017 sec

------------------------------
INITIAL GUESS: MODEL POTENTIAL
------------------------------
Loading Hartree-Fock densities                     ... done
Calculating cut-offs                               ... done
Initializing the effective Hamiltonian             ... done
Setting up the integral package (SHARK)            ... done
Starting the Coulomb interaction                   ... done (   1.1 sec)
Reading the grid                                   ... done
Mapping shells                                     ... done
Starting the XC term evaluation                    ... done (   0.2 sec)
Transforming the Hamiltonian                       ... done (   0.2 sec)
Diagonalizing the Hamiltonian                      ... done (   0.3 sec)
Back transforming the eigenvectors                 ... done (   0.1 sec)
Now organizing SCF variables                       ... done
                      ------------------
                      INITIAL GUESS DONE (   2.9 sec)
                      ------------------
--------------
SCF ITERATIONS
--------------
ITER       Energy         Delta-E        Max-DP      RMS-DP      [F,P]     Damp
               ***  Starting incremental Fock matrix formation  ***
  0  -2121.5498051793   0.000000000000 0.07973336  0.00131098  0.2310194 0.7000
  1  -2122.1872831906  -0.637478011242 0.06421409  0.00105588  0.1434272 0.7000
                               ***Turning on DIIS***
  2  -2122.5859029750  -0.398619784411 0.14225926  0.00240721  0.0803390 0.0000
  3  -2118.0575225788   4.528380396205 0.09438217  0.00068282  0.0433753 0.0000
  4  -2123.2947653857  -5.237242806956 0.02864699  0.00022971  0.0094349 0.0000
  5  -2123.4128747125  -0.118109326744 0.01336643  0.00013309  0.0047967 0.0000
  6  -2123.3967182782   0.016156434280 0.00777098  0.00008377  0.0022823 0.0000
  7  -2123.4881656205  -0.091447342291 0.00455194  0.00006534  0.0016434 0.0000
  8  -2123.4933756767  -0.005210056253 0.00338526  0.00006251  0.0015403 0.0000
  9  -2123.4678019116   0.025573765139 0.00269845  0.00004497  0.0012404 0.0000
 10  -2123.4749332673  -0.007131355700 0.00544476  0.00009485  0.0009742 0.0000
                      *** Initiating the SOSCF procedure ***
                           *** Shutting down DIIS ***
                      *** Re-Reading the Fockian *** 
                      *** Removing any level shift *** 
ITER      Energy       Delta-E        Grad      Rot      Max-DP    RMS-DP
 11  -2123.36967455   0.1052587201  0.000187  0.000187  0.000251  0.000005
               *** Restarting incremental Fock matrix formation ***
 12  -2123.43534654  -0.0656719931  0.000953  0.006375  0.001520  0.000035
 13  -2123.43545912  -0.0001125760  0.001159  0.031577  0.006918  0.000135
 14  -2123.43564432  -0.0001852061  0.000401  0.002028  0.000634  0.000012
 15  -2123.43565960  -0.0000152737  0.000190  0.002270  0.000484  0.000013
 16  -2123.43566611  -0.0000065153  0.000128  0.001983  0.000505  0.000009
 17  -2123.43566879  -0.0000026790  0.000129  0.002079  0.000294  0.000007
 18  -2123.43567004  -0.0000012468  0.000059  0.001211  0.000211  0.000004
 19  -2123.43567082  -0.0000007874  0.000046  0.001882  0.000270  0.000006
 20  -2123.43567137  -0.0000005461  0.000028  0.001047  0.000147  0.000003
 21  -2123.43567161  -0.0000002420  0.000028  0.001256  0.000178  0.000004
 22  -2123.43567185  -0.0000002358  0.000025  0.001065  0.000163  0.000003
 23  -2123.43567199  -0.0000001394  0.000016  0.000371  0.000064  0.000001
 24  -2123.43567204  -0.0000000523  0.000008  0.000242  0.000053  0.000001
 25  -2123.43567207  -0.0000000313  0.000008  0.000122  0.000040  0.000000
 26  -2123.43567209  -0.0000000173  0.000006  0.000072  0.000027  0.000000
 27  -2123.43567209  -0.0000000026  0.000003  0.000059  0.000019  0.000000
                  ***Gradient check signals convergence***
              ***Rediagonalizing the Fockian in SOSCF/NRSCF***

               *****************************************************
               *                     SUCCESS                       *
               *           SCF CONVERGED AFTER  28 CYCLES          *
               *****************************************************


----------------
TOTAL SCF ENERGY
----------------

Total Energy       :        -2123.43567209 Eh          -57781.62220 eV

Components:
Nuclear Repulsion  :         6235.92014706 Eh          169688.01397 eV
Electronic Energy  :        -8359.35581915 Eh         -227469.63617 eV
One Electron Energy:       -15312.23463462 Eh         -416667.08735 eV
Two Electron Energy:         6952.87881547 Eh          189197.45118 eV

Virial components:
Potential Energy   :        -4246.10120499 Eh         -115542.28784 eV
Kinetic Energy     :         2122.66553290 Eh           57760.66565 eV
Virial Ratio       :            2.00036282


---------------
SCF CONVERGENCE
---------------

  Last Energy change         ...   -1.2005e-09  Tolerance :   1.0000e-08
  Last MAX-Density change    ...    9.6570e-06  Tolerance :   1.0000e-07
  Last RMS-Density change    ...    1.6060e-07  Tolerance :   5.0000e-09
  Last Orbital Gradient      ...    1.7602e-06  Tolerance :   1.0000e-05
  Last Orbital Rotation      ...    3.2012e-05  Tolerance :   1.0000e-05

             **** THE GBW FILE WAS UPDATED (/scratch/allen/tmpyp4_amber_gaff2/conf1/conf1/Conf1.orca.gbw) ****
             **** DENSITY /scratch/allen/tmpyp4_amber_gaff2/conf1/conf1/Conf1.orca.scfp WAS UPDATED ****
             **** ENERGY FILE WAS UPDATED (/scratch/allen/tmpyp4_amber_gaff2/conf1/conf1/Conf1.orca.en.tmp) ****
             **** THE GBW FILE WAS UPDATED (/scratch/allen/tmpyp4_amber_gaff2/conf1/conf1/Conf1.orca.gbw) ****
             **** DENSITY /scratch/allen/tmpyp4_amber_gaff2/conf1/conf1/Conf1.orca.scfp WAS UPDATED ****
----------------
ORBITAL ENERGIES
----------------

  NO   OCC          E(Eh)            E(eV) 
   0   2.0000     -15.679943      -426.6729 
   1   2.0000     -15.633026      -425.3963 
   2   2.0000     -15.632536      -425.3829 
   3   2.0000     -15.587991      -424.1708 
   4   2.0000     -15.524803      -422.4514 
   5   2.0000     -15.515334      -422.1937 
   6   2.0000     -15.453926      -420.5227 
   7   2.0000     -15.439327      -420.1254 
   8   2.0000     -11.329423      -308.2893 
   9   2.0000     -11.328598      -308.2668 
  10   2.0000     -11.328011      -308.2509 
  11   2.0000     -11.298822      -307.4566 
  12   2.0000     -11.298752      -307.4547 
  13   2.0000     -11.292231      -307.2772 
  14   2.0000     -11.291873      -307.2675 
  15   2.0000     -11.287032      -307.1358 
  16   2.0000     -11.285738      -307.1005 
  17   2.0000     -11.282162      -307.0032 
  18   2.0000     -11.269445      -306.6572 
  19   2.0000     -11.263404      -306.4928 
  20   2.0000     -11.262400      -306.4655 
  21   2.0000     -11.251106      -306.1581 
  22   2.0000     -11.247353      -306.0560 
  23   2.0000     -11.237270      -305.7817 
  24   2.0000     -11.236844      -305.7701 
  25   2.0000     -11.230430      -305.5955 
  26   2.0000     -11.230276      -305.5913 
  27   2.0000     -11.230087      -305.5862 
  28   2.0000     -11.229760      -305.5773 
  29   2.0000     -11.210736      -305.0596 
  30   2.0000     -11.209264      -305.0196 
  31   2.0000     -11.193868      -304.6006 
  32   2.0000     -11.192285      -304.5576 
  33   2.0000     -11.191254      -304.5295 
  34   2.0000     -11.188699      -304.4600 
  35   2.0000     -11.187950      -304.4396 
  36   2.0000     -11.187139      -304.4175 
  37   2.0000     -11.174394      -304.0707 
  38   2.0000     -11.171764      -303.9991 
  39   2.0000     -11.171329      -303.9873 
  40   2.0000     -11.170619      -303.9680 
  41   2.0000     -11.168002      -303.8968 
  42   2.0000     -11.165114      -303.8182 
  43   2.0000     -11.162053      -303.7349 
  44   2.0000     -11.161128      -303.7097 
  45   2.0000     -11.157008      -303.5976 
  46   2.0000     -11.156186      -303.5753 
  47   2.0000     -11.150433      -303.4187 
  48   2.0000     -11.147376      -303.3355 
  49   2.0000     -11.135806      -303.0207 
  50   2.0000     -11.129484      -302.8487 
  51   2.0000     -11.117841      -302.5318 
  52   2.0000      -1.360498       -37.0210 
  53   2.0000      -1.320414       -35.9303 
  54   2.0000      -1.320220       -35.9250 
  55   2.0000      -1.280082       -34.8328 
  56   2.0000      -1.225889       -33.3581 
  57   2.0000      -1.210329       -32.9347 
  58   2.0000      -1.173622       -31.9359 
  59   2.0000      -1.150699       -31.3121 
  60   2.0000      -1.143718       -31.1222 
  61   2.0000      -1.110215       -30.2105 
  62   2.0000      -1.108864       -30.1737 
  63   2.0000      -1.082163       -29.4471 
  64   2.0000      -1.077314       -29.3152 
  65   2.0000      -1.044835       -28.4314 
  66   2.0000      -1.044652       -28.4264 
  67   2.0000      -1.041107       -28.3299 
  68   2.0000      -1.015173       -27.6243 
  69   2.0000      -1.014799       -27.6141 
  70   2.0000      -1.009081       -27.4585 
  71   2.0000      -0.993282       -27.0286 
  72   2.0000      -0.985617       -26.8200 
  73   2.0000      -0.981770       -26.7153 
  74   2.0000      -0.974113       -26.5070 
  75   2.0000      -0.962436       -26.1892 
  76   2.0000      -0.955033       -25.9878 
  77   2.0000      -0.946950       -25.7678 
  78   2.0000      -0.939962       -25.5777 
  79   2.0000      -0.916609       -24.9422 
  80   2.0000      -0.910697       -24.7813 
  81   2.0000      -0.898622       -24.4528 
  82   2.0000      -0.877389       -23.8750 
  83   2.0000      -0.871760       -23.7218 
  84   2.0000      -0.871271       -23.7085 
  85   2.0000      -0.861928       -23.4543 
  86   2.0000      -0.846329       -23.0298 
  87   2.0000      -0.838374       -22.8133 
  88   2.0000      -0.829655       -22.5761 
  89   2.0000      -0.796269       -21.6676 
  90   2.0000      -0.789382       -21.4802 
  91   2.0000      -0.776456       -21.1284 
  92   2.0000      -0.753104       -20.4930 
  93   2.0000      -0.734262       -19.9803 
  94   2.0000      -0.729317       -19.8457 
  95   2.0000      -0.727012       -19.7830 
  96   2.0000      -0.720535       -19.6068 
  97   2.0000      -0.718074       -19.5398 
  98   2.0000      -0.714377       -19.4392 
  99   2.0000      -0.700325       -19.0568 
 100   2.0000      -0.698252       -19.0004 
 101   2.0000      -0.694747       -18.9050 
 102   2.0000      -0.685425       -18.6514 
 103   2.0000      -0.684428       -18.6242 
 104   2.0000      -0.678794       -18.4709 
 105   2.0000      -0.674520       -18.3546 
 106   2.0000      -0.672954       -18.3120 
 107   2.0000      -0.660928       -17.9848 
 108   2.0000      -0.658122       -17.9084 
 109   2.0000      -0.652713       -17.7612 
 110   2.0000      -0.652113       -17.7449 
 111   2.0000      -0.646285       -17.5863 
 112   2.0000      -0.645800       -17.5731 
 113   2.0000      -0.638091       -17.3633 
 114   2.0000      -0.635334       -17.2883 
 115   2.0000      -0.628889       -17.1129 
 116   2.0000      -0.623254       -16.9596 
 117   2.0000      -0.620413       -16.8823 
 118   2.0000      -0.612826       -16.6759 
 119   2.0000      -0.612049       -16.6547 
 120   2.0000      -0.611745       -16.6464 
 121   2.0000      -0.611564       -16.6415 
 122   2.0000      -0.601581       -16.3698 
 123   2.0000      -0.589461       -16.0400 
 124   2.0000      -0.581259       -15.8169 
 125   2.0000      -0.580953       -15.8085 
 126   2.0000      -0.580271       -15.7900 
 127   2.0000      -0.571129       -15.5412 
 128   2.0000      -0.566411       -15.4128 
 129   2.0000      -0.560058       -15.2400 
 130   2.0000      -0.555706       -15.1215 
 131   2.0000      -0.547776       -14.9058 
 132   2.0000      -0.542682       -14.7671 
 133   2.0000      -0.540009       -14.6944 
 134   2.0000      -0.538419       -14.6511 
 135   2.0000      -0.536323       -14.5941 
 136   2.0000      -0.531728       -14.4691 
 137   2.0000      -0.517963       -14.0945 
 138   2.0000      -0.516591       -14.0571 
 139   2.0000      -0.514304       -13.9949 
 140   2.0000      -0.512109       -13.9352 
 141   2.0000      -0.509738       -13.8707 
 142   2.0000      -0.507268       -13.8035 
 143   2.0000      -0.505366       -13.7517 
 144   2.0000      -0.502399       -13.6710 
 145   2.0000      -0.495392       -13.4803 
 146   2.0000      -0.488226       -13.2853 
 147   2.0000      -0.480955       -13.0875 
 148   2.0000      -0.476431       -12.9643 
 149   2.0000      -0.467858       -12.7311 
 150   2.0000      -0.466151       -12.6846 
 151   2.0000      -0.456339       -12.4176 
 152   2.0000      -0.451575       -12.2880 
 153   2.0000      -0.445198       -12.1145 
 154   2.0000      -0.437818       -11.9136 
 155   2.0000      -0.427718       -11.6388 
 156   2.0000      -0.409164       -11.1339 
 157   2.0000      -0.390819       -10.6347 
 158   2.0000      -0.387889       -10.5550 
 159   2.0000      -0.384471       -10.4620 
 160   2.0000      -0.378417       -10.2973 
 161   2.0000      -0.372879       -10.1466 
 162   2.0000      -0.356845        -9.7102 
 163   2.0000      -0.356497        -9.7008 
 164   2.0000      -0.355764        -9.6808 
 165   2.0000      -0.341937        -9.3046 
 166   2.0000      -0.337502        -9.1839 
 167   2.0000      -0.324665        -8.8346 
 168   2.0000      -0.321373        -8.7450 
 169   2.0000      -0.305094        -8.3020 
 170   2.0000      -0.299313        -8.1447 
 171   2.0000      -0.286028        -7.7832 
 172   2.0000      -0.278104        -7.5676 
 173   2.0000      -0.263581        -7.1724 
 174   2.0000      -0.242187        -6.5902 
 175   2.0000      -0.189954        -5.1689 
 176   2.0000      -0.181425        -4.9368 
 177   2.0000      -0.080198        -2.1823 
 178   2.0000      -0.059750        -1.6259 
 179   0.0000       0.028495         0.7754 
 180   0.0000       0.065412         1.7799 
 181   0.0000       0.090229         2.4553 
 182   0.0000       0.106194         2.8897 
 183   0.0000       0.117248         3.1905 
 184   0.0000       0.137237         3.7344 
 185   0.0000       0.139374         3.7926 
 186   0.0000       0.140888         3.8337 
 187   0.0000       0.164569         4.4782 
 188   0.0000       0.165312         4.4984 
 189   0.0000       0.165599         4.5062 
 190   0.0000       0.175446         4.7741 
 191   0.0000       0.180324         4.9069 
 192   0.0000       0.183729         4.9995 
 193   0.0000       0.189328         5.1519 
 194   0.0000       0.204986         5.5780 
 195   0.0000       0.205516         5.5924 
 196   0.0000       0.208269         5.6673 
 197   0.0000       0.208708         5.6792 
 198   0.0000       0.216501         5.8913 
 199   0.0000       0.227895         6.2013 
 200   0.0000       0.233715         6.3597 
 201   0.0000       0.234113         6.3705 
 202   0.0000       0.239077         6.5056 
 203   0.0000       0.239718         6.5231 
 204   0.0000       0.246239         6.7005 
 205   0.0000       0.255042         6.9400 
 206   0.0000       0.256394         6.9768 
 207   0.0000       0.257773         7.0144 
 208   0.0000       0.259230         7.0540 
 209   0.0000       0.260647         7.0926 
 210   0.0000       0.264143         7.1877 
 211   0.0000       0.265661         7.2290 
 212   0.0000       0.268649         7.3103 
 213   0.0000       0.270083         7.3493 
 214   0.0000       0.273370         7.4388 
 215   0.0000       0.275819         7.5054 
 216   0.0000       0.278533         7.5793 
 217   0.0000       0.283028         7.7016 
 218   0.0000       0.286680         7.8010 
 219   0.0000       0.287760         7.8303 
 220   0.0000       0.289990         7.8910 
 221   0.0000       0.292698         7.9647 
 222   0.0000       0.294713         8.0196 
 223   0.0000       0.296928         8.0798 
 224   0.0000       0.297209         8.0875 
 225   0.0000       0.301699         8.2097 
 226   0.0000       0.305896         8.3239 
 227   0.0000       0.307598         8.3702 
 228   0.0000       0.320175         8.7124 
 229   0.0000       0.324649         8.8341 
 230   0.0000       0.328677         8.9438 
 231   0.0000       0.335556         9.1309 
 232   0.0000       0.342573         9.3219 
 233   0.0000       0.357300         9.7226 
 234   0.0000       0.373039        10.1509 
 235   0.0000       0.374281        10.1847 
 236   0.0000       0.390434        10.6242 
 237   0.0000       0.391260        10.6467 
 238   0.0000       0.397792        10.8245 
 239   0.0000       0.402535        10.9535 
 240   0.0000       0.410957        11.1827 
 241   0.0000       0.412022        11.2117 
 242   0.0000       0.414774        11.2866 
 243   0.0000       0.421245        11.4627 
 244   0.0000       0.429781        11.6949 
 245   0.0000       0.434982        11.8365 
 246   0.0000       0.440089        11.9754 
 247   0.0000       0.440486        11.9862 
 248   0.0000       0.441504        12.0139 
 249   0.0000       0.446831        12.1589 
 250   0.0000       0.448848        12.2138 
 251   0.0000       0.458865        12.4864 
 252   0.0000       0.465435        12.6651 
 253   0.0000       0.470654        12.8071 
 254   0.0000       0.472438        12.8557 
 255   0.0000       0.474550        12.9132 
 256   0.0000       0.476655        12.9704 
 257   0.0000       0.486117        13.2279 
 258   0.0000       0.488525        13.2935 
 259   0.0000       0.495003        13.4697 
 260   0.0000       0.503999        13.7145 
 261   0.0000       0.504594        13.7307 
 262   0.0000       0.506344        13.7783 
 263   0.0000       0.512221        13.9382 
 264   0.0000       0.515630        14.0310 
 265   0.0000       0.520142        14.1538 
 266   0.0000       0.526532        14.3277 
 267   0.0000       0.528464        14.3802 
 268   0.0000       0.535334        14.5672 
 269   0.0000       0.542331        14.7576 
 270   0.0000       0.553542        15.0627 
 271   0.0000       0.556536        15.1441 
 272   0.0000       0.559116        15.2143 
 273   0.0000       0.563734        15.3400 
 274   0.0000       0.566758        15.4223 
 275   0.0000       0.572330        15.5739 
 276   0.0000       0.573673        15.6104 
 277   0.0000       0.581390        15.8204 
 278   0.0000       0.583812        15.8863 
 279   0.0000       0.586432        15.9576 
 280   0.0000       0.591286        16.0897 
 281   0.0000       0.593706        16.1556 
 282   0.0000       0.595278        16.1983 
 283   0.0000       0.597702        16.2643 
 284   0.0000       0.598320        16.2811 
 285   0.0000       0.602308        16.3896 
 286   0.0000       0.606048        16.4914 
 287   0.0000       0.610630        16.6161 
 288   0.0000       0.618333        16.8257 
 289   0.0000       0.622461        16.9380 
 290   0.0000       0.625950        17.0330 
 291   0.0000       0.630912        17.1680 
 292   0.0000       0.636786        17.3278 
 293   0.0000       0.641585        17.4584 
 294   0.0000       0.646316        17.5872 
 295   0.0000       0.651453        17.7269 
 296   0.0000       0.655349        17.8330 
 297   0.0000       0.659676        17.9507 
 298   0.0000       0.664087        18.0707 
 299   0.0000       0.665124        18.0989 
 300   0.0000       0.670635        18.2489 
 301   0.0000       0.675507        18.3815 
 302   0.0000       0.680753        18.5242 
 303   0.0000       0.684028        18.6133 
 304   0.0000       0.684326        18.6214 
 305   0.0000       0.689169        18.7532 
 306   0.0000       0.692745        18.8505 
 307   0.0000       0.693845        18.8805 
 308   0.0000       0.696381        18.9495 
 309   0.0000       0.701838        19.0980 
 310   0.0000       0.702837        19.1252 
 311   0.0000       0.705963        19.2102 
 312   0.0000       0.710033        19.3210 
 313   0.0000       0.711132        19.3509 
 314   0.0000       0.711390        19.3579 
 315   0.0000       0.715658        19.4740 
 316   0.0000       0.716755        19.5039 
 317   0.0000       0.719739        19.5851 
 318   0.0000       0.723721        19.6935 
 319   0.0000       0.727497        19.7962 
 320   0.0000       0.728165        19.8144 
 321   0.0000       0.729107        19.8400 
 322   0.0000       0.730325        19.8731 
 323   0.0000       0.733157        19.9502 
 324   0.0000       0.736585        20.0435 
 325   0.0000       0.738970        20.1084 
 326   0.0000       0.743260        20.2251 
 327   0.0000       0.745334        20.2816 
 328   0.0000       0.752293        20.4709 
 329   0.0000       0.753972        20.5166 
 330   0.0000       0.758901        20.6507 
 331   0.0000       0.763796        20.7840 
 332   0.0000       0.767260        20.8782 
 333   0.0000       0.768001        20.8984 
 334   0.0000       0.771362        20.9898 
 335   0.0000       0.774501        21.0752 
 336   0.0000       0.776602        21.1324 
 337   0.0000       0.781438        21.2640 
 338   0.0000       0.786204        21.3937 
 339   0.0000       0.790640        21.5144 
 340   0.0000       0.792264        21.5586 
 341   0.0000       0.793372        21.5887 
 342   0.0000       0.798831        21.7373 
 343   0.0000       0.801572        21.8119 
 344   0.0000       0.804221        21.8840 
 345   0.0000       0.808640        22.0042 
 346   0.0000       0.811693        22.0873 
 347   0.0000       0.815048        22.1786 
 348   0.0000       0.816124        22.2079 
 349   0.0000       0.817156        22.2360 
 350   0.0000       0.821542        22.3553 
 351   0.0000       0.824214        22.4280 
 352   0.0000       0.827838        22.5266 
 353   0.0000       0.829266        22.5655 
 354   0.0000       0.830496        22.5989 
 355   0.0000       0.831906        22.6373 
 356   0.0000       0.834831        22.7169 
 357   0.0000       0.835697        22.7405 
 358   0.0000       0.838817        22.8254 
 359   0.0000       0.841615        22.9015 
 360   0.0000       0.842752        22.9325 
 361   0.0000       0.843427        22.9508 
 362   0.0000       0.845916        23.0185 
 363   0.0000       0.849971        23.1289 
 364   0.0000       0.851771        23.1779 
 365   0.0000       0.855992        23.2927 
 366   0.0000       0.862886        23.4803 
 367   0.0000       0.865155        23.5421 
 368   0.0000       0.866871        23.5888 
 369   0.0000       0.868611        23.6361 
 370   0.0000       0.870319        23.6826 
 371   0.0000       0.875510        23.8238 
 372   0.0000       0.876126        23.8406 
 373   0.0000       0.878591        23.9077 
 374   0.0000       0.882897        24.0248 
 375   0.0000       0.883479        24.0407 
 376   0.0000       0.890096        24.2207 
 377   0.0000       0.892893        24.2969 
 378   0.0000       0.894215        24.3328 
 379   0.0000       0.895889        24.3784 
 380   0.0000       0.897436        24.4205 
 381   0.0000       0.898517        24.4499 
 382   0.0000       0.901902        24.5420 
 383   0.0000       0.902605        24.5611 
 384   0.0000       0.906412        24.6647 
 385   0.0000       0.908012        24.7083 
 386   0.0000       0.911123        24.7929 
 387   0.0000       0.914524        24.8855 
 388   0.0000       0.916782        24.9469 
 389   0.0000       0.919310        25.0157 
 390   0.0000       0.923727        25.1359 
 391   0.0000       0.926221        25.2038 
 392   0.0000       0.927550        25.2399 
 393   0.0000       0.929014        25.2798 
 394   0.0000       0.931207        25.3394 
 395   0.0000       0.934649        25.4331 
 396   0.0000       0.938770        25.5452 
 397   0.0000       0.941955        25.6319 
 398   0.0000       0.947914        25.7941 
 399   0.0000       0.949971        25.8500 
 400   0.0000       0.951129        25.8815 
 401   0.0000       0.954065        25.9614 
 402   0.0000       0.956256        26.0211 
 403   0.0000       0.958515        26.0825 
 404   0.0000       0.962779        26.1985 
 405   0.0000       0.962986        26.2042 
 406   0.0000       0.971859        26.4456 
 407   0.0000       0.979894        26.6643 
 408   0.0000       0.982020        26.7221 
 409   0.0000       0.987477        26.8706 
 410   0.0000       0.990985        26.9661 
 411   0.0000       0.994469        27.0609 
 412   0.0000       0.999655        27.2020 
 413   0.0000       1.006827        27.3972 
 414   0.0000       1.013220        27.5711 
 415   0.0000       1.015658        27.6375 
 416   0.0000       1.019345        27.7378 
 417   0.0000       1.027300        27.9543 
 418   0.0000       1.030970        28.0541 
 419   0.0000       1.032751        28.1026 
 420   0.0000       1.038762        28.2661 
 421   0.0000       1.045556        28.4510 
 422   0.0000       1.053951        28.6795 
 423   0.0000       1.055706        28.7272 
 424   0.0000       1.058803        28.8115 
 425   0.0000       1.073478        29.2108 
 426   0.0000       1.077421        29.3181 
 427   0.0000       1.080546        29.4032 
 428   0.0000       1.081213        29.4213 
 429   0.0000       1.086075        29.5536 
 430   0.0000       1.089555        29.6483 
 431   0.0000       1.095494        29.8099 
 432   0.0000       1.099786        29.9267 
 433   0.0000       1.105067        30.0704 
 434   0.0000       1.108872        30.1739 
 435   0.0000       1.113493        30.2997 
 436   0.0000       1.115751        30.3611 
 437   0.0000       1.119830        30.4721 
 438   0.0000       1.122219        30.5371 
 439   0.0000       1.125035        30.6137 
 440   0.0000       1.126364        30.6499 
 441   0.0000       1.131456        30.7885 
 442   0.0000       1.136045        30.9134 
 443   0.0000       1.137530        30.9538 
 444   0.0000       1.139079        30.9959 
 445   0.0000       1.145031        31.1579 
 446   0.0000       1.146815        31.2064 
 447   0.0000       1.151780        31.3415 
 448   0.0000       1.155386        31.4397 
 449   0.0000       1.158204        31.5163 
 450   0.0000       1.160638        31.5826 
 451   0.0000       1.166085        31.7308 
 452   0.0000       1.167668        31.7739 
 453   0.0000       1.169050        31.8115 
 454   0.0000       1.174478        31.9592 
 455   0.0000       1.180441        32.1214 
 456   0.0000       1.183397        32.2019 
 457   0.0000       1.195433        32.5294 
 458   0.0000       1.200740        32.6738 
 459   0.0000       1.201558        32.6960 
 460   0.0000       1.203447        32.7475 
 461   0.0000       1.207977        32.8707 
 462   0.0000       1.211318        32.9616 
 463   0.0000       1.212594        32.9964 
 464   0.0000       1.215572        33.0774 
 465   0.0000       1.217741        33.1364 
 466   0.0000       1.222162        33.2567 
 467   0.0000       1.228613        33.4323 
 468   0.0000       1.230677        33.4884 
 469   0.0000       1.234065        33.5806 
 470   0.0000       1.236788        33.6547 
 471   0.0000       1.240958        33.7682 
 472   0.0000       1.244411        33.8621 
 473   0.0000       1.244749        33.8713 
 474   0.0000       1.249695        34.0059 
 475   0.0000       1.251182        34.0464 
 476   0.0000       1.254257        34.1301 
 477   0.0000       1.258724        34.2516 
 478   0.0000       1.261710        34.3329 
 479   0.0000       1.263398        34.3788 
 480   0.0000       1.268468        34.5168 
 481   0.0000       1.269795        34.5529 
 482   0.0000       1.271958        34.6117 
 483   0.0000       1.276173        34.7264 
 484   0.0000       1.282480        34.8981 
 485   0.0000       1.285891        34.9909 
 486   0.0000       1.289322        35.0842 
 487   0.0000       1.291760        35.1506 
 488   0.0000       1.294577        35.2272 
 489   0.0000       1.297494        35.3066 
 490   0.0000       1.303308        35.4648 
 491   0.0000       1.304796        35.5053 
 492   0.0000       1.309965        35.6460 
 493   0.0000       1.310501        35.6605 
 494   0.0000       1.316730        35.8300 
 495   0.0000       1.321164        35.9507 
 496   0.0000       1.322451        35.9857 
 497   0.0000       1.327620        36.1264 
 498   0.0000       1.330092        36.1936 
 499   0.0000       1.337975        36.4082 
 500   0.0000       1.338545        36.4237 
 501   0.0000       1.339508        36.4499 
 502   0.0000       1.342230        36.5239 
 503   0.0000       1.348462        36.6935 
 504   0.0000       1.348646        36.6985 
 505   0.0000       1.350499        36.7490 
 506   0.0000       1.354223        36.8503 
 507   0.0000       1.356851        36.9218 
 508   0.0000       1.360347        37.0169 
 509   0.0000       1.363635        37.1064 
[...]
      px      :     0.043612
      py      :     0.014045
 77 H s       :     0.884447  s :     0.884447
      pz      :     0.047980  p :     0.079297
      px      :     0.015024
      py      :     0.016292
 78 H s       :     0.884774  s :     0.884774
      pz      :     0.025886  p :     0.079271
      px      :     0.020454
      py      :     0.032930
 79 H s       :     0.910884  s :     0.910884
      pz      :     0.021802  p :     0.086292
      px      :     0.021655
      py      :     0.042835
 80 H s       :     0.864282  s :     0.864282
      pz      :     0.039397  p :     0.084835
      px      :     0.030287
      py      :     0.015151
 81 H s       :     0.886655  s :     0.886655
      pz      :     0.037838  p :     0.084140
      px      :     0.016174
      py      :     0.030127
 82 H s       :     0.916022  s :     0.916022
      pz      :     0.021960  p :     0.086733
      px      :     0.031657
      py      :     0.033116
 83 H s       :     0.873282  s :     0.873282
      pz      :     0.039288  p :     0.084126
      px      :     0.015272
      py      :     0.029566
 84 H s       :     0.886533  s :     0.886533
      pz      :     0.035776  p :     0.083419
      px      :     0.031703
      py      :     0.015941
 85 H s       :     0.892705  s :     0.892705
      pz      :     0.022493  p :     0.079791
      px      :     0.014063
      py      :     0.043235
 86 H s       :     0.890897  s :     0.890897
      pz      :     0.024734  p :     0.078836
      px      :     0.032988
      py      :     0.021115
 87 H s       :     0.889728  s :     0.889728
      pz      :     0.048029  p :     0.078752
      px      :     0.015585
      py      :     0.015138
 88 H s       :     0.910541  s :     0.910541
      pz      :     0.021600  p :     0.087007
      px      :     0.042949
      py      :     0.022458
 89 H s       :     0.870887  s :     0.870887
      pz      :     0.037974  p :     0.083873
      px      :     0.030519
      py      :     0.015380


                      *****************************
                      * MAYER POPULATION ANALYSIS *
                      *****************************

  NA   - Mulliken gross atomic population
  ZA   - Total nuclear charge
  QA   - Mulliken gross atomic charge
  VA   - Mayer's total valence
  BVA  - Mayer's bonded valence
  FA   - Mayer's free valence

  ATOM       NA         ZA         QA         VA         BVA        FA
  0 C      5.7694     6.0000     0.2306     3.8535     3.8535     0.0000
  1 N      7.4545     7.0000    -0.4545     3.3531     3.3531    -0.0000
  2 C      6.0635     6.0000    -0.0635     3.9246     3.9246     0.0000
  3 N      7.3407     7.0000    -0.3407     3.4551     3.4551    -0.0000
  4 C      6.1381     6.0000    -0.1381     4.2021     4.2021    -0.0000
  5 N      7.5691     7.0000    -0.5691     3.0961     3.0961    -0.0000
  6 C      6.0892     6.0000    -0.0892     3.9153     3.9153     0.0000
  7 N      7.3411     7.0000    -0.3411     3.4322     3.4322    -0.0000
  8 C      5.7797     6.0000     0.2203     3.8535     3.8535     0.0000
  9 N      7.5623     7.0000    -0.5623     3.0768     3.0768     0.0000
 10 C      5.8807     6.0000     0.1193     3.9091     3.9091    -0.0000
 11 N      7.4386     7.0000    -0.4386     3.3770     3.3770    -0.0000
 12 C      6.0628     6.0000    -0.0628     3.8088     3.8088    -0.0000
 13 N      7.4293     7.0000    -0.4293     3.4287     3.4287    -0.0000
 14 C      5.7880     6.0000     0.2120     3.8202     3.8202    -0.0000
 15 N      7.4407     7.0000    -0.4407     3.3734     3.3734    -0.0000
 16 C      5.7651     6.0000     0.2349     3.7787     3.7787    -0.0000
 17 C      6.1035     6.0000    -0.1035     3.9439     3.9439    -0.0000
 18 C      6.1754     6.0000    -0.1754     3.7431     3.7431     0.0000
 19 C      5.7916     6.0000     0.2084     3.8912     3.8912     0.0000
 20 C      5.7866     6.0000     0.2134     3.8292     3.8292     0.0000
 21 C      6.0513     6.0000    -0.0513     3.7767     3.7767    -0.0000
 22 C      6.0907     6.0000    -0.0907     3.9825     3.9825     0.0000
 23 C      6.0396     6.0000    -0.0396     3.9928     3.9928    -0.0000
 24 C      5.8072     6.0000     0.1928     3.8212     3.8212    -0.0000
 25 C      5.8853     6.0000     0.1147     3.8919     3.8919     0.0000
 26 C      6.0843     6.0000    -0.0843     3.9077     3.9077    -0.0000
 27 C      5.7810     6.0000     0.2190     3.8625     3.8625    -0.0000
 28 C      6.0619     6.0000    -0.0619     3.9889     3.9889    -0.0000
 29 C      6.1839     6.0000    -0.1839     3.7486     3.7486    -0.0000
 30 C      5.7543     6.0000     0.2457     3.7998     3.7998    -0.0000
 31 C      5.7699     6.0000     0.2301     3.8169     3.8169    -0.0000
 32 C      6.0614     6.0000    -0.0614     3.9233     3.9233    -0.0000
 33 C      6.0598     6.0000    -0.0598     3.9711     3.9711     0.0000
 34 C      6.0516     6.0000    -0.0516     3.9832     3.9832     0.0000
 35 C      5.7708     6.0000     0.2292     3.8164     3.8164    -0.0000
 36 C      5.8918     6.0000     0.1082     3.8746     3.8746    -0.0000
 37 C      6.0646     6.0000    -0.0646     3.9176     3.9176    -0.0000
 38 C      5.7691     6.0000     0.2309     3.8012     3.8012    -0.0000
 39 C      6.0573     6.0000    -0.0573     3.9830     3.9830     0.0000
 40 C      6.1820     6.0000    -0.1820     3.7259     3.7259    -0.0000
 41 C      5.7736     6.0000     0.2264     3.8882     3.8882    -0.0000
 42 C      5.8026     6.0000     0.1974     3.8254     3.8254    -0.0000
 43 C      6.0727     6.0000    -0.0727     3.8999     3.8999    -0.0000
 44 C      6.0893     6.0000    -0.0893     3.9848     3.9848    -0.0000
 45 C      6.0618     6.0000    -0.0618     3.9917     3.9917     0.0000
 46 C      5.7878     6.0000     0.2122     3.8284     3.8284    -0.0000
 47 C      5.8847     6.0000     0.1153     3.8926     3.8926    -0.0000
 48 C      6.0663     6.0000    -0.0663     3.9096     3.9096    -0.0000
 49 C      5.7624     6.0000     0.2376     3.8961     3.8961     0.0000
 50 C      6.0459     6.0000    -0.0459     3.9903     3.9903     0.0000
 51 C      6.1924     6.0000    -0.1924     3.7389     3.7389    -0.0000
 52 H      0.9682     1.0000     0.0318     0.9860     0.9860     0.0000
 53 H      1.0192     1.0000    -0.0192     0.9993     0.9993     0.0000
 54 H      0.9392     1.0000     0.0608     0.9620     0.9620     0.0000
 55 H      0.9692     1.0000     0.0308     0.9865     0.9865     0.0000
 56 H      0.9508     1.0000     0.0492     0.9694     0.9694     0.0000
 57 H      0.9521     1.0000     0.0479     0.9824     0.9824     0.0000
 58 H      0.9539     1.0000     0.0461     0.9845     0.9845    -0.0000
 59 H      1.0199     1.0000    -0.0199     0.9594     0.9594    -0.0000
 60 H      0.9329     1.0000     0.0671     0.9250     0.9250    -0.0000
 61 H      0.8292     1.0000     0.1708     1.0424     1.0424    -0.0000
 62 H      0.8246     1.0000     0.1754     1.0437     1.0437     0.0000
 63 H      0.9451     1.0000     0.0549     0.9853     0.9853    -0.0000
 64 H      1.0436     1.0000    -0.0436     0.9754     0.9754     0.0000
 65 H      0.9535     1.0000     0.0465     1.0101     1.0101    -0.0000
 66 H      0.9449     1.0000     0.0551     0.9855     0.9855     0.0000
 67 H      0.9379     1.0000     0.0621     0.9719     0.9719    -0.0000
 68 H      0.9430     1.0000     0.0570     0.9868     0.9868     0.0000
 69 H      0.9439     1.0000     0.0561     0.9828     0.9828     0.0000
 70 H      1.0307     1.0000    -0.0307     0.9944     0.9944    -0.0000
 71 H      0.9555     1.0000     0.0445     1.0058     1.0058     0.0000
 72 H      0.9285     1.0000     0.0715     0.9835     0.9835    -0.0000
 73 H      1.0079     1.0000    -0.0079     1.0010     1.0010    -0.0000
 74 H      0.9394     1.0000     0.0606     1.0100     1.0100     0.0000
 75 H      0.9290     1.0000     0.0710     0.9838     0.9838     0.0000
 76 H      0.9249     1.0000     0.0751     0.9721     0.9721    -0.0000
 77 H      0.9319     1.0000     0.0681     0.9855     0.9855    -0.0000
 78 H      0.9325     1.0000     0.0675     0.9854     0.9854    -0.0000
 79 H      1.0169     1.0000    -0.0169     0.9974     0.9974     0.0000
 80 H      0.9384     1.0000     0.0616     1.0072     1.0072    -0.0000
 81 H      0.9453     1.0000     0.0547     0.9856     0.9856     0.0000
 82 H      1.0249     1.0000    -0.0249     0.9935     0.9935    -0.0000
 83 H      0.9578     1.0000     0.0422     1.0083     1.0083     0.0000
 84 H      0.9455     1.0000     0.0545     0.9852     0.9852     0.0000
 85 H      0.9389     1.0000     0.0611     0.9716     0.9716     0.0000
 86 H      0.9443     1.0000     0.0557     0.9839     0.9839     0.0000
 87 H      0.9425     1.0000     0.0575     0.9857     0.9857     0.0000
 88 H      1.0144     1.0000    -0.0144     0.9968     0.9968    -0.0000
 89 H      0.9526     1.0000     0.0474     1.0076     1.0076    -0.0000

  Mayer bond orders larger than 0.100000
B(  0-C ,  1-N ) :   1.1051 B(  0-C , 17-C ) :   1.7305 B(  0-C , 52-H ) :   0.9586 
B(  1-N ,  8-C ) :   1.0911 B(  1-N , 10-C ) :   0.9776 B(  2-C , 12-C ) :   1.4850 
B(  2-C , 16-C ) :   1.3804 B(  2-C , 53-H ) :   0.9700 B(  3-N , 14-C ) :   1.2278 
B(  3-N , 16-C ) :   1.1769 B(  3-N , 61-H ) :   0.8969 B(  4-C ,  6-C ) :   1.2316 
B(  4-C , 17-C ) :   1.2312 B(  4-C , 18-C ) :   1.4911 B(  5-N , 19-C ) :   1.4646 
B(  5-N , 27-C ) :   1.3673 B(  6-C ,  8-C ) :   1.7395 B(  6-C , 54-H ) :   0.8276 
B(  7-N , 30-C ) :   1.1951 B(  7-N , 38-C ) :   1.1894 B(  7-N , 62-H ) :   0.8968 
B(  8-C , 55-H ) :   0.9580 B(  9-N , 41-C ) :   1.3957 B(  9-N , 49-C ) :   1.4236 
B( 10-C , 56-H ) :   0.9776 B( 10-C , 57-H ) :   0.9824 B( 10-C , 58-H ) :   0.9835 
B( 11-N , 20-C ) :   1.1305 B( 11-N , 24-C ) :   1.1058 B( 11-N , 25-C ) :   0.9606 
B( 12-C , 14-C ) :   1.3639 B( 12-C , 59-H ) :   0.9026 B( 13-N , 31-C ) :   1.1615 
B( 13-N , 35-C ) :   1.1613 B( 13-N , 36-C ) :   0.9411 B( 14-C , 18-C ) :   1.1163 
B( 15-N , 42-C ) :   1.1080 B( 15-N , 46-C ) :   1.1255 B( 15-N , 47-C ) :   0.9609 
B( 16-C , 51-C ) :   1.1685 B( 17-C , 60-H ) :   0.8605 B( 18-C , 19-C ) :   1.1137 
B( 19-C , 21-C ) :   1.2567 B( 20-C , 28-C ) :   1.6296 B( 20-C , 63-H ) :   0.9703 
B( 21-C , 26-C ) :   1.5756 B( 21-C , 64-H ) :   0.8749 B( 22-C , 23-C ) :   1.2889 
B( 22-C , 28-C ) :   1.2629 B( 22-C , 29-C ) :   1.2286 B( 23-C , 24-C ) :   1.6209 
B( 23-C , 65-H ) :   0.9703 B( 24-C , 66-H ) :   0.9696 B( 25-C , 67-H ) :   0.9760 
B( 25-C , 68-H ) :   0.9828 B( 25-C , 69-H ) :   0.9824 B( 26-C , 27-C ) :   1.2702 
B( 26-C , 70-H ) :   0.9647 B( 27-C , 29-C ) :   1.2047 B( 28-C , 71-H ) :   0.9720 
B( 29-C , 30-C ) :   1.2471 B( 30-C , 32-C ) :   1.2788 B( 31-C , 39-C ) :   1.5872 
B( 31-C , 72-H ) :   0.9681 B( 32-C , 37-C ) :   1.5799 B( 32-C , 73-H ) :   0.9786 
B( 33-C , 34-C ) :   1.3067 B( 33-C , 39-C ) :   1.3048 B( 33-C , 40-C ) :   1.1760 
B( 34-C , 35-C ) :   1.5852 B( 34-C , 74-H ) :   0.9696 B( 35-C , 75-H ) :   0.9681 
B( 36-C , 76-H ) :   0.9768 B( 36-C , 77-H ) :   0.9816 B( 36-C , 78-H ) :   0.9823 
B( 37-C , 38-C ) :   1.2851 B( 37-C , 79-H ) :   0.9764 B( 38-C , 40-C ) :   1.2341 
B( 39-C , 80-H ) :   0.9705 B( 40-C , 41-C ) :   1.2502 B( 41-C , 43-C ) :   1.1838 
B( 42-C , 50-C ) :   1.6321 B( 42-C , 81-H ) :   0.9696 B( 43-C , 48-C ) :   1.6694 
B( 43-C , 82-H ) :   0.9721 B( 44-C , 45-C ) :   1.2638 B( 44-C , 50-C ) :   1.2734 
B( 44-C , 51-C ) :   1.2586 B( 45-C , 46-C ) :   1.6337 B( 45-C , 83-H ) :   0.9718 
B( 46-C , 84-H ) :   0.9700 B( 47-C , 85-H ) :   0.9762 B( 47-C , 86-H ) :   0.9829 
B( 47-C , 87-H ) :   0.9824 B( 48-C , 49-C ) :   1.1871 B( 48-C , 88-H ) :   0.9748 
B( 49-C , 51-C ) :   1.2474 B( 50-C , 89-H ) :   0.9708 B( 54-H , 64-H ) :   0.1525 
B( 59-H , 60-H ) :   0.1080 

-------
TIMINGS
-------

Total SCF time: 0 days 0 hours 22 min 59 sec 

Total time                  ....    1379.382 sec
Sum of individual times     ....    1375.568 sec  ( 99.7%)

Fock matrix formation       ....    1354.887 sec  ( 98.2%)
Diagonalization             ....       6.677 sec  (  0.5%)
Density matrix formation    ....       0.373 sec  (  0.0%)
Population analysis         ....       0.475 sec  (  0.0%)
Initial guess               ....       1.919 sec  (  0.1%)
Orbital Transformation      ....       0.000 sec  (  0.0%)
Orbital Orthonormalization  ....       0.000 sec  (  0.0%)
DIIS solution               ....       2.930 sec  (  0.2%)
SOSCF solution              ....       7.290 sec  (  0.5%)

Maximum memory used throughout the entire SCF-calculation: 302.7 MB


           ************************************************************
           *        Program running with 16 parallel MPI-processes    *
           *              working on a common directory               *
           ************************************************************

------------------------------------------------------------------------------
                                ORCA  MP2 
------------------------------------------------------------------------------

Freezing NCore=104 chemical core electrons

----------
MP2 ENERGY (disk based algorithm)
----------

Dimension of the basis                    ...  918
Memory devoted to MP2                     ... 2000 MB   
Data format for buffers                   ... DOUBLE
Compression type for matrix containers    ... UNCOMPRESSED

-------------------------------
PARTIAL EXCHANGE TRANSFORMATION
-------------------------------

Transformation type                        ... one-operator
Generation of integrals (i,mue|j,nue)      ... ON
Generation of integrals (mue,kappa|nue,tau)... OFF
Generation of integrals (i,mue|a,nue)      ... OFF
Dimension of the basis                     ...  918
Number of internal MOs                     ...  127 (  52- 178)
Pair cutoff                                ... 2.500e-12 Eh
Number of AO pairs in the trafo            ... 421821
Total Number of distinct AO pairs          ... 421821
Memory devoted for trafo                   ... 2000.0 MB 
Max. Number of MO pairs treated together   ...  311      
Number Format for Storage                  ... Double (8 Byte)
Integral package used                      ... LIBINT

Starting integral evaluation:
    ... done with AO integral generation
Closing buffer AOK     (38.18 GB; CompressionRatio= 1.33)
Collecting buffer AOK 
Number of MO pairs included in the trafo   ... 8128
------------------------
SORTING OF (i,mue|j,nue)
------------------------

IBATCH = 1 of  2
IBATCH = 2 of  2
Closing buffer KAO     (51.03 GB; CompressionRatio= 1.00)
Collecting buffer KAO 
N(AO-Batches) Done                         ...  86115486 
N(AO-Batches) Skipped                      ...  82422814 
N(IJ)-pairs Skipped                        ...         0 
TOTAL TIME for half transformation         ...  2715.952 sec
AO-integral generation                     ...   178.502 sec
Half transformation                        ...   318.387 sec
K-integral sorting                         ...  2076.336 sec
Process 10:   Internal MO 132
Process 13:   Internal MO 156
Process  1:   Internal MO  60
Process  7:   Internal MO 108
Process  4:   Internal MO  84

Finished integral transformation - now doing MP2 part

OPERATOR COMBINATION   0   0: ij=( 52..178, 52..178)
Process  0:   Internal MO  54
Process  2:   Internal MO  69
Process  0:   Internal MO  57
Process  1:   Internal MO  63
Process  5:   Internal MO  93
Process  3:   Internal MO  78
Process  8:   Internal MO 117
Process  1:   Internal MO  66
Process  2:   Internal MO  72
Process  6:   Internal MO 102
Process 11:   Internal MO 141
Process  4:   Internal MO  87
Process 14:   Internal MO 165
Process  3:   Internal MO  81
Process  2:   Internal MO  75
Process  9:   Internal MO 126
Process  5:   Internal MO  96
Process  7:   Internal MO 111
Process 12:   Internal MO 150
Process  4:   Internal MO  90
Process 10:   Internal MO 135
Process 15:   Internal MO 174
Process  6:   Internal MO 105
Process  8:   Internal MO 120
Process  5:   Internal MO  99
Process 13:   Internal MO 159
Process  7:   Internal MO 114
Process 11:   Internal MO 144
Process  9:   Internal MO 129
Process 14:   Internal MO 168
Process  8:   Internal MO 123
Process 10:   Internal MO 138
Process 12:   Internal MO 153
Process 15:   Internal MO 177
Process 13:   Internal MO 162
Process 11:   Internal MO 147
Process 14:   Internal MO 171
-----------------------------------------------
 MP2 CORRELATION ENERGY   :     -7.293727230 Eh
-----------------------------------------------


-------
TIMINGS
-------
Total time                : 3210.507 sec
Integral trafo            : 2718.032 sec ( 84.7%)
K(i,j)                    :    9.563 sec (  0.3%)
T(i,j)                    :    0.227 sec (  0.0%)

---------------------------------------
MP2 TOTAL ENERGY:    -2130.729399323 Eh
---------------------------------------

Maximum memory used throughout the entire MP2-calculation: 2275.3 MB

-------------------------   --------------------
FINAL SINGLE POINT ENERGY     -2130.729399322536
-------------------------   --------------------


                            ***************************************
                            *     ORCA property calculations      *
                            ***************************************


  WARNING: The energy has been calculated at the MP2 level but the densities
           used in the property calculations are still SCF densities
           MP2 response densities have not been calculated 
           use %mp2 Density relaxed end
           or  %mp2 Density unrelaxed end

                                    ---------------------
                                    Active property flags
                                    ---------------------
   (+) Dipole Moment


------------------------------------------------------------------------------
                       ORCA ELECTRIC PROPERTIES CALCULATION
------------------------------------------------------------------------------

Dipole Moment Calculation                       ... on
Quadrupole Moment Calculation                   ... off
Polarizability Calculation                      ... off
GBWName                                         ... /scratch/allen/tmpyp4_amber_gaff2/conf1/conf1/Conf1.orca.gbw
Electron density                                ... /scratch/allen/tmpyp4_amber_gaff2/conf1/conf1/Conf1.orca.scfp
The origin for moment calculation is the CENTER OF MASS  = (-0.001244, -0.005008  0.002045)

-------------
DIPOLE MOMENT
-------------
                                X             Y             Z
Electronic contribution:      2.92811      -4.25009      -0.07927
Nuclear contribution   :     -0.03654       0.16378       0.09941
                        -----------------------------------------
Total Dipole Moment    :      2.89157      -4.08630       0.02014
                        -----------------------------------------
Magnitude (a.u.)       :      5.00594
Magnitude (Debye)      :     12.72409



--------------------
Rotational spectrum 
--------------------
 
Rotational constants in cm-1:     0.001504     0.001478     0.000760 
Rotational constants in MHz :    45.075754    44.301323    22.780450 

 Dipole components along the rotational axes: 
x,y,z [a.u.] :    -3.545069    -3.534313     0.023491 
x,y,z [Debye]:    -9.010850    -8.983510     0.059710 

 

Timings for individual modules:

Sum of individual times         ...     4618.884 sec (=  76.981 min)
GTO integral calculation        ...        7.360 sec (=   0.123 min)   0.2 %
SCF iterations                  ...     1382.525 sec (=  23.042 min)  29.9 %
MP2 module                      ...     3229.000 sec (=  53.817 min)  69.9 %
                             ****ORCA TERMINATED NORMALLY****
TOTAL RUN TIME: 0 days 1 hours 17 minutes 2 seconds 115 msec
# of primitive gaussian functions

