
                                 *****************
                                 * O   R   C   A *
                                 *****************

                                            #,                                       
                                            ###                                      
                                            ####                                     
                                            #####                                    
                                            ######                                   
                                           ########,                                 
                                     ,,################,,,,,                         
                               ,,#################################,,                 
                          ,,##########################################,,             
                       ,#########################################, ''#####,          
                    ,#############################################,,   '####,        
                  ,##################################################,,,,####,       
                ,###########''''           ''''###############################       
              ,#####''   ,,,,##########,,,,          '''####'''          '####       
            ,##' ,,,,###########################,,,                        '##       
           ' ,,###''''                  '''############,,,                           
         ,,##''                                '''############,,,,        ,,,,,,###''
      ,#''                                            '''#######################'''  
     '                                                          ''''####''''         
             ,#######,   #######,   ,#######,      ##                                
            ,#'     '#,  ##    ##  ,#'     '#,    #''#        ######   ,####,        
            ##       ##  ##   ,#'  ##            #'  '#       #        #'  '#        
            ##       ##  #######   ##           ,######,      #####,   #    #        
            '#,     ,#'  ##    ##  '#,     ,#' ,#      #,         ##   #,  ,#        
             '#######'   ##     ##  '#######'  #'      '#     #####' # '####'        



                  #######################################################
                  #                        -***-                        #
                  #          Department of theory and spectroscopy      #
                  #    Directorship and core code : Frank Neese         #
                  #        Max Planck Institute fuer Kohlenforschung    #
                  #                Kaiser Wilhelm Platz 1               #
                  #                 D-45470 Muelheim/Ruhr               #
                  #                      Germany                        #
                  #                                                     #
                  #                  All rights reserved                #
                  #                        -***-                        #
                  #######################################################


                         Program Version 5.0.4 -  RELEASE  -


 With contributions from (in alphabetic order):
   Daniel Aravena         : Magnetic Suceptibility
   Michael Atanasov       : Ab Initio Ligand Field Theory (pilot matlab implementation)
   Alexander A. Auer      : GIAO ZORA, VPT2 properties, NMR spectrum
   Ute Becker             : Parallelization
   Giovanni Bistoni       : ED, misc. LED, open-shell LED, HFLD
   Martin Brehm           : Molecular dynamics
   Dmytro Bykov           : SCF Hessian
   Vijay G. Chilkuri      : MRCI spin determinant printing, contributions to CSF-ICE
   Dipayan Datta          : RHF DLPNO-CCSD density
   Achintya Kumar Dutta   : EOM-CC, STEOM-CC
   Dmitry Ganyushin       : Spin-Orbit,Spin-Spin,Magnetic field MRCI
   Miquel Garcia          : C-PCM and meta-GGA Hessian, CC/C-PCM, Gaussian charge scheme
   Yang Guo               : DLPNO-NEVPT2, F12-NEVPT2, CIM, IAO-localization
   Andreas Hansen         : Spin unrestricted coupled pair/coupled cluster methods
   Benjamin Helmich-Paris : MC-RPA, TRAH-SCF, COSX integrals
   Lee Huntington         : MR-EOM, pCC
   Robert Izsak           : Overlap fitted RIJCOSX, COSX-SCS-MP3, EOM
   Marcus Kettner         : VPT2
   Christian Kollmar      : KDIIS, OOCD, Brueckner-CCSD(T), CCSD density, CASPT2, CASPT2-K
   Simone Kossmann        : Meta GGA functionals, TD-DFT gradient, OOMP2, MP2 Hessian
   Martin Krupicka        : Initial AUTO-CI
   Lucas Lang             : DCDCAS
   Marvin Lechner         : AUTO-CI (C++ implementation), FIC-MRCC
   Dagmar Lenk            : GEPOL surface, SMD
   Dimitrios Liakos       : Extrapolation schemes; Compound Job, initial MDCI parallelization
   Dimitrios Manganas     : Further ROCIS development; embedding schemes
   Dimitrios Pantazis     : SARC Basis sets
   Anastasios Papadopoulos: AUTO-CI, single reference methods and gradients
   Taras Petrenko         : DFT Hessian,TD-DFT gradient, ASA, ECA, R-Raman, ABS, FL, XAS/XES, NRVS
   Peter Pinski           : DLPNO-MP2, DLPNO-MP2 Gradient
   Christoph Reimann      : Effective Core Potentials
   Marius Retegan         : Local ZFS, SOC
   Christoph Riplinger    : Optimizer, TS searches, QM/MM, DLPNO-CCSD(T), (RO)-DLPNO pert. Triples
   Tobias Risthaus        : Range-separated hybrids, TD-DFT gradient, RPA, STAB
   Michael Roemelt        : Original ROCIS implementation
   Masaaki Saitow         : Open-shell DLPNO-CCSD energy and density
   Barbara Sandhoefer     : DKH picture change effects
   Avijit Sen             : IP-ROCIS
   Kantharuban Sivalingam : CASSCF convergence, NEVPT2, FIC-MRCI
   Bernardo de Souza      : ESD, SOC TD-DFT
   Georgi Stoychev        : AutoAux, RI-MP2 NMR, DLPNO-MP2 response
   Willem Van den Heuvel  : Paramagnetic NMR
   Boris Wezisla          : Elementary symmetry handling
   Frank Wennmohs         : Technical directorship


 We gratefully acknowledge several colleagues who have allowed us to
 interface, adapt or use parts of their codes:
   Stefan Grimme, W. Hujo, H. Kruse, P. Pracht,  : VdW corrections, initial TS optimization,
                  C. Bannwarth, S. Ehlert          DFT functionals, gCP, sTDA/sTD-DF
   Ed Valeev, F. Pavosevic, A. Kumar             : LibInt (2-el integral package), F12 methods
   Garnet Chan, S. Sharma, J. Yang, R. Olivares  : DMRG
   Ulf Ekstrom                                   : XCFun DFT Library
   Mihaly Kallay                                 : mrcc  (arbitrary order and MRCC methods)
   Jiri Pittner, Ondrej Demel                    : Mk-CCSD
   Frank Weinhold                                : gennbo (NPA and NBO analysis)
   Christopher J. Cramer and Donald G. Truhlar   : smd solvation model
   Lars Goerigk                                  : TD-DFT with DH, B97 family of functionals
   V. Asgeirsson, H. Jonsson                     : NEB implementation
   FAccTs GmbH                                   : IRC, NEB, NEB-TS, DLPNO-Multilevel, CI-OPT
                                                   MM, QMMM, 2- and 3-layer-ONIOM, Crystal-QMMM,
                                                   LR-CPCM, SF, NACMEs, symmetry and pop. for TD-DFT,
                                                   nearIR, NL-DFT gradient (VV10), updates on ESD,
                                                   ML-optimized integration grids
   S Lehtola, MJT Oliveira, MAL Marques          : LibXC Library
   Liviu Ungur et al                             : ANISO software


 Your calculation uses the libint2 library for the computation of 2-el integrals
 For citations please refer to: http://libint.valeyev.net

 Your ORCA version has been built with support for libXC version: 5.1.0
 For citations please refer to: https://tddft.org/programs/libxc/

 This ORCA versions uses:
   CBLAS   interface :  Fast vector & matrix operations
   LAPACKE interface :  Fast linear algebra routines
   SCALAPACK package :  Parallel linear algebra routines
   Shared memory     :  Shared parallel matrices
   BLAS/LAPACK       :  OpenBLAS 0.3.15  USE64BITINT DYNAMIC_ARCH NO_AFFINITY Sandybridge SINGLE_THREADED
        Core in use  :  Sandybridge
   Copyright (c) 2011-2014, The OpenBLAS Project


================================================================================

----- Orbital basis set information -----
Your calculation utilizes the basis: cc-pVDZ 
       H, B-Ne : Obtained from the ccRepo (grant-hill.group.shef.ac.uk/ccrepo) Feb. 2017
                 T. H. Dunning, Jr., J. Chem. Phys. 90, 1007 (1989)
            He : Obtained from the ccRepo (grant-hill.group.shef.ac.uk/ccrepo) Feb. 2017
                 D. E. Woon, T. H. Dunning, Jr., J. Chem. Phys. 100, 2975 (1994)
  Li-Be, Na-Mg : Obtained from the ccRepo (grant-hill.group.shef.ac.uk/ccrepo) Feb. 2017
                 B. P. Prascher, D. E. Woon, K. A. Peterson, T. H. Dunning, Jr., A. K. Wilson, Theor. Chem. Acc. 128, 69 (2011)
         Al-Ar : Obtained from the ccRepo (grant-hill.group.shef.ac.uk/ccrepo) Feb. 2017
                 D. E. Woon, T. H. Dunning, Jr., J. Chem. Phys. 98, 1358 (1993)
            Ca : Obtained from the Peterson Research Group Website (tyr0.chem.wsu.edu/~kipeters) Feb. 2017
                 J. Koput, K. A. Peterson, J. Phys. Chem. 106, 9595 (2002)
         Sc-Zn : Obtained from the ccRepo (grant-hill.group.shef.ac.uk/ccrepo) Feb. 2017
                 N. B. Balabanov, K. A. Peterson, J. Chem. Phys. 123, 064107 (2005)
                 N. B. Balabanov, K. A. Peterson, J. Chem. Phys. 125, 074110 (2006)
         Ga-Kr : Obtained from the ccRepo (grant-hill.group.shef.ac.uk/ccrepo) Feb. 2017
                 A. K. Wilson, D. E. Woon, K. A. Peterson, T. H. Dunning, Jr., J. Chem. Phys. 110, 7667 (1999)

================================================================================
                                        WARNINGS
                       Please study these warnings very carefully!
================================================================================


WARNING: No MP2 level density has been requested!
         To caclulate MP2 level properties use
         %mp2 Density relaxed end
         or
         %mp2 Density unrelaxed end

WARNING: Post HF methods need fully converged wavefunctions
  ===> : Setting SCFConvForced true
         You can overwrite this default with %scf ConvForced false 


INFO   : the flag for use of the SHARK integral package has been found!

================================================================================
                                       INPUT FILE
================================================================================
NAME = /scratch/allen/tmpyp4_amber_gaff2/2.Mdgx/conf11/conf11/Conf5.orca
|  1> ! PAL2
|  2> ! mp2 cc-pvdz TightSCF  NoKeepInts
|  3> 
|  4> %scf
|  5>   MaxCore 2000
|  6> end
|  7> %mp2
|  8>   MaxCore 2000
|  9> end
| 10> * xyz 0 1
| 11>    C       -3.03500         6.49500         0.04500
| 12>    C        1.47400         4.04100         0.05700
| 13>    C       -2.80200         4.09300         0.04900
| 14>    C       -4.20100         4.00900         0.11900
| 15>    C       -4.96500         5.15900         0.14600
| 16>    C       -5.22800         7.59200         0.10500
| 17>    C        0.13200         4.30700         0.06100
| 18>    C       -0.56900         3.05600         0.04700
| 19>    C        1.64900         2.61800         0.02300
| 20>    C       -2.22900         5.37400         0.00900
| 21>    N       -4.38000         6.37900         0.11300
| 22>    N        0.38800         2.06700         0.02500
| 23>    N       -2.01000         0.39500        -0.07500
| 24>    N       -0.38800        -2.07400        -0.02700
| 25>    N        2.01000        -0.40100         0.06500
| 26>    C       -1.96000         2.86100         0.02400
| 27>    C       -2.62300         1.61500        -0.01800
| 28>    C       -5.57300        -4.32900         1.06600
| 29>    C       -4.07300         1.47100         0.05600
| 30>    C       -4.10600        -2.75600        -0.02600
| 31>    C       -4.99500        -2.75700        -1.11100
| 32>    C       -6.13200        -3.54200        -1.07600
| 33>    C       -7.65100        -5.11300         0.04000
| 34>    C       -4.32400         0.14100         0.03700
| 35>    C       -3.02500        -0.52000        -0.04800
| 36>    C       -4.42200        -3.56600         1.07500
| 37>    N       -6.40700        -4.31300         0.00100
| 38>    C       -2.86700        -1.92200        -0.04000
| 39>    C       -1.65000        -2.62400        -0.02700
| 40>    C        3.56800        -6.14200        -1.04000
| 41>    C       -1.47600        -4.04900        -0.03400
| 42>    C        2.80300        -4.09900        -0.00800
| 43>    C        3.65700        -4.38400         1.06900
| 44>    C        4.42700        -5.53000         1.05900
| 45>    C        5.24500        -7.58800         0.01400
| 46>    C       -0.13400        -4.31500        -0.02200
| 47>    C        0.56800        -3.06400        -0.02700
| 48>    C        2.77500        -5.01200        -1.07400
| 49>    N        4.37600        -6.39100         0.01700
| 50>    C        1.95900        -2.86900        -0.00900
| 51>    C        2.62100        -1.62200         0.00900
| 52>    C        5.54300         4.33900        -1.13000
| 53>    C        4.07000        -1.47900        -0.09400
| 54>    C        4.10400         2.75100        -0.02100
| 55>    C        5.02700         2.72900         1.03600
| 56>    C        6.16600         3.50900         0.97800
| 57>    C        7.61900         5.15300        -0.11500
| 58>    C        4.32100        -0.14800        -0.09200
| 59>    C        3.02500         0.51400         0.01500
| 60>    C        4.38700         3.58200        -1.11500
| 61>    C        2.86600         1.91600         0.01300
| 62>    N        6.41300         4.29600        -0.09500
| 63>    H       -2.63600         7.50200         0.02900
| 64>    H        2.27400         4.76600         0.08100
| 65>    H       -4.70300         3.04900         0.14300
| 66>    H       -6.04600         5.14400         0.19100
| 67>    H       -5.51700         7.81700        -0.92400
| 68>    H       -6.11400         7.40400         0.71100
| 69>    H       -4.65800         8.42100         0.52400
| 70>    H       -0.33200         5.28200         0.06900
| 71>    H       -1.15400         5.50500        -0.03100
| 72>    H        0.18200         1.07200         0.00500
| 73>    H       -0.18300        -1.08000        -0.02100
| 74>    H       -5.86400        -4.96200         1.89500
| 75>    H       -4.79400         2.27200         0.13900
| 76>    H       -4.80000        -2.16000        -1.99400
| 77>    H       -6.84100        -3.58200        -1.89300
| 78>    H       -8.42800        -4.53600         0.54600
| 79>    H       -7.95600        -5.33700        -0.98100
| 80>    H       -7.45600        -6.03700         0.58400
| 81>    H       -5.28700        -0.34400         0.10000
| 82>    H       -3.78000        -3.60100         1.94700
| 83>    H        3.58700        -6.86800        -1.84300
| 84>    H       -2.27600        -4.77400        -0.05000
| 85>    H        3.71400        -3.72400         1.92600
| 86>    H        5.09200        -5.79500         1.87100
| 87>    H        6.20500        -7.32900        -0.43900
| 88>    H        5.39300        -7.91700         1.04200
| 89>    H        4.75900        -8.37300        -0.56400
| 90>    H        0.32900        -5.29000        -0.00800
| 91>    H        2.14600        -4.84200        -1.94000
| 92>    H        5.80800         4.98600        -1.95600
| 93>    H        4.78800        -2.28100        -0.18500
| 94>    H        4.86000         2.11400         1.91200
| 95>    H        6.90100         3.53100         1.77200
| 96>    H        7.38300         6.10900         0.35600
| 97>    H        8.41400         4.65200         0.43500
| 98>    H        7.92100         5.31000        -1.15000
| 99>    H        5.28300         0.33600        -0.17900
|100>    H        3.72000         3.63200        -1.96700
|101> *
|102> 
|103>                          ****END OF INPUT****
================================================================================

                       ****************************
                       * Single Point Calculation *
                       ****************************

---------------------------------
CARTESIAN COORDINATES (ANGSTROEM)
---------------------------------
  C     -3.035000    6.495000    0.045000
  C      1.474000    4.041000    0.057000
  C     -2.802000    4.093000    0.049000
  C     -4.201000    4.009000    0.119000
  C     -4.965000    5.159000    0.146000
  C     -5.228000    7.592000    0.105000
  C      0.132000    4.307000    0.061000
  C     -0.569000    3.056000    0.047000
  C      1.649000    2.618000    0.023000
  C     -2.229000    5.374000    0.009000
  N     -4.380000    6.379000    0.113000
  N      0.388000    2.067000    0.025000
  N     -2.010000    0.395000   -0.075000
  N     -0.388000   -2.074000   -0.027000
  N      2.010000   -0.401000    0.065000
  C     -1.960000    2.861000    0.024000
  C     -2.623000    1.615000   -0.018000
  C     -5.573000   -4.329000    1.066000
  C     -4.073000    1.471000    0.056000
  C     -4.106000   -2.756000   -0.026000
  C     -4.995000   -2.757000   -1.111000
  C     -6.132000   -3.542000   -1.076000
  C     -7.651000   -5.113000    0.040000
  C     -4.324000    0.141000    0.037000
  C     -3.025000   -0.520000   -0.048000
  C     -4.422000   -3.566000    1.075000
  N     -6.407000   -4.313000    0.001000
  C     -2.867000   -1.922000   -0.040000
  C     -1.650000   -2.624000   -0.027000
  C      3.568000   -6.142000   -1.040000
  C     -1.476000   -4.049000   -0.034000
  C      2.803000   -4.099000   -0.008000
  C      3.657000   -4.384000    1.069000
  C      4.427000   -5.530000    1.059000
  C      5.245000   -7.588000    0.014000
  C     -0.134000   -4.315000   -0.022000
  C      0.568000   -3.064000   -0.027000
  C      2.775000   -5.012000   -1.074000
  N      4.376000   -6.391000    0.017000
  C      1.959000   -2.869000   -0.009000
  C      2.621000   -1.622000    0.009000
  C      5.543000    4.339000   -1.130000
  C      4.070000   -1.479000   -0.094000
  C      4.104000    2.751000   -0.021000
  C      5.027000    2.729000    1.036000
  C      6.166000    3.509000    0.978000
  C      7.619000    5.153000   -0.115000
  C      4.321000   -0.148000   -0.092000
  C      3.025000    0.514000    0.015000
  C      4.387000    3.582000   -1.115000
  C      2.866000    1.916000    0.013000
  N      6.413000    4.296000   -0.095000
  H     -2.636000    7.502000    0.029000
  H      2.274000    4.766000    0.081000
  H     -4.703000    3.049000    0.143000
  H     -6.046000    5.144000    0.191000
  H     -5.517000    7.817000   -0.924000
  H     -6.114000    7.404000    0.711000
  H     -4.658000    8.421000    0.524000
  H     -0.332000    5.282000    0.069000
  H     -1.154000    5.505000   -0.031000
  H      0.182000    1.072000    0.005000
  H     -0.183000   -1.080000   -0.021000
  H     -5.864000   -4.962000    1.895000
  H     -4.794000    2.272000    0.139000
  H     -4.800000   -2.160000   -1.994000
  H     -6.841000   -3.582000   -1.893000
  H     -8.428000   -4.536000    0.546000
  H     -7.956000   -5.337000   -0.981000
  H     -7.456000   -6.037000    0.584000
  H     -5.287000   -0.344000    0.100000
  H     -3.780000   -3.601000    1.947000
  H      3.587000   -6.868000   -1.843000
  H     -2.276000   -4.774000   -0.050000
  H      3.714000   -3.724000    1.926000
  H      5.092000   -5.795000    1.871000
  H      6.205000   -7.329000   -0.439000
  H      5.393000   -7.917000    1.042000
  H      4.759000   -8.373000   -0.564000
  H      0.329000   -5.290000   -0.008000
  H      2.146000   -4.842000   -1.940000
  H      5.808000    4.986000   -1.956000
  H      4.788000   -2.281000   -0.185000
  H      4.860000    2.114000    1.912000
  H      6.901000    3.531000    1.772000
  H      7.383000    6.109000    0.356000
  H      8.414000    4.652000    0.435000
  H      7.921000    5.310000   -1.150000
  H      5.283000    0.336000   -0.179000
  H      3.720000    3.632000   -1.967000

----------------------------
CARTESIAN COORDINATES (A.U.)
----------------------------
  NO LB      ZA    FRAG     MASS         X           Y           Z
   0 C     6.0000    0    12.011   -5.735319   12.273771    0.085038
   1 C     6.0000    0    12.011    2.785456    7.636383    0.107714
   2 C     6.0000    0    12.011   -5.295013    7.734649    0.092597
   3 C     6.0000    0    12.011   -7.938739    7.575912    0.224877
   4 C     6.0000    0    12.011   -9.382490    9.749097    0.275900
   5 C     6.0000    0    12.011   -9.879488   14.346801    0.198421
   6 C     6.0000    0    12.011    0.249444    8.139050    0.115273
   7 C     6.0000    0    12.011   -1.075254    5.775003    0.088817
   8 C     6.0000    0    12.011    3.116158    4.947303    0.043464
   9 C     6.0000    0    12.011   -4.212200   10.155388    0.017008
  10 N     7.0000    0    14.007   -8.277000   12.054563    0.213539
  11 N     7.0000    0    14.007    0.733214    3.906064    0.047243
  12 N     7.0000    0    14.007   -3.798350    0.746442   -0.141729
  13 N     7.0000    0    14.007   -0.733214   -3.919292   -0.051023
  14 N     7.0000    0    14.007    3.798350   -0.757780    0.122832
  15 C     6.0000    0    12.011   -3.703863    5.406506    0.045353
  16 C     6.0000    0    12.011   -4.956752    3.051908   -0.034015
  17 C     6.0000    0    12.011  -10.531444   -8.180624    2.014448
  18 C     6.0000    0    12.011   -7.696855    2.779787    0.105825
  19 C     6.0000    0    12.011   -7.759216   -5.208085   -0.049133
  20 C     6.0000    0    12.011   -9.439182   -5.209975   -2.099486
  21 C     6.0000    0    12.011  -11.587801   -6.693410   -2.033345
  22 C     6.0000    0    12.011  -14.458295   -9.662170    0.075589
  23 C     6.0000    0    12.011   -8.171176    0.266451    0.069920
  24 C     6.0000    0    12.011   -5.716422   -0.982658   -0.090707
  25 C     6.0000    0    12.011   -8.356369   -6.738763    2.031456
  26 N     7.0000    0    14.007  -12.107475   -8.150389    0.001890
  27 C     6.0000    0    12.011   -5.417845   -3.632054   -0.075589
  28 C     6.0000    0    12.011   -3.118048   -4.958641   -0.051023
  29 C     6.0000    0    12.011    6.742543  -11.606698   -1.965315
  30 C     6.0000    0    12.011   -2.789236   -7.651501   -0.064251
  31 C     6.0000    0    12.011    5.296902   -7.745987   -0.015118
  32 C     6.0000    0    12.011    6.910728   -8.284559    2.020117
  33 C     6.0000    0    12.011    8.365818  -10.450186    2.001220
  34 C     6.0000    0    12.011    9.911614  -14.339242    0.026456
  35 C     6.0000    0    12.011   -0.253223   -8.154168   -0.041574
  36 C     6.0000    0    12.011    1.073364   -5.790121   -0.051023
  37 C     6.0000    0    12.011    5.243990   -9.471307   -2.029566
  38 N     7.0000    0    14.007    8.269442  -12.077240    0.032125
  39 C     6.0000    0    12.011    3.701973   -5.421624   -0.017008
  40 C     6.0000    0    12.011    4.952972   -3.065136    0.017008
  41 C     6.0000    0    12.011   10.474752    8.199522   -2.135391
  42 C     6.0000    0    12.011    7.691185   -2.794905   -0.177634
  43 C     6.0000    0    12.011    7.755436    5.198637   -0.039684
  44 C     6.0000    0    12.011    9.499653    5.157063    1.957756
  45 C     6.0000    0    12.011   11.652051    6.631049    1.848152
  46 C     6.0000    0    12.011   14.397823    9.737759   -0.217319
  47 C     6.0000    0    12.011    8.165507   -0.279679   -0.173855
  48 C     6.0000    0    12.011    5.716422    0.971319    0.028346
  49 C     6.0000    0    12.011    8.290229    6.768999   -2.107045
  50 C     6.0000    0    12.011    5.415955    3.620715    0.024566
  51 N     7.0000    0    14.007   12.118814    8.118263   -0.179524
  52 H     1.0000    0     1.008   -4.981318   14.176725    0.054802
  53 H     1.0000    0     1.008    4.297237    9.006435    0.153068
  54 H     1.0000    0     1.008   -8.887382    5.761775    0.270231
  55 H     1.0000    0     1.008  -11.425284    9.720751    0.360938
  56 H     1.0000    0     1.008  -10.425619   14.771989   -1.746107
  57 H     1.0000    0     1.008  -11.553786   13.991532    1.343595
  58 H     1.0000    0     1.008   -8.802344   15.913384    0.990216
  59 H     1.0000    0     1.008   -0.627389    9.981533    0.130391
  60 H     1.0000    0     1.008   -2.180744   10.402942   -0.058582
  61 H     1.0000    0     1.008    0.343930    2.025786    0.009449
  62 H     1.0000    0     1.008   -0.345820   -2.040904   -0.039684
  63 H     1.0000    0     1.008  -11.081354   -9.376821    3.581031
  64 H     1.0000    0     1.008   -9.059347    4.293458    0.262672
  65 H     1.0000    0     1.008   -9.070685   -4.081808   -3.768114
  66 H     1.0000    0     1.008  -12.927616   -6.768999   -3.577252
  67 H     1.0000    0     1.008  -15.926612   -8.571798    1.031790
  68 H     1.0000    0     1.008  -15.034661  -10.085468   -1.853821
  69 H     1.0000    0     1.008  -14.089798  -11.408277    1.103600
  70 H     1.0000    0     1.008   -9.990982   -0.650066    0.188973
  71 H     1.0000    0     1.008   -7.143165   -6.804904    3.679297
  72 H     1.0000    0     1.008    6.778448  -12.978639   -3.482765
  73 H     1.0000    0     1.008   -4.301017   -9.021553   -0.094486
  74 H     1.0000    0     1.008    7.018443   -7.037340    3.639613
  75 H     1.0000    0     1.008    9.622485  -10.950963    3.535678
  76 H     1.0000    0     1.008   11.725751  -13.849803   -0.829590
  77 H     1.0000    0     1.008   10.191293  -14.960962    1.969095
  78 H     1.0000    0     1.008    8.993207  -15.822677   -1.065806
  79 H     1.0000    0     1.008    0.621720   -9.996651   -0.015118
  80 H     1.0000    0     1.008    4.055352   -9.150054   -3.666069
  81 H     1.0000    0     1.008   10.975529    9.422175   -3.696304
  82 H     1.0000    0     1.008    9.048009   -4.310465   -0.349599
  83 H     1.0000    0     1.008    9.184069    3.994881    3.613156
  84 H     1.0000    0     1.008   13.041000    6.672623    3.348595
  85 H     1.0000    0     1.008   13.951848   11.544337    0.672743
  86 H     1.0000    0     1.008   15.900156    8.791006    0.822031
  87 H     1.0000    0     1.008   14.968521   10.034446   -2.173185
  88 H     1.0000    0     1.008    9.983423    0.634948   -0.338261
  89 H     1.0000    0     1.008    7.029781    6.863485   -3.717091

--------------------------------
INTERNAL COORDINATES (ANGSTROEM)
--------------------------------
 C      0   0   0     0.000000000000     0.00000000     0.00000000
 C      1   0   0     5.133550525708     0.00000000     0.00000000
 C      1   2   0     2.413277646687    55.90237718     0.00000000
 C      3   1   2     1.403266546313    87.90294395   177.03784356
 C      4   3   1     1.380914552027   120.17873605     0.16666150
 C      5   4   3     2.447516904947   152.49432461     1.57811873
 C      2   1   3     1.368114030335    17.34823978   359.03342173
 C      7   2   1     1.434084376876   108.05010202   178.37163175
 C      2   1   3     1.434123425651   125.55249464     1.78961773
 C      1   2   3     1.381149159215    25.77554088   356.26164130
 N      1   2   3     1.351704479537   146.39177201     5.39302038
 N      9   2   1     1.376127174356   106.58526707   358.37260320
 N     12   9   2     2.925062050624   168.53581413   171.12065651
 N     13  12   9     2.954513327098    91.55032014    11.12112580
 N     14  13  12     2.925371258490    88.43092389   359.84326247
 C      8   7   2     1.404790019896   127.24786865   181.11170171
 C     13  12   9     1.366535034311    81.72106996   188.00453233
 C     14  13  12     5.758810554272    80.56209567   166.76250791
 C     17  13  12     1.459010623676   111.08861209   183.82872609
 C     18  14  13     2.412235892279    27.27532823    36.33507194
 C     20  18  14     1.402692767501    87.95206320   148.94598259
 C     21  20  18     1.382106725257   120.14573887   359.70382047
 C     18  14  13     2.446510985056   144.15733107    82.80075377
 C     19  17  13     1.353610726908   106.29293361   359.75308708
 C     13  12   9     1.366813447402   172.21332906    33.46711076
 C     18  14  13     1.380960173213    15.08449437   309.23336894
 N     22  21  20     1.352773077792   120.73759875     0.27865223
 C     25  13  17     1.410897586645   125.60330303   182.37774668
 C     14  13  12     1.376642291955    80.24689249   177.85461986
 C     14  13  12     5.764089607215   164.51507311   312.20821879
 C     29  14  13     1.435600919476   106.58649366   178.76395472
 C     30  14  13     2.413316804732    27.10625047    82.12560436
 C     32  30  14     1.403734305344    87.90059683   149.76154742
 C     33  32  30     1.380694028378   120.14881443   359.74174632
 C     34  33  32     2.448777858443   152.49203239     2.45173620
 C     31  29  14     1.368160809262   108.16950133     0.70383075
 C     14  13  12     1.376239804685   169.26375223   353.09862627
 C     30  14  13     1.380907310430    14.68948582   353.70041132
 N     34  33  32     1.352658863128   120.85575621     0.19603406
 C     37  14  29     1.404717053360   126.01551127   180.90772073
 C     15  14  13     1.366491126938    81.61824056   183.09049352
 C      2   1   3     4.249062720177   143.79794855   151.58842273
 C     41  15  14     1.459677704153   111.05201287   175.08990246
 C     42   2   1     2.412953791518    41.78584867   180.55167478
 C     44  42   2     1.403446472082    87.95153797   233.97558675
 C     45  44  42     1.381696421071   120.11137308     0.19721020
 C     42   2   1     2.450019795838   135.97209175    90.86652388
 C     43  41  15     1.354461516618   106.26758155     0.30894352
 C     15  14  13     1.367461151185   171.87382904   332.35056460
 C     42   2   1     1.381886391857    32.59078432   229.40695397
 C      9   2   1     1.404988612053   126.98745415   179.37694073
 N     42   2   1     1.352765315936   113.57249190   118.60311307
 H      1   2   3     1.083284819427    96.94344841   180.81221350
 H      2   1   3     1.079907866440   109.25669616   181.32615299
 H      4   3   1     1.083595865625   121.06440362   179.55953245
 H      5   4   3     1.082040202580   122.81942874   179.45753630
 H      6   5   4     1.092239442613   104.41780636   100.13043126
 H      6   5   4     1.089759606519    84.63828065   209.57750064
 H      6   5   4     1.089817415900   133.90969019   322.36870743
 H      7   2   1     1.079807853278   126.66122480   358.61004553
 H     60   7   2     0.857562242639   130.22735443   170.95803908
 H     12   9   2     1.016297692608   125.29023241   180.00180175
 H     14  13  12     1.014936943854    44.97226959   359.42596618
 H     18  14  13     1.082871645210   128.03556573   234.20482432
 H     55   4   3     0.782320906023   159.01726017   358.44211476
 H     21  20  18     1.083569563987   121.05669627   180.67006309
 H     22  21  20     1.082483256222   122.73097286   180.59748951
 H     23  18  14     1.092105306278   103.92715769   234.93429879
 H     23  18  14     1.088871893291   134.19244188    12.25587044
 H     23  18  14     1.089833473518    84.85857450   125.45241208
 H     24  19  17     1.080075460327   127.28078426   178.44613241
 H     26  18  14     1.083408048706   118.76995697   244.94906660
 H     30  14  13     1.082703098730   127.99711412   279.66882698
 H     31  29  14     1.079759695488   125.22293469   180.92530585
 H     33  32  30     1.083188810873   121.01964473   180.74284758
 H     34  33  32     1.082494341787   122.70821597   180.59516895
 H     35  34  33     1.092652735319   105.73575241    97.19771933
 H     35  34  33     1.089462711615    84.05943581   206.43036958
 H     35  34  33     1.089268102902   133.08365142   318.50306270
 H     36  31  29     1.079439669458   126.61599965   178.98859863
 H     38  30  73     1.083742127999   118.77264435   359.90091293
 H     42   2   1     1.082178358682   119.31790784   335.23464353
 H     43  41  15     1.080281907652   126.36969097   182.06329380
 H     45  44  42     1.083277434455   121.10105945   179.58025624
 H     46  45  44     1.082194529648   122.72144639   179.46906377
 H     47  42   2     1.091546151109   106.65128841   315.16475048
 H     47  42   2     1.088818625851   132.46019523    94.52397119
 H     47  42   2     1.089531091801    83.63838232   206.04504406
 H     48  43  41     1.080402239909   127.23657387   181.62955349
 H     50  42   2     1.083186502870   118.77001737    94.71359229

---------------------------
INTERNAL COORDINATES (A.U.)
---------------------------
 C      0   0   0     0.000000000000     0.00000000     0.00000000
 C      1   0   0     9.701004588236     0.00000000     0.00000000
 C      1   2   0     4.560433837353    55.90237718     0.00000000
 C      3   1   2     2.651789465424    87.90294395   177.03784356
 C      4   3   1     2.609550317678   120.17873605     0.16666150
 C      5   4   3     4.625136658492   152.49432461     1.57811873
 C      2   1   3     2.585360837309    17.34823978   359.03342173
 C      7   2   1     2.710026725231   108.05010202   178.37163175
 C      2   1   3     2.710100516721   125.55249464     1.78961773
 C      1   2   3     2.609993661012    25.77554088   356.26164130
 N      1   2   3     2.554351280319   146.39177201     5.39302038
 N      9   2   1     2.600503484979   106.58526707   358.37260320
 N     12   9   2     5.527566200405   168.53581413   171.12065651
 N     13  12   9     5.583221047236    91.55032014    11.12112580
 N     14  13  12     5.528150518591    88.43092389   359.84326247
 C      8   7   2     2.654668413270   127.24786865   181.11170171
 C     13  12   9     2.582376967257    81.72106996   188.00453233
 C     14  13  12    10.882574804710    80.56209567   166.76250791
 C     17  13  12     2.757130505230   111.08861209   183.82872609
 C     18  14  13     4.558465206823    27.27532823    36.33507194
 C     20  18  14     2.650705180609    87.95206320   148.94598259
 C     21  20  18     2.611803198586   120.14573887   359.70382047
 C     18  14  13     4.623235745386   144.15733107    82.80075377
 C     19  17  13     2.557953565794   106.29293361   359.75308708
 C     13  12   9     2.582903091751   172.21332906    33.46711076
 C     18  14  13     2.609636529225    15.08449437   309.23336894
 N     22  21  20     2.556370638369   120.73759875     0.27865223
 C     25  13  17     2.666210041769   125.60330303   182.37774668
 C     14  13  12     2.601476916169    80.24689249   177.85461986
 C     14  13  12    10.892550769017   164.51507311   312.20821879
 C     29  14  13     2.712892575415   106.58649366   178.76395472
 C     30  14  13     4.560507835333    27.10625047    82.12560436
 C     32  30  14     2.652673401891    87.90059683   149.76154742
 C     33  32  30     2.609133588376   120.14881443   359.74174632
 C     34  33  32     4.627519515267   152.49203239     2.45173620
 C     31  29  14     2.585449236669   108.16950133     0.70383075
 C     14  13  12     2.600716325456   169.26375223   353.09862627
 C     30  14  13     2.609536633043    14.68948582   353.70041132
 N     34  33  32     2.556154803934   120.85575621     0.19603406
 C     37  14  29     2.654530526499   126.01551127   180.90772073
 C     15  14  13     2.582293994346    81.61824056   183.09049352
 C      2   1   3     8.029564866989   143.79794855   151.58842273
 C     41  15  14     2.758391104639   111.05201287   175.08990246
 C     42   2   1     4.559821839776    41.78584867   180.55167478
 C     44  42   2     2.652129475853    87.95153797   233.97558675
 C     45  44  42     2.611027836043   120.11137308     0.19721020
 C     42   2   1     4.629866436820   135.97209175    90.86652388
 C     43  41  15     2.559561325344   106.26758155     0.30894352
 C     15  14  13     2.584127074516   171.87382904   332.35056460
 C     42   2   1     2.611386828803    32.59078432   229.40695397
 C      9   2   1     2.655043698059   126.98745415   179.37694073
 N     42   2   1     2.556355970587   113.57249190   118.60311307
 H      1   2   3     2.047111633751    96.94344841   180.81221350
 H      2   1   3     2.040730117440   109.25669616   181.32615299
 H      4   3   1     2.047699425881   121.06440362   179.55953245
 H      5   4   3     2.044759648769   122.81942874   179.45753630
 H      6   5   4     2.064033419206   104.41780636   100.13043126
 H      6   5   4     2.059347208130    84.63828065   209.57750064
 H      6   5   4     2.059456452030   133.90969019   322.36870743
 H      7   2   1     2.040541119952   126.66122480   358.61004553
 H     60   7   2     1.620557781379   130.22735443   170.95803908
 H     12   9   2     1.920524309565   125.29023241   180.00180175
 H     14  13  12     1.917952867083    44.97226959   359.42596618
 H     18  14  13     2.046330847636   128.03556573   234.20482432
 H     55   4   3     1.478372261224   159.01726017   358.44211476
 H     21  20  18     2.047649722989   121.05669627   180.67006309
 H     22  21  20     2.045596898814   122.73097286   180.59748951
 H     23  18  14     2.063779938267   103.92715769   234.93429879
 H     23  18  14     2.057669673245   134.19244188    12.25587044
 H     23  18  14     2.059486796529    84.85857450   125.45241208
 H     24  19  17     2.041046823986   127.28078426   178.44613241
 H     26  18  14     2.047344503340   118.76995697   244.94906660
 H     30  14  13     2.046012340948   127.99711412   279.66882698
 H     31  29  14     2.040450114918   125.22293469   180.92530585
 H     33  32  30     2.046930203877   121.01964473   180.74284758
 H     34  33  32     2.045617847496   122.70821597   180.59516895
 H     35  34  33     2.064814429233   105.73575241    97.19771933
 H     35  34  33     2.058786158072    84.05943581   206.43036958
 H     35  34  33     2.058418400901   133.08365142   318.50306270
 H     36  31  29     2.039845353366   126.61599965   178.98859863
 H     38  30  73     2.047975821711   118.77264435   359.90091293
 H     42   2   1     2.045020725966   119.31790784   335.23464353
 H     43  41  15     2.041436952892   126.36969097   182.06329380
 H     45  44  42     2.047097678177   121.10105945   179.58025624
 H     46  45  44     2.045051284662   122.72144639   179.46906377
 H     47  42   2     2.062723288131   106.65128841   315.16475048
 H     47  42   2     2.057569012371   132.46019523    94.52397119
 H     47  42   2     2.058915377895    83.63838232   206.04504406
 H     48  43  41     2.041664347903   127.23657387   181.62955349
 H     50  42   2     2.046925842384   118.77001737    94.71359229

---------------------
BASIS SET INFORMATION
---------------------
There are 3 groups of distinct atoms

 Group   1 Type C   : 17s4p1d contracted to 3s2p1d pattern {881/31/1}
 Group   2 Type N   : 17s4p1d contracted to 3s2p1d pattern {881/31/1}
 Group   3 Type H   : 4s1p contracted to 2s1p pattern {31/1}

Atom   0C    basis set group =>   1
Atom   1N    basis set group =>   2
Atom   2C    basis set group =>   1
Atom   3N    basis set group =>   2
Atom   4C    basis set group =>   1
Atom   5N    basis set group =>   2
Atom   6C    basis set group =>   1
Atom   7N    basis set group =>   2
Atom   8C    basis set group =>   1
Atom   9N    basis set group =>   2
Atom  10C    basis set group =>   1
Atom  11N    basis set group =>   2
Atom  12C    basis set group =>   1
Atom  13N    basis set group =>   2
Atom  14C    basis set group =>   1
Atom  15N    basis set group =>   2
Atom  16C    basis set group =>   1
Atom  17C    basis set group =>   1
Atom  18C    basis set group =>   1
Atom  19C    basis set group =>   1
Atom  20C    basis set group =>   1
Atom  21C    basis set group =>   1
Atom  22C    basis set group =>   1
Atom  23C    basis set group =>   1
Atom  24C    basis set group =>   1
Atom  25C    basis set group =>   1
Atom  26C    basis set group =>   1
Atom  27C    basis set group =>   1
Atom  28C    basis set group =>   1
Atom  29C    basis set group =>   1
Atom  30C    basis set group =>   1
Atom  31C    basis set group =>   1
Atom  32C    basis set group =>   1
Atom  33C    basis set group =>   1
Atom  34C    basis set group =>   1
Atom  35C    basis set group =>   1
Atom  36C    basis set group =>   1
Atom  37C    basis set group =>   1
Atom  38C    basis set group =>   1
Atom  39C    basis set group =>   1
Atom  40C    basis set group =>   1
Atom  41C    basis set group =>   1
Atom  42C    basis set group =>   1
Atom  43C    basis set group =>   1
Atom  44C    basis set group =>   1
Atom  45C    basis set group =>   1
Atom  46C    basis set group =>   1
Atom  47C    basis set group =>   1
Atom  48C    basis set group =>   1
Atom  49C    basis set group =>   1
Atom  50C    basis set group =>   1
Atom  51C    basis set group =>   1
Atom  52H    basis set group =>   3
Atom  53H    basis set group =>   3
Atom  54H    basis set group =>   3
Atom  55H    basis set group =>   3
Atom  56H    basis set group =>   3
Atom  57H    basis set group =>   3
Atom  58H    basis set group =>   3
Atom  59H    basis set group =>   3
Atom  60H    basis set group =>   3
Atom  61H    basis set group =>   3
Atom  62H    basis set group =>   3
Atom  63H    basis set group =>   3
Atom  64H    basis set group =>   3
Atom  65H    basis set group =>   3
Atom  66H    basis set group =>   3
Atom  67H    basis set group =>   3
Atom  68H    basis set group =>   3
Atom  69H    basis set group =>   3
Atom  70H    basis set group =>   3
Atom  71H    basis set group =>   3
Atom  72H    basis set group =>   3
Atom  73H    basis set group =>   3
Atom  74H    basis set group =>   3
Atom  75H    basis set group =>   3
Atom  76H    basis set group =>   3
Atom  77H    basis set group =>   3
Atom  78H    basis set group =>   3
Atom  79H    basis set group =>   3
Atom  80H    basis set group =>   3
Atom  81H    basis set group =>   3
Atom  82H    basis set group =>   3
Atom  83H    basis set group =>   3
Atom  84H    basis set group =>   3
Atom  85H    basis set group =>   3
Atom  86H    basis set group =>   3
Atom  87H    basis set group =>   3
Atom  88H    basis set group =>   3
Atom  89H    basis set group =>   3


           ************************************************************
           *        Program running with 16 parallel MPI-processes    *
           *              working on a common directory               *
           ************************************************************
------------------------------------------------------------------------------
                           ORCA GTO INTEGRAL CALCULATION
------------------------------------------------------------------------------
------------------------------------------------------------------------------
                   ___                                                        
                  /   \      - P O W E R E D   B Y -                         
                 /     \                                                     
                 |  |  |   _    _      __       _____    __    __             
                 |  |  |  | |  | |    /  \     |  _  \  |  |  /  |          
                  \  \/   | |  | |   /    \    | | | |  |  | /  /          
                 / \  \   | |__| |  /  /\  \   | |_| |  |  |/  /          
                |  |  |   |  __  | /  /__\  \  |    /   |      \           
                |  |  |   | |  | | |   __   |  |    \   |  |\   \          
                \     /   | |  | | |  |  |  |  | |\  \  |  | \   \       
                 \___/    |_|  |_| |__|  |__|  |_| \__\ |__|  \__/        
                                                                              
                      - O R C A' S   B I G   F R I E N D -                    
                                      &                                       
                       - I N T E G R A L  F E E D E R -                       
                                                                              
 v1 FN, 2020, v2 2021                                                         
------------------------------------------------------------------------------


Reading SHARK input file /scratch/allen/tmpyp4_amber_gaff2/conf1/conf1/Conf5.orca.SHARKINP.tmp ... ok
----------------------
SHARK INTEGRAL PACKAGE
----------------------

Number of atoms                             ...     90
Number of basis functions                   ...   1230
Number of shells                            ...    738
Maximum angular momentum                    ...      2
Integral batch strategy                     ... SHARK/LIBINT Hybrid
RI-J (if used) integral strategy            ... SPLIT-RIJ (Revised 2003 algorithm where possible)
Printlevel                                  ...      1
Contraction scheme used                     ... PARTIAL GENERAL contraction
Coulomb Range Separation                    ... NOT USED
Exchange Range Separation                   ... NOT USED
Finite Nucleus Model                        ... NOT USED
Auxiliary Coulomb fitting basis             ... NOT available
Auxiliary J/K fitting basis                 ... NOT available
Auxiliary Correlation fitting basis         ... NOT available
Auxiliary 'external' fitting basis          ... NOT available
Integral threshold                          ...     2.500000e-11
Primitive cut-off                           ...     2.500000e-12
Primitive pair pre-selection threshold      ...     2.500000e-12

Calculating pre-screening integrals         ... done (  0.1 sec) Dimension = 738
Calculating pre-screening integrals (ORCA)  ... done (  0.3 sec) Dimension = 426
Organizing shell pair data                  ... done (  0.8 sec)
Shell pair information
Total number of shell pairs                 ...    272691
Shell pairs after pre-screening             ...     71742
Total number of primitive shell pairs       ...    422091
Primitive shell pairs kept                  ...     92639
          la=0 lb=0:  29447 shell pairs
          la=1 lb=0:  26042 shell pairs
          la=1 lb=1:   4700 shell pairs
          la=2 lb=0:   7894 shell pairs
          la=2 lb=1:   3130 shell pairs
          la=2 lb=2:    529 shell pairs

Calculating one electron integrals          ... done (  0.3 sec)
Calculating Nuclear repulsion               ... done (  0.0 sec) ENN=   6235.856154659088 Eh

SHARK setup successfully completed in   2.3 seconds

Maximum memory used throughout the entire GTOINT-calculation: 99.1 MB


           ************************************************************
           *        Program running with 16 parallel MPI-processes    *
           *              working on a common directory               *
           ************************************************************
-------------------------------------------------------------------------------
                                 ORCA SCF
-------------------------------------------------------------------------------

------------
SCF SETTINGS
------------
Hamiltonian:
 Ab initio Hamiltonian  Method          .... Hartree-Fock(GTOs)


General Settings:
 Integral files         IntName         .... /scratch/allen/tmpyp4_amber_gaff2/conf1/conf1/Conf5.orca
 Hartree-Fock type      HFTyp           .... RHF
 Total Charge           Charge          ....    0
 Multiplicity           Mult            ....    1
 Number of Electrons    NEL             ....  358
 Basis Dimension        Dim             ....  918
 Nuclear Repulsion      ENuc            ....   6235.8561546591 Eh

Convergence Acceleration:
 DIIS                   CNVDIIS         .... on
   Start iteration      DIISMaxIt       ....    12
   Startup error        DIISStart       ....  0.200000
   # of expansion vecs  DIISMaxEq       ....     5
   Bias factor          DIISBfac        ....   1.050
   Max. coefficient     DIISMaxC        ....  10.000
 Trust-Rad. Augm. Hess. CNVTRAH         .... auto
   Auto Start mean grad. ratio tolernc. ....  1.125000
   Auto Start start iteration           ....    20
   Auto Start num. interpolation iter.  ....    10
   Max. Number of Micro iterations      ....    16
   Max. Number of Macro iterations      .... Maxiter - #DIIS iter
   Number of Davidson start vectors     ....     2
   Converg. threshold I  (grad. norm)   ....   1.000e-05
   Converg. threshold II (energy diff.) ....   1.000e-08
   Grad. Scal. Fac. for Micro threshold ....   0.100
   Minimum threshold for Micro iter.    ....   0.010
   NR start threshold (gradient norm)   ....   0.001
   Initial trust radius                 ....   0.400
   Minimum AH scaling param. (alpha)    ....   1.000
   Maximum AH scaling param. (alpha)    .... 1000.000
   Orbital update algorithm             .... Taylor
   White noise on init. David. guess    .... on
   Maximum white noise                  ....   0.010
   Quad. conv. algorithm                .... NR
 SOSCF                  CNVSOSCF        .... on
   Start iteration      SOSCFMaxIt      ....   150
   Startup grad/error   SOSCFStart      ....  0.003300
 Level Shifting         CNVShift        .... on
   Level shift para.    LevelShift      ....    0.2500
   Turn off err/grad.   ShiftErr        ....    0.0010
 Zerner damping         CNVZerner       .... off
 Static damping         CNVDamp         .... on
   Fraction old density DampFac         ....    0.7000
   Max. Damping (<1)    DampMax         ....    0.9800
   Min. Damping (>=0)   DampMin         ....    0.0000
   Turn off err/grad.   DampErr         ....    0.1000
 Fernandez-Rico         CNVRico         .... off

SCF Procedure:
 Maximum # iterations   MaxIter         ....   125
 SCF integral mode      SCFMode         .... Direct
   Integral package                     .... SHARK and LIBINT hybrid scheme
 Reset frequency        DirectResetFreq ....    20
 Integral Threshold     Thresh          ....  2.500e-11 Eh
 Primitive CutOff       TCut            ....  2.500e-12 Eh

Convergence Tolerance:
 Convergence Check Mode ConvCheckMode   .... Total+1el-Energy
 Convergence forced     ConvForced      .... 1
 Energy Change          TolE            ....  1.000e-08 Eh
 1-El. energy change                    ....  1.000e-05 Eh
 Orbital Gradient       TolG            ....  1.000e-05
 Orbital Rotation angle TolX            ....  1.000e-05
 DIIS Error             TolErr          ....  5.000e-07


Diagonalization of the overlap matrix:
Smallest eigenvalue                        ... 1.620e-04
Time for diagonalization                   ...    0.447 sec
Threshold for overlap eigenvalues          ... 1.000e-08
Number of eigenvalues below threshold      ... 0
Time for construction of square roots      ...    0.254 sec
Total time needed                          ...    0.707 sec

Time for model grid setup =    1.065 sec

------------------------------
INITIAL GUESS: MODEL POTENTIAL
------------------------------
Loading Hartree-Fock densities                     ... done
Calculating cut-offs                               ... done
Initializing the effective Hamiltonian             ... done
Setting up the integral package (SHARK)            ... done
Starting the Coulomb interaction                   ... done (   1.2 sec)
Reading the grid                                   ... done
Mapping shells                                     ... done
Starting the XC term evaluation                    ... done (   0.2 sec)
Transforming the Hamiltonian                       ... done (   0.2 sec)
Diagonalizing the Hamiltonian                      ... done (   0.3 sec)
Back transforming the eigenvectors                 ... done (   0.1 sec)
Now organizing SCF variables                       ... done
                      ------------------
                      INITIAL GUESS DONE (   3.2 sec)
                      ------------------
--------------
SCF ITERATIONS
--------------
ITER       Energy         Delta-E        Max-DP      RMS-DP      [F,P]     Damp
               ***  Starting incremental Fock matrix formation  ***
  0  -2121.5486558059   0.000000000000 0.07971540  0.00130004  0.2310400 0.7000
  1  -2122.1861339399  -0.637478134035 0.06103331  0.00104316  0.1434347 0.7000
                               ***Turning on DIIS***
  2  -2122.5847689870  -0.398635047088 0.14244805  0.00238846  0.0803383 0.0000
  3  -2118.0558414485   4.528927538495 0.04789886  0.00065104  0.0433840 0.0000
  4  -2123.2930647245  -5.237223276006 0.01809989  0.00022439  0.0094195 0.0000
  5  -2123.4114784626  -0.118413738082 0.00805458  0.00013058  0.0048039 0.0000
  6  -2123.3954401315   0.016038331125 0.00411964  0.00008178  0.0022826 0.0000
  7  -2123.4870597808  -0.091619649334 0.00312927  0.00006402  0.0016420 0.0000
  8  -2123.4923915192  -0.005331738404 0.00335121  0.00006129  0.0015394 0.0000
  9  -2123.4667766888   0.025614830342 0.00270099  0.00004417  0.0012399 0.0000
 10  -2123.4739538440  -0.007177155201 0.00544822  0.00009343  0.0009742 0.0000
                      *** Initiating the SOSCF procedure ***
                           *** Shutting down DIIS ***
                      *** Re-Reading the Fockian *** 
                      *** Removing any level shift *** 
ITER      Energy       Delta-E        Grad      Rot      Max-DP    RMS-DP
 11  -2123.36842108   0.1055327666  0.000188  0.000188  0.000251  0.000005
               *** Restarting incremental Fock matrix formation ***
 12  -2123.43425056  -0.0658294782  0.000956  0.006394  0.001518  0.000034
 13  -2123.43436307  -0.0001125184  0.001162  0.031671  0.006916  0.000134
 14  -2123.43454826  -0.0001851828  0.000401  0.002021  0.000633  0.000012
 15  -2123.43456353  -0.0000152760  0.000191  0.002259  0.000489  0.000012
 16  -2123.43457005  -0.0000065178  0.000129  0.001993  0.000507  0.000008
 17  -2123.43457273  -0.0000026781  0.000128  0.002031  0.000293  0.000007
 18  -2123.43457397  -0.0000012365  0.000059  0.001177  0.000210  0.000004
 19  -2123.43457474  -0.0000007708  0.000046  0.001823  0.000265  0.000006
 20  -2123.43457527  -0.0000005299  0.000028  0.001010  0.000143  0.000003
 21  -2123.43457550  -0.0000002333  0.000027  0.001220  0.000174  0.000004
 22  -2123.43457573  -0.0000002296  0.000024  0.001060  0.000163  0.000003
 23  -2123.43457587  -0.0000001387  0.000016  0.000378  0.000065  0.000001
 24  -2123.43457592  -0.0000000504  0.000008  0.000251  0.000053  0.000001
 25  -2123.43457595  -0.0000000304  0.000008  0.000123  0.000040  0.000000
 26  -2123.43457596  -0.0000000141  0.000006  0.000073  0.000028  0.000000
 27  -2123.43457596   0.0000000002  0.000003  0.000059  0.000019  0.000000
                  ***Gradient check signals convergence***
              ***Rediagonalizing the Fockian in SOSCF/NRSCF***

               *****************************************************
               *                     SUCCESS                       *
               *           SCF CONVERGED AFTER  28 CYCLES          *
               *****************************************************


----------------
TOTAL SCF ENERGY
----------------

Total Energy       :        -2123.43457596 Eh          -57781.59237 eV

Components:
Nuclear Repulsion  :         6235.85615466 Eh          169686.27265 eV
Electronic Energy  :        -8359.29073062 Eh         -227467.86502 eV
One Electron Energy:       -15312.11114773 Eh         -416663.72710 eV
Two Electron Energy:         6952.82041711 Eh          189195.86208 eV

Virial components:
Potential Energy   :        -4246.10016620 Eh         -115542.25958 eV
Kinetic Energy     :         2122.66559024 Eh           57760.66721 eV
Virial Ratio       :            2.00036227


---------------
SCF CONVERGENCE
---------------

  Last Energy change         ...   -4.1291e-10  Tolerance :   1.0000e-08
  Last MAX-Density change    ...    9.6888e-06  Tolerance :   1.0000e-07
  Last RMS-Density change    ...    1.6238e-07  Tolerance :   5.0000e-09
  Last Orbital Gradient      ...    1.7615e-06  Tolerance :   1.0000e-05
  Last Orbital Rotation      ...    3.3441e-05  Tolerance :   1.0000e-05

             **** THE GBW FILE WAS UPDATED (/scratch/allen/tmpyp4_amber_gaff2/conf1/conf1/Conf5.orca.gbw) ****
             **** DENSITY /scratch/allen/tmpyp4_amber_gaff2/conf1/conf1/Conf5.orca.scfp WAS UPDATED ****
             **** ENERGY FILE WAS UPDATED (/scratch/allen/tmpyp4_amber_gaff2/conf1/conf1/Conf5.orca.en.tmp) ****
             **** THE GBW FILE WAS UPDATED (/scratch/allen/tmpyp4_amber_gaff2/conf1/conf1/Conf5.orca.gbw) ****
             **** DENSITY /scratch/allen/tmpyp4_amber_gaff2/conf1/conf1/Conf5.orca.scfp WAS UPDATED ****
----------------
ORBITAL ENERGIES
----------------

  NO   OCC          E(Eh)            E(eV) 
   0   2.0000     -15.679661      -426.6653 
   1   2.0000     -15.632941      -425.3939 
   2   2.0000     -15.632485      -425.3815 
   3   2.0000     -15.588213      -424.1768 
   4   2.0000     -15.524778      -422.4507 
   5   2.0000     -15.515317      -422.1932 
   6   2.0000     -15.453823      -420.5199 
   7   2.0000     -15.439357      -420.1263 
   8   2.0000     -11.329203      -308.2833 
   9   2.0000     -11.328342      -308.2599 
  10   2.0000     -11.327834      -308.2460 
  11   2.0000     -11.298781      -307.4555 
  12   2.0000     -11.298714      -307.4536 
  13   2.0000     -11.292172      -307.2756 
  14   2.0000     -11.291793      -307.2653 
  15   2.0000     -11.287020      -307.1354 
  16   2.0000     -11.285647      -307.0981 
  17   2.0000     -11.281895      -306.9960 
  18   2.0000     -11.269593      -306.6612 
  19   2.0000     -11.263196      -306.4871 
  20   2.0000     -11.262195      -306.4599 
  21   2.0000     -11.251258      -306.1623 
  22   2.0000     -11.247517      -306.0605 
  23   2.0000     -11.237212      -305.7801 
  24   2.0000     -11.236762      -305.7678 
  25   2.0000     -11.230396      -305.5946 
  26   2.0000     -11.230224      -305.5899 
  27   2.0000     -11.230052      -305.5852 
  28   2.0000     -11.229716      -305.5761 
  29   2.0000     -11.210689      -305.0584 
  30   2.0000     -11.209160      -305.0167 
  31   2.0000     -11.194207      -304.6099 
  32   2.0000     -11.192268      -304.5571 
  33   2.0000     -11.191087      -304.5250 
  34   2.0000     -11.188550      -304.4559 
  35   2.0000     -11.187974      -304.4402 
  36   2.0000     -11.187001      -304.4138 
  37   2.0000     -11.174263      -304.0671 
  38   2.0000     -11.171835      -304.0011 
  39   2.0000     -11.171256      -303.9853 
  40   2.0000     -11.171094      -303.9809 
  41   2.0000     -11.167959      -303.8956 
  42   2.0000     -11.165455      -303.8275 
  43   2.0000     -11.161893      -303.7305 
  44   2.0000     -11.161275      -303.7137 
  45   2.0000     -11.156871      -303.5939 
  46   2.0000     -11.156214      -303.5760 
  47   2.0000     -11.150555      -303.4220 
  48   2.0000     -11.147340      -303.3345 
  49   2.0000     -11.135786      -303.0201 
  50   2.0000     -11.129692      -302.8543 
  51   2.0000     -11.118149      -302.5402 
  52   2.0000      -1.360256       -37.0144 
  53   2.0000      -1.320347       -35.9285 
  54   2.0000      -1.320172       -35.9237 
  55   2.0000      -1.280173       -34.8353 
  56   2.0000      -1.225832       -33.3566 
  57   2.0000      -1.210326       -32.9347 
  58   2.0000      -1.173497       -31.9325 
  59   2.0000      -1.150753       -31.3136 
  60   2.0000      -1.143509       -31.1165 
  61   2.0000      -1.110165       -30.2091 
  62   2.0000      -1.108820       -30.1725 
  63   2.0000      -1.081936       -29.4410 
  64   2.0000      -1.077404       -29.3177 
  65   2.0000      -1.044788       -28.4301 
  66   2.0000      -1.044592       -28.4248 
  67   2.0000      -1.040951       -28.3257 
  68   2.0000      -1.015374       -27.6297 
  69   2.0000      -1.014742       -27.6125 
  70   2.0000      -1.009106       -27.4592 
  71   2.0000      -0.993215       -27.0268 
  72   2.0000      -0.985673       -26.8215 
  73   2.0000      -0.981657       -26.7122 
  74   2.0000      -0.974063       -26.5056 
  75   2.0000      -0.962391       -26.1880 
  76   2.0000      -0.954978       -25.9863 
  77   2.0000      -0.947140       -25.7730 
  78   2.0000      -0.940119       -25.5820 
  79   2.0000      -0.916693       -24.9445 
  80   2.0000      -0.910498       -24.7759 
  81   2.0000      -0.898551       -24.4508 
  82   2.0000      -0.877241       -23.8709 
  83   2.0000      -0.871679       -23.7196 
  84   2.0000      -0.871217       -23.7070 
  85   2.0000      -0.861918       -23.4540 
  86   2.0000      -0.846647       -23.0384 
  87   2.0000      -0.838246       -22.8098 
  88   2.0000      -0.829572       -22.5738 
  89   2.0000      -0.796249       -21.6670 
  90   2.0000      -0.789485       -21.4830 
  91   2.0000      -0.776502       -21.1297 
  92   2.0000      -0.752931       -20.4883 
  93   2.0000      -0.734216       -19.9790 
  94   2.0000      -0.729309       -19.8455 
  95   2.0000      -0.727142       -19.7865 
  96   2.0000      -0.720531       -19.6066 
  97   2.0000      -0.717929       -19.5358 
  98   2.0000      -0.714327       -19.4378 
  99   2.0000      -0.700391       -19.0586 
 100   2.0000      -0.698161       -18.9979 
 101   2.0000      -0.694763       -18.9055 
 102   2.0000      -0.685306       -18.6481 
 103   2.0000      -0.684245       -18.6193 
 104   2.0000      -0.678771       -18.4703 
 105   2.0000      -0.674482       -18.3536 
 106   2.0000      -0.672860       -18.3094 
 107   2.0000      -0.661142       -17.9906 
 108   2.0000      -0.658098       -17.9078 
 109   2.0000      -0.652687       -17.7605 
 110   2.0000      -0.652078       -17.7439 
 111   2.0000      -0.646107       -17.5815 
 112   2.0000      -0.645699       -17.5704 
 113   2.0000      -0.638014       -17.3612 
 114   2.0000      -0.635414       -17.2905 
 115   2.0000      -0.628938       -17.1143 
 116   2.0000      -0.623265       -16.9599 
 117   2.0000      -0.620680       -16.8896 
 118   2.0000      -0.612733       -16.6733 
 119   2.0000      -0.611991       -16.6531 
 120   2.0000      -0.611662       -16.6442 
 121   2.0000      -0.611450       -16.6384 
 122   2.0000      -0.601704       -16.3732 
 123   2.0000      -0.589376       -16.0377 
 124   2.0000      -0.581216       -15.8157 
 125   2.0000      -0.580916       -15.8075 
 126   2.0000      -0.580186       -15.7877 
 127   2.0000      -0.570974       -15.5370 
 128   2.0000      -0.566549       -15.4166 
 129   2.0000      -0.559999       -15.2383 
 130   2.0000      -0.555793       -15.1239 
 131   2.0000      -0.547655       -14.9024 
 132   2.0000      -0.542604       -14.7650 
 133   2.0000      -0.540050       -14.6955 
 134   2.0000      -0.538411       -14.6509 
 135   2.0000      -0.536298       -14.5934 
 136   2.0000      -0.531871       -14.4729 
 137   2.0000      -0.518019       -14.0960 
 138   2.0000      -0.516478       -14.0541 
 139   2.0000      -0.514331       -13.9957 
 140   2.0000      -0.512014       -13.9326 
 141   2.0000      -0.509780       -13.8718 
 142   2.0000      -0.507092       -13.7987 
 143   2.0000      -0.505747       -13.7621 
 144   2.0000      -0.502457       -13.6726 
 145   2.0000      -0.495517       -13.4837 
 146   2.0000      -0.488239       -13.2857 
 147   2.0000      -0.480966       -13.0877 
 148   2.0000      -0.476521       -12.9668 
 149   2.0000      -0.467737       -12.7278 
 150   2.0000      -0.466126       -12.6839 
 151   2.0000      -0.456255       -12.4153 
 152   2.0000      -0.451491       -12.2857 
 153   2.0000      -0.445215       -12.1149 
 154   2.0000      -0.437924       -11.9165 
 155   2.0000      -0.427794       -11.6409 
 156   2.0000      -0.409065       -11.1312 
 157   2.0000      -0.390755       -10.6330 
 158   2.0000      -0.387722       -10.5505 
 159   2.0000      -0.385201       -10.4818 
 160   2.0000      -0.378362       -10.2957 
 161   2.0000      -0.372769       -10.1436 
 162   2.0000      -0.356460        -9.6998 
 163   2.0000      -0.356317        -9.6959 
 164   2.0000      -0.355651        -9.6778 
 165   2.0000      -0.341836        -9.3018 
 166   2.0000      -0.337450        -9.1825 
 167   2.0000      -0.324634        -8.8337 
 168   2.0000      -0.321706        -8.7541 
 169   2.0000      -0.305018        -8.3000 
 170   2.0000      -0.299299        -8.1443 
 171   2.0000      -0.286028        -7.7832 
 172   2.0000      -0.278140        -7.5686 
 173   2.0000      -0.263527        -7.1709 
 174   2.0000      -0.242344        -6.5945 
 175   2.0000      -0.189937        -5.1684 
 176   2.0000      -0.181390        -4.9359 
 177   2.0000      -0.080093        -2.1794 
 178   2.0000      -0.059662        -1.6235 
 179   0.0000       0.028530         0.7764 
 180   0.0000       0.065488         1.7820 
 181   0.0000       0.090294         2.4570 
 182   0.0000       0.106386         2.8949 
 183   0.0000       0.117219         3.1897 
 184   0.0000       0.137280         3.7356 
 185   0.0000       0.139419         3.7938 
 186   0.0000       0.141038         3.8379 
 187   0.0000       0.164511         4.4766 
 188   0.0000       0.165339         4.4991 
 189   0.0000       0.165616         4.5066 
 190   0.0000       0.175288         4.7698 
 191   0.0000       0.180476         4.9110 
 192   0.0000       0.183884         5.0037 
 193   0.0000       0.189138         5.1467 
 194   0.0000       0.205025         5.5790 
 195   0.0000       0.205553         5.5934 
 196   0.0000       0.208296         5.6680 
 197   0.0000       0.208739         5.6801 
 198   0.0000       0.216646         5.8952 
 199   0.0000       0.227857         6.2003 
 200   0.0000       0.233746         6.3605 
 201   0.0000       0.233865         6.3638 
 202   0.0000       0.239107         6.5064 
 203   0.0000       0.239743         6.5237 
 204   0.0000       0.246351         6.7035 
 205   0.0000       0.255165         6.9434 
 206   0.0000       0.256422         6.9776 
 207   0.0000       0.257809         7.0153 
 208   0.0000       0.259221         7.0538 
 209   0.0000       0.260707         7.0942 
 210   0.0000       0.263927         7.1818 
 211   0.0000       0.265815         7.2332 
 212   0.0000       0.268727         7.3124 
 213   0.0000       0.270492         7.3605 
 214   0.0000       0.273205         7.4343 
 215   0.0000       0.275854         7.5064 
 216   0.0000       0.278383         7.5752 
 217   0.0000       0.283263         7.7080 
 218   0.0000       0.286651         7.8002 
 219   0.0000       0.287690         7.8284 
 220   0.0000       0.290034         7.8922 
 221   0.0000       0.292789         7.9672 
 222   0.0000       0.294691         8.0189 
 223   0.0000       0.296963         8.0808 
 224   0.0000       0.297266         8.0890 
 225   0.0000       0.301922         8.2157 
 226   0.0000       0.306070         8.3286 
 227   0.0000       0.307414         8.3652 
 228   0.0000       0.320364         8.7176 
 229   0.0000       0.324696         8.8354 
 230   0.0000       0.328482         8.9385 
 231   0.0000       0.335453         9.1281 
 232   0.0000       0.342405         9.3173 
 233   0.0000       0.357216         9.7204 
 234   0.0000       0.372868        10.1463 
 235   0.0000       0.374385        10.1875 
 236   0.0000       0.390325        10.6213 
 237   0.0000       0.391313        10.6482 
 238   0.0000       0.398453        10.8425 
 239   0.0000       0.402103        10.9418 
 240   0.0000       0.411216        11.1898 
 241   0.0000       0.412296        11.2191 
 242   0.0000       0.416328        11.3289 
 243   0.0000       0.425048        11.5662 
 244   0.0000       0.429940        11.6993 
 245   0.0000       0.431951        11.7540 
 246   0.0000       0.440391        11.9837 
 247   0.0000       0.441367        12.0102 
 248   0.0000       0.441697        12.0192 
 249   0.0000       0.443818        12.0769 
 250   0.0000       0.449859        12.2413 
 251   0.0000       0.458739        12.4829 
 252   0.0000       0.464441        12.6381 
 253   0.0000       0.469831        12.7848 
 254   0.0000       0.472776        12.8649 
 255   0.0000       0.474627        12.9153 
 256   0.0000       0.476515        12.9666 
 257   0.0000       0.485898        13.2219 
 258   0.0000       0.489549        13.3213 
 259   0.0000       0.494971        13.4688 
 260   0.0000       0.503892        13.7116 
 261   0.0000       0.504661        13.7325 
 262   0.0000       0.506425        13.7805 
 263   0.0000       0.512181        13.9372 
 264   0.0000       0.515618        14.0307 
 265   0.0000       0.520066        14.1517 
 266   0.0000       0.526931        14.3385 
 267   0.0000       0.528500        14.3812 
 268   0.0000       0.535413        14.5693 
 269   0.0000       0.542238        14.7550 
 270   0.0000       0.554411        15.0863 
 271   0.0000       0.556091        15.1320 
 272   0.0000       0.559194        15.2164 
 273   0.0000       0.562719        15.3124 
 274   0.0000       0.567193        15.4341 
 275   0.0000       0.573623        15.6091 
 276   0.0000       0.574963        15.6455 
 277   0.0000       0.580665        15.8007 
 278   0.0000       0.583317        15.8729 
 279   0.0000       0.587474        15.9860 
 280   0.0000       0.593387        16.1469 
 281   0.0000       0.593744        16.1566 
 282   0.0000       0.595305        16.1991 
 283   0.0000       0.597813        16.2673 
 284   0.0000       0.598328        16.2813 
 285   0.0000       0.602135        16.3849 
 286   0.0000       0.605464        16.4755 
 287   0.0000       0.612386        16.6639 
 288   0.0000       0.618114        16.8197 
 289   0.0000       0.622496        16.9390 
 290   0.0000       0.625838        17.0299 
 291   0.0000       0.631678        17.1888 
 292   0.0000       0.636390        17.3171 
 293   0.0000       0.641714        17.4619 
 294   0.0000       0.646671        17.5968 
 295   0.0000       0.652108        17.7448 
 296   0.0000       0.655096        17.8261 
 297   0.0000       0.658965        17.9313 
 298   0.0000       0.664160        18.0727 
 299   0.0000       0.666508        18.1366 
 300   0.0000       0.671064        18.2606 
 301   0.0000       0.675818        18.3899 
 302   0.0000       0.680951        18.5296 
 303   0.0000       0.684262        18.6197 
 304   0.0000       0.686001        18.6670 
 305   0.0000       0.689159        18.7530 
 306   0.0000       0.692708        18.8495 
 307   0.0000       0.693745        18.8778 
 308   0.0000       0.697880        18.9903 
 309   0.0000       0.702488        19.1157 
 310   0.0000       0.702971        19.1288 
 311   0.0000       0.706649        19.2289 
 312   0.0000       0.708767        19.2865 
 313   0.0000       0.711143        19.3512 
 314   0.0000       0.712018        19.3750 
 315   0.0000       0.716079        19.4855 
 316   0.0000       0.718628        19.5549 
 317   0.0000       0.720311        19.6007 
 318   0.0000       0.723463        19.6864 
 319   0.0000       0.724308        19.7094 
 320   0.0000       0.727920        19.8077 
 321   0.0000       0.728915        19.8348 
 322   0.0000       0.731449        19.9037 
 323   0.0000       0.733845        19.9689 
 324   0.0000       0.734689        19.9919 
 325   0.0000       0.736851        20.0507 
 326   0.0000       0.743079        20.2202 
 327   0.0000       0.747014        20.3273 
 328   0.0000       0.750441        20.4205 
 329   0.0000       0.754570        20.5329 
 330   0.0000       0.758622        20.6432 
 331   0.0000       0.765560        20.8320 
 332   0.0000       0.767397        20.8819 
 333   0.0000       0.767868        20.8948 
 334   0.0000       0.770108        20.9557 
 335   0.0000       0.773554        21.0495 
 336   0.0000       0.776744        21.1363 
 337   0.0000       0.780729        21.2447 
 338   0.0000       0.785418        21.3723 
 339   0.0000       0.790171        21.5016 
 340   0.0000       0.792628        21.5685 
 341   0.0000       0.793270        21.5860 
 342   0.0000       0.799608        21.7584 
 343   0.0000       0.801124        21.7997 
 344   0.0000       0.804394        21.8887 
 345   0.0000       0.808731        22.0067 
 346   0.0000       0.812601        22.1120 
 347   0.0000       0.814619        22.1669 
 348   0.0000       0.816147        22.2085 
 349   0.0000       0.817427        22.2433 
 350   0.0000       0.821273        22.3480 
 351   0.0000       0.824360        22.4320 
 352   0.0000       0.827611        22.5204 
 353   0.0000       0.828669        22.5492 
 354   0.0000       0.831084        22.6149 
 355   0.0000       0.832194        22.6452 
 356   0.0000       0.834706        22.7135 
 357   0.0000       0.836102        22.7515 
 358   0.0000       0.838899        22.8276 
 359   0.0000       0.840861        22.8810 
 360   0.0000       0.842573        22.9276 
 361   0.0000       0.843588        22.9552 
 362   0.0000       0.845656        23.0115 
 363   0.0000       0.849180        23.1074 
 364   0.0000       0.852443        23.1962 
 365   0.0000       0.855740        23.2859 
 366   0.0000       0.862999        23.4834 
 367   0.0000       0.863978        23.5100 
 368   0.0000       0.868008        23.6197 
 369   0.0000       0.870309        23.6823 
 370   0.0000       0.870440        23.6859 
 371   0.0000       0.875206        23.8156 
 372   0.0000       0.875881        23.8339 
 373   0.0000       0.877886        23.8885 
 374   0.0000       0.882234        24.0068 
 375   0.0000       0.883861        24.0511 
 376   0.0000       0.889919        24.2159 
 377   0.0000       0.892040        24.2736 
 378   0.0000       0.894151        24.3311 
 379   0.0000       0.895984        24.3810 
 380   0.0000       0.897485        24.4218 
 381   0.0000       0.899124        24.4664 
 382   0.0000       0.901644        24.5350 
 383   0.0000       0.902855        24.5679 
 384   0.0000       0.906677        24.6719 
 385   0.0000       0.907932        24.7061 
 386   0.0000       0.911352        24.7992 
 387   0.0000       0.915247        24.9051 
 388   0.0000       0.915552        24.9134 
 389   0.0000       0.919117        25.0104 
 390   0.0000       0.924589        25.1593 
 391   0.0000       0.926379        25.2081 
 392   0.0000       0.927945        25.2507 
 393   0.0000       0.929604        25.2958 
 394   0.0000       0.930840        25.3294 
 395   0.0000       0.934747        25.4358 
 396   0.0000       0.938911        25.5491 
 397   0.0000       0.941870        25.6296 
 398   0.0000       0.948357        25.8061 
 399   0.0000       0.948976        25.8229 
 400   0.0000       0.952073        25.9072 
 401   0.0000       0.954074        25.9617 
 402   0.0000       0.955044        25.9881 
 403   0.0000       0.958996        26.0956 
 404   0.0000       0.961995        26.1772 
 405   0.0000       0.963168        26.2091 
 406   0.0000       0.972769        26.4704 
 407   0.0000       0.979738        26.6600 
 408   0.0000       0.981680        26.7129 
 409   0.0000       0.987592        26.8737 
 410   0.0000       0.990849        26.9624 
 411   0.0000       0.993326        27.0298 
 412   0.0000       0.999966        27.2104 
 413   0.0000       1.006980        27.4013 
 414   0.0000       1.012917        27.5629 
 415   0.0000       1.015323        27.6283 
 416   0.0000       1.019776        27.7495 
 417   0.0000       1.026436        27.9307 
 418   0.0000       1.031505        28.0687 
 419   0.0000       1.033911        28.1342 
 420   0.0000       1.041462        28.3396 
 421   0.0000       1.043342        28.3908 
 422   0.0000       1.051073        28.6012 
 423   0.0000       1.055931        28.7333 
 424   0.0000       1.063174        28.9304 
 425   0.0000       1.072087        29.1730 
 426   0.0000       1.077734        29.3266 
 427   0.0000       1.078124        29.3372 
 428   0.0000       1.081146        29.4195 
 429   0.0000       1.087355        29.5884 
 430   0.0000       1.089279        29.6408 
 431   0.0000       1.095420        29.8079 
 432   0.0000       1.099120        29.9086 
 433   0.0000       1.104583        30.0572 
 434   0.0000       1.109807        30.1994 
 435   0.0000       1.112305        30.2674 
 436   0.0000       1.116033        30.3688 
 437   0.0000       1.121136        30.5077 
 438   0.0000       1.121799        30.5257 
 439   0.0000       1.123309        30.5668 
 440   0.0000       1.127449        30.6794 
 441   0.0000       1.131536        30.7907 
 442   0.0000       1.135752        30.9054 
 443   0.0000       1.136790        30.9336 
 444   0.0000       1.139357        31.0035 
 445   0.0000       1.145047        31.1583 
 446   0.0000       1.145748        31.1774 
 447   0.0000       1.152414        31.3588 
 448   0.0000       1.155356        31.4388 
 449   0.0000       1.158866        31.5344 
 450   0.0000       1.160826        31.5877 
 451   0.0000       1.166330        31.7374 
 452   0.0000       1.168538        31.7975 
 453   0.0000       1.171032        31.8654 
 454   0.0000       1.172362        31.9016 
 455   0.0000       1.181163        32.1411 
 456   0.0000       1.183520        32.2052 
 457   0.0000       1.195911        32.5424 
 458   0.0000       1.200394        32.6644 
 459   0.0000       1.201620        32.6977 
 460   0.0000       1.202619        32.7249 
 461   0.0000       1.208267        32.8786 
 462   0.0000       1.209529        32.9130 
 463   0.0000       1.213545        33.0222 
 464   0.0000       1.214810        33.0567 
 465   0.0000       1.217263        33.1234 
 466   0.0000       1.223369        33.2896 
 467   0.0000       1.228682        33.4341 
 468   0.0000       1.229226        33.4489 
 469   0.0000       1.233642        33.5691 
 470   0.0000       1.237926        33.6857 
 471   0.0000       1.241202        33.7748 
 472   0.0000       1.244441        33.8630 
 473   0.0000       1.246706        33.9246 
 474   0.0000       1.250137        34.0180 
 475   0.0000       1.251148        34.0455 
 476   0.0000       1.253644        34.1134 
 477   0.0000       1.256276        34.1850 
 478   0.0000       1.260585        34.3023 
 479   0.0000       1.264445        34.4073 
 480   0.0000       1.267697        34.4958 
 481   0.0000       1.268731        34.5239 
 482   0.0000       1.271819        34.6080 
 483   0.0000       1.276703        34.7408 
 484   0.0000       1.282886        34.9091 
 485   0.0000       1.285602        34.9830 
 486   0.0000       1.288705        35.0675 
 487   0.0000       1.291706        35.1491 
 488   0.0000       1.294435        35.2234 
 489   0.0000       1.296262        35.2731 
 490   0.0000       1.301722        35.4216 
 491   0.0000       1.305187        35.5159 
 492   0.0000       1.310423        35.6584 
 493   0.0000       1.311852        35.6973 
 494   0.0000       1.318078        35.8667 
 495   0.0000       1.321701        35.9653 
 496   0.0000       1.323470        36.0135 
 497   0.0000       1.327760        36.1302 
 498   0.0000       1.329919        36.1889 
 499   0.0000       1.337968        36.4080 
 500   0.0000       1.338173        36.4135 
 501   0.0000       1.340223        36.4693 
 502   0.0000       1.343238        36.5514 
 503   0.0000       1.347182        36.6587 
 504   0.0000       1.349401        36.7191 
 505   0.0000       1.350602        36.7517 
 506   0.0000       1.353133        36.8206 
 507   0.0000       1.358247        36.9598 
 508   0.0000       1.360043        37.0086 
 509   0.0000       1.363784        37.1104 
[...]
      px      :     0.043610
      py      :     0.014047
 77 H s       :     0.884478  s :     0.884478
      pz      :     0.047978  p :     0.079294
      px      :     0.015024
      py      :     0.016292
 78 H s       :     0.884807  s :     0.884807
      pz      :     0.025885  p :     0.079268
      px      :     0.020455
      py      :     0.032928
 79 H s       :     0.910875  s :     0.910875
      pz      :     0.021809  p :     0.086298
      px      :     0.021655
      py      :     0.042834
 80 H s       :     0.864325  s :     0.864325
      pz      :     0.039393  p :     0.084831
      px      :     0.030286
      py      :     0.015152
 81 H s       :     0.886670  s :     0.886670
      pz      :     0.037836  p :     0.084137
      px      :     0.016174
      py      :     0.030126
 82 H s       :     0.916026  s :     0.916026
      pz      :     0.021962  p :     0.086734
      px      :     0.031654
      py      :     0.033117
 83 H s       :     0.873263  s :     0.873263
      pz      :     0.039289  p :     0.084124
      px      :     0.015272
      py      :     0.029563
 84 H s       :     0.886535  s :     0.886535
      pz      :     0.035777  p :     0.083423
      px      :     0.031703
      py      :     0.015943
 85 H s       :     0.892709  s :     0.892709
      pz      :     0.022493  p :     0.079791
      px      :     0.014063
      py      :     0.043234
 86 H s       :     0.890895  s :     0.890895
      pz      :     0.024734  p :     0.078836
      px      :     0.032987
      py      :     0.021115
 87 H s       :     0.889740  s :     0.889740
      pz      :     0.048027  p :     0.078751
      px      :     0.015586
      py      :     0.015138
 88 H s       :     0.910568  s :     0.910568
      pz      :     0.021603  p :     0.087006
      px      :     0.042946
      py      :     0.022457
 89 H s       :     0.870951  s :     0.870951
      pz      :     0.037970  p :     0.083871
      px      :     0.030517
      py      :     0.015383


                      *****************************
                      * MAYER POPULATION ANALYSIS *
                      *****************************

  NA   - Mulliken gross atomic population
  ZA   - Total nuclear charge
  QA   - Mulliken gross atomic charge
  VA   - Mayer's total valence
  BVA  - Mayer's bonded valence
  FA   - Mayer's free valence

  ATOM       NA         ZA         QA         VA         BVA        FA
  0 C      5.7707     6.0000     0.2293     3.8527     3.8527     0.0000
  1 N      7.4546     7.0000    -0.4546     3.3530     3.3530     0.0000
  2 C      6.0645     6.0000    -0.0645     3.9239     3.9239     0.0000
  3 N      7.3410     7.0000    -0.3410     3.4544     3.4544     0.0000
  4 C      6.1391     6.0000    -0.1391     4.1993     4.1993    -0.0000
  5 N      7.5689     7.0000    -0.5689     3.0966     3.0966     0.0000
  6 C      6.0880     6.0000    -0.0880     3.9224     3.9224     0.0000
  7 N      7.3411     7.0000    -0.3411     3.4323     3.4323     0.0000
  8 C      5.7796     6.0000     0.2204     3.8548     3.8548     0.0000
  9 N      7.5623     7.0000    -0.5623     3.0768     3.0768    -0.0000
 10 C      5.8805     6.0000     0.1195     3.9088     3.9088     0.0000
 11 N      7.4387     7.0000    -0.4387     3.3769     3.3769     0.0000
 12 C      6.0597     6.0000    -0.0597     3.8132     3.8132     0.0000
 13 N      7.4294     7.0000    -0.4294     3.4284     3.4284    -0.0000
 14 C      5.7863     6.0000     0.2137     3.8174     3.8174    -0.0000
 15 N      7.4407     7.0000    -0.4407     3.3733     3.3733     0.0000
 16 C      5.7658     6.0000     0.2342     3.7781     3.7781    -0.0000
 17 C      6.1019     6.0000    -0.1019     3.9415     3.9415     0.0000
 18 C      6.1811     6.0000    -0.1811     3.7465     3.7465    -0.0000
 19 C      5.7875     6.0000     0.2125     3.8925     3.8925    -0.0000
 20 C      5.7867     6.0000     0.2133     3.8293     3.8293    -0.0000
 21 C      6.0604     6.0000    -0.0604     3.7688     3.7688    -0.0000
 22 C      6.0910     6.0000    -0.0910     3.9825     3.9825     0.0000
 23 C      6.0396     6.0000    -0.0396     3.9929     3.9929    -0.0000
 24 C      5.8072     6.0000     0.1928     3.8212     3.8212    -0.0000
 25 C      5.8853     6.0000     0.1147     3.8920     3.8920     0.0000
 26 C      6.0798     6.0000    -0.0798     3.9077     3.9077    -0.0000
 27 C      5.7806     6.0000     0.2194     3.8634     3.8634    -0.0000
 28 C      6.0619     6.0000    -0.0619     3.9889     3.9889    -0.0000
 29 C      6.1833     6.0000    -0.1833     3.7486     3.7486    -0.0000
 30 C      5.7546     6.0000     0.2454     3.8002     3.8002     0.0000
 31 C      5.7700     6.0000     0.2300     3.8169     3.8169    -0.0000
 32 C      6.0613     6.0000    -0.0613     3.9233     3.9233    -0.0000
 33 C      6.0600     6.0000    -0.0600     3.9712     3.9712     0.0000
 34 C      6.0515     6.0000    -0.0515     3.9833     3.9833     0.0000
 35 C      5.7710     6.0000     0.2290     3.8165     3.8165    -0.0000
 36 C      5.8918     6.0000     0.1082     3.8747     3.8747     0.0000
 37 C      6.0647     6.0000    -0.0647     3.9176     3.9176     0.0000
 38 C      5.7690     6.0000     0.2310     3.8012     3.8012    -0.0000
 39 C      6.0574     6.0000    -0.0574     3.9830     3.9830     0.0000
 40 C      6.1821     6.0000    -0.1821     3.7259     3.7259     0.0000
 41 C      5.7736     6.0000     0.2264     3.8882     3.8882    -0.0000
 42 C      5.8026     6.0000     0.1974     3.8254     3.8254    -0.0000
 43 C      6.0727     6.0000    -0.0727     3.8999     3.8999     0.0000
 44 C      6.0893     6.0000    -0.0893     3.9848     3.9848    -0.0000
 45 C      6.0617     6.0000    -0.0617     3.9918     3.9918    -0.0000
 46 C      5.7878     6.0000     0.2122     3.8284     3.8284     0.0000
 47 C      5.8847     6.0000     0.1153     3.8926     3.8926     0.0000
 48 C      6.0664     6.0000    -0.0664     3.9096     3.9096     0.0000
 49 C      5.7622     6.0000     0.2378     3.8953     3.8953     0.0000
 50 C      6.0460     6.0000    -0.0460     3.9904     3.9904    -0.0000
 51 C      6.1923     6.0000    -0.1923     3.7385     3.7385    -0.0000
 52 H      0.9678     1.0000     0.0322     0.9859     0.9859    -0.0000
 53 H      1.0191     1.0000    -0.0191     0.9992     0.9992     0.0000
 54 H      0.9249     1.0000     0.0751     0.9266     0.9266    -0.0000
 55 H      0.9701     1.0000     0.0299     0.9867     0.9867    -0.0000
 56 H      0.9506     1.0000     0.0494     0.9695     0.9695    -0.0000
 57 H      0.9523     1.0000     0.0477     0.9824     0.9824    -0.0000
 58 H      0.9537     1.0000     0.0463     0.9846     0.9846     0.0000
 59 H      1.0197     1.0000    -0.0197     0.9656     0.9656     0.0000
 60 H      0.9405     1.0000     0.0595     0.9430     0.9430     0.0000
 61 H      0.8291     1.0000     0.1709     1.0424     1.0424     0.0000
 62 H      0.8246     1.0000     0.1754     1.0437     1.0437     0.0000
 63 H      0.9451     1.0000     0.0549     0.9853     0.9853    -0.0000
 64 H      1.0463     1.0000    -0.0463     0.9628     0.9628     0.0000
 65 H      0.9534     1.0000     0.0466     1.0101     1.0101     0.0000
 66 H      0.9449     1.0000     0.0551     0.9855     0.9855    -0.0000
 67 H      0.9380     1.0000     0.0620     0.9719     0.9719     0.0000
 68 H      0.9430     1.0000     0.0570     0.9868     0.9868     0.0000
 69 H      0.9439     1.0000     0.0561     0.9828     0.9828    -0.0000
 70 H      1.0312     1.0000    -0.0312     0.9945     0.9945    -0.0000
 71 H      0.9555     1.0000     0.0445     1.0058     1.0058    -0.0000
 72 H      0.9286     1.0000     0.0714     0.9835     0.9835    -0.0000
 73 H      1.0079     1.0000    -0.0079     1.0010     1.0010     0.0000
 74 H      0.9395     1.0000     0.0605     1.0100     1.0100     0.0000
 75 H      0.9291     1.0000     0.0709     0.9838     0.9838    -0.0000
 76 H      0.9250     1.0000     0.0750     0.9721     0.9721     0.0000
 77 H      0.9319     1.0000     0.0681     0.9855     0.9855    -0.0000
 78 H      0.9326     1.0000     0.0674     0.9854     0.9854     0.0000
 79 H      1.0169     1.0000    -0.0169     0.9974     0.9974    -0.0000
 80 H      0.9385     1.0000     0.0615     1.0072     1.0072     0.0000
 81 H      0.9454     1.0000     0.0546     0.9856     0.9856     0.0000
 82 H      1.0249     1.0000    -0.0249     0.9935     0.9935     0.0000
 83 H      0.9578     1.0000     0.0422     1.0083     1.0083    -0.0000
 84 H      0.9455     1.0000     0.0545     0.9852     0.9852    -0.0000
 85 H      0.9389     1.0000     0.0611     0.9716     0.9716     0.0000
 86 H      0.9443     1.0000     0.0557     0.9839     0.9839     0.0000
 87 H      0.9426     1.0000     0.0574     0.9857     0.9857    -0.0000
 88 H      1.0144     1.0000    -0.0144     0.9968     0.9968     0.0000
 89 H      0.9528     1.0000     0.0472     1.0076     1.0076    -0.0000

  Mayer bond orders larger than 0.100000
B(  0-C ,  1-N ) :   1.1050 B(  0-C , 17-C ) :   1.7270 B(  0-C , 52-H ) :   0.9586 
B(  1-N ,  8-C ) :   1.0915 B(  1-N , 10-C ) :   0.9770 B(  2-C , 12-C ) :   1.4857 
B(  2-C , 16-C ) :   1.3791 B(  2-C , 53-H ) :   0.9702 B(  3-N , 14-C ) :   1.2267 
B(  3-N , 16-C ) :   1.1768 B(  3-N , 61-H ) :   0.8972 B(  4-C ,  6-C ) :   1.2314 
B(  4-C , 17-C ) :   1.2315 B(  4-C , 18-C ) :   1.4908 B(  5-N , 19-C ) :   1.4669 
B(  5-N , 27-C ) :   1.3671 B(  6-C ,  8-C ) :   1.7427 B(  6-C , 54-H ) :   0.8267 
B(  7-N , 30-C ) :   1.1950 B(  7-N , 38-C ) :   1.1897 B(  7-N , 62-H ) :   0.8968 
B(  8-C , 55-H ) :   0.9583 B(  9-N , 41-C ) :   1.3957 B(  9-N , 49-C ) :   1.4236 
B( 10-C , 56-H ) :   0.9777 B( 10-C , 57-H ) :   0.9823 B( 10-C , 58-H ) :   0.9836 
B( 11-N , 20-C ) :   1.1304 B( 11-N , 24-C ) :   1.1057 B( 11-N , 25-C ) :   0.9607 
B( 12-C , 14-C ) :   1.3624 B( 12-C , 59-H ) :   0.9050 B( 13-N , 31-C ) :   1.1613 
B( 13-N , 35-C ) :   1.1610 B( 13-N , 36-C ) :   0.9412 B( 14-C , 18-C ) :   1.1168 
B( 15-N , 42-C ) :   1.1081 B( 15-N , 46-C ) :   1.1254 B( 15-N , 47-C ) :   0.9610 
B( 16-C , 51-C ) :   1.1686 B( 17-C , 60-H ) :   0.8646 B( 18-C , 19-C ) :   1.1149 
B( 19-C , 21-C ) :   1.2562 B( 20-C , 28-C ) :   1.6297 B( 20-C , 63-H ) :   0.9703 
B( 21-C , 26-C ) :   1.5773 B( 21-C , 64-H ) :   0.8725 B( 22-C , 23-C ) :   1.2888 
B( 22-C , 28-C ) :   1.2627 B( 22-C , 29-C ) :   1.2280 B( 23-C , 24-C ) :   1.6211 
B( 23-C , 65-H ) :   0.9703 B( 24-C , 66-H ) :   0.9696 B( 25-C , 67-H ) :   0.9760 
B( 25-C , 68-H ) :   0.9828 B( 25-C , 69-H ) :   0.9824 B( 26-C , 27-C ) :   1.2707 
B( 26-C , 70-H ) :   0.9647 B( 27-C , 29-C ) :   1.2056 B( 28-C , 71-H ) :   0.9720 
B( 29-C , 30-C ) :   1.2468 B( 30-C , 32-C ) :   1.2792 B( 31-C , 39-C ) :   1.5875 
B( 31-C , 72-H ) :   0.9681 B( 32-C , 37-C ) :   1.5796 B( 32-C , 73-H ) :   0.9786 
B( 33-C , 34-C ) :   1.3066 B( 33-C , 39-C ) :   1.3045 B( 33-C , 40-C ) :   1.1764 
B( 34-C , 35-C ) :   1.5854 B( 34-C , 74-H ) :   0.9696 B( 35-C , 75-H ) :   0.9681 
B( 36-C , 76-H ) :   0.9768 B( 36-C , 77-H ) :   0.9816 B( 36-C , 78-H ) :   0.9823 
B( 37-C , 38-C ) :   1.2852 B( 37-C , 79-H ) :   0.9764 B( 38-C , 40-C ) :   1.2338 
B( 39-C , 80-H ) :   0.9705 B( 40-C , 41-C ) :   1.2500 B( 41-C , 43-C ) :   1.1839 
B( 42-C , 50-C ) :   1.6320 B( 42-C , 81-H ) :   0.9696 B( 43-C , 48-C ) :   1.6691 
B( 43-C , 82-H ) :   0.9721 B( 44-C , 45-C ) :   1.2639 B( 44-C , 50-C ) :   1.2735 
B( 44-C , 51-C ) :   1.2588 B( 45-C , 46-C ) :   1.6337 B( 45-C , 83-H ) :   0.9718 
B( 46-C , 84-H ) :   0.9700 B( 47-C , 85-H ) :   0.9762 B( 47-C , 86-H ) :   0.9829 
B( 47-C , 87-H ) :   0.9824 B( 48-C , 49-C ) :   1.1873 B( 48-C , 88-H ) :   0.9748 
B( 49-C , 51-C ) :   1.2469 B( 50-C , 89-H ) :   0.9708 B( 54-H , 64-H ) :   0.1509 
B( 59-H , 60-H ) :   0.1067 

-------
TIMINGS
-------

Total SCF time: 0 days 0 hours 27 min 9 sec 

Total time                  ....    1629.013 sec
Sum of individual times     ....    1624.296 sec  ( 99.7%)

Fock matrix formation       ....    1600.520 sec  ( 98.3%)
Diagonalization             ....       7.076 sec  (  0.4%)
Density matrix formation    ....       0.632 sec  (  0.0%)
Population analysis         ....       0.528 sec  (  0.0%)
Initial guess               ....       2.085 sec  (  0.1%)
Orbital Transformation      ....       0.000 sec  (  0.0%)
Orbital Orthonormalization  ....       0.000 sec  (  0.0%)
DIIS solution               ....       3.668 sec  (  0.2%)
SOSCF solution              ....       8.722 sec  (  0.5%)

Maximum memory used throughout the entire SCF-calculation: 302.7 MB


           ************************************************************
           *        Program running with 16 parallel MPI-processes    *
           *              working on a common directory               *
           ************************************************************

------------------------------------------------------------------------------
                                ORCA  MP2 
------------------------------------------------------------------------------

Freezing NCore=104 chemical core electrons

----------
MP2 ENERGY (disk based algorithm)
----------

Dimension of the basis                    ...  918
Memory devoted to MP2                     ... 2000 MB   
Data format for buffers                   ... DOUBLE
Compression type for matrix containers    ... UNCOMPRESSED

-------------------------------
PARTIAL EXCHANGE TRANSFORMATION
-------------------------------

Transformation type                        ... one-operator
Generation of integrals (i,mue|j,nue)      ... ON
Generation of integrals (mue,kappa|nue,tau)... OFF
Generation of integrals (i,mue|a,nue)      ... OFF
Dimension of the basis                     ...  918
Number of internal MOs                     ...  127 (  52- 178)
Pair cutoff                                ... 2.500e-12 Eh
Number of AO pairs in the trafo            ... 421821
Total Number of distinct AO pairs          ... 421821
Memory devoted for trafo                   ... 2000.0 MB 
Max. Number of MO pairs treated together   ...  311      
Number Format for Storage                  ... Double (8 Byte)
Integral package used                      ... LIBINT

Starting integral evaluation:
    ... done with AO integral generation
Closing buffer AOK     (38.20 GB; CompressionRatio= 1.33)
Collecting buffer AOK 
Number of MO pairs included in the trafo   ... 8128
------------------------
SORTING OF (i,mue|j,nue)
------------------------

IBATCH = 1 of  2
IBATCH = 2 of  2
Closing buffer KAO     (51.03 GB; CompressionRatio= 1.00)
Collecting buffer KAO 
N(AO-Batches) Done                         ...  86087291 
N(AO-Batches) Skipped                      ...  82414527 
N(IJ)-pairs Skipped                        ...         0 
TOTAL TIME for half transformation         ...  3178.870 sec
AO-integral generation                     ...   193.503 sec
Half transformation                        ...   375.925 sec
K-integral sorting                         ...  2441.021 sec
Process 13:   Internal MO 156

Finished integral transformation - now doing MP2 part

Process  1:   Internal MO  60
Process  7:   Internal MO 108
OPERATOR COMBINATION   0   0: ij=( 52..178, 52..178)
Process  4:   Internal MO  84
Process 10:   Internal MO 132
Process  2:   Internal MO  69
Process  1:   Internal MO  63
Process  0:   Internal MO  54
Process  5:   Internal MO  93
Process  3:   Internal MO  78
Process  0:   Internal MO  57
Process  8:   Internal MO 117
Process  1:   Internal MO  66
Process  2:   Internal MO  72
Process  4:   Internal MO  87
Process  6:   Internal MO 102
Process 14:   Internal MO 165
Process  2:   Internal MO  75
Process  3:   Internal MO  81
Process  9:   Internal MO 126
Process  7:   Internal MO 111
Process  5:   Internal MO  96
Process 12:   Internal MO 150
Process  4:   Internal MO  90
Process 15:   Internal MO 174
Process  6:   Internal MO 105
Process  8:   Internal MO 120
Process 10:   Internal MO 135
Process 13:   Internal MO 159
Process 11:   Internal MO 141
Process  7:   Internal MO 114
Process  5:   Internal MO  99
Process  9:   Internal MO 129
Process  8:   Internal MO 123
Process 14:   Internal MO 168
Process 12:   Internal MO 153
Process 10:   Internal MO 138
Process 15:   Internal MO 177
Process 11:   Internal MO 144
Process 13:   Internal MO 162
Process 14:   Internal MO 171
Process 11:   Internal MO 147
-----------------------------------------------
 MP2 CORRELATION ENERGY   :     -7.293922777 Eh
-----------------------------------------------


-------
TIMINGS
-------
Total time                : 3735.165 sec
Integral trafo            : 3181.180 sec ( 85.2%)
K(i,j)                    :   38.907 sec (  1.0%)
T(i,j)                    :    0.100 sec (  0.0%)

---------------------------------------
MP2 TOTAL ENERGY:    -2130.728498740 Eh
---------------------------------------

Maximum memory used throughout the entire MP2-calculation: 2275.3 MB

-------------------------   --------------------
FINAL SINGLE POINT ENERGY     -2130.728498739638
-------------------------   --------------------


                            ***************************************
                            *     ORCA property calculations      *
                            ***************************************


  WARNING: The energy has been calculated at the MP2 level but the densities
           used in the property calculations are still SCF densities
           MP2 response densities have not been calculated 
           use %mp2 Density relaxed end
           or  %mp2 Density unrelaxed end

                                    ---------------------
                                    Active property flags
                                    ---------------------
   (+) Dipole Moment


------------------------------------------------------------------------------
                       ORCA ELECTRIC PROPERTIES CALCULATION
------------------------------------------------------------------------------

Dipole Moment Calculation                       ... on
Quadrupole Moment Calculation                   ... off
Polarizability Calculation                      ... off
GBWName                                         ... /scratch/allen/tmpyp4_amber_gaff2/conf1/conf1/Conf5.orca.gbw
Electron density                                ... /scratch/allen/tmpyp4_amber_gaff2/conf1/conf1/Conf5.orca.scfp
The origin for moment calculation is the CENTER OF MASS  = (-0.001244, -0.004946  0.002201)

-------------
DIPOLE MOMENT
-------------
                                X             Y             Z
Electronic contribution:      2.89966      -4.22222      -0.08233
Nuclear contribution   :     -0.03841       0.16075       0.10210
                        -----------------------------------------
Total Dipole Moment    :      2.86125      -4.06147       0.01977
                        -----------------------------------------
Magnitude (a.u.)       :      4.96817
Magnitude (Debye)      :     12.62807



--------------------
Rotational spectrum 
--------------------
 
Rotational constants in cm-1:     0.001504     0.001478     0.000760 
Rotational constants in MHz :    45.074317    44.301071    22.780329 

 Dipole components along the rotational axes: 
x,y,z [a.u.] :    -3.514247    -3.511723     0.023286 
x,y,z [Debye]:    -8.932506    -8.926089     0.059187 

 

Timings for individual modules:

Sum of individual times         ...     5389.302 sec (=  89.822 min)
GTO integral calculation        ...        7.319 sec (=   0.122 min)   0.1 %
SCF iterations                  ...     1632.203 sec (=  27.203 min)  30.3 %
MP2 module                      ...     3749.781 sec (=  62.496 min)  69.6 %
                             ****ORCA TERMINATED NORMALLY****
TOTAL RUN TIME: 0 days 1 hours 29 minutes 52 seconds 964 msec
# of primitive gaussian functions

