
                                 *****************
                                 * O   R   C   A *
                                 *****************

                                            #,                                       
                                            ###                                      
                                            ####                                     
                                            #####                                    
                                            ######                                   
                                           ########,                                 
                                     ,,################,,,,,                         
                               ,,#################################,,                 
                          ,,##########################################,,             
                       ,#########################################, ''#####,          
                    ,#############################################,,   '####,        
                  ,##################################################,,,,####,       
                ,###########''''           ''''###############################       
              ,#####''   ,,,,##########,,,,          '''####'''          '####       
            ,##' ,,,,###########################,,,                        '##       
           ' ,,###''''                  '''############,,,                           
         ,,##''                                '''############,,,,        ,,,,,,###''
      ,#''                                            '''#######################'''  
     '                                                          ''''####''''         
             ,#######,   #######,   ,#######,      ##                                
            ,#'     '#,  ##    ##  ,#'     '#,    #''#        ######   ,####,        
            ##       ##  ##   ,#'  ##            #'  '#       #        #'  '#        
            ##       ##  #######   ##           ,######,      #####,   #    #        
            '#,     ,#'  ##    ##  '#,     ,#' ,#      #,         ##   #,  ,#        
             '#######'   ##     ##  '#######'  #'      '#     #####' # '####'        



                  #######################################################
                  #                        -***-                        #
                  #          Department of theory and spectroscopy      #
                  #    Directorship and core code : Frank Neese         #
                  #        Max Planck Institute fuer Kohlenforschung    #
                  #                Kaiser Wilhelm Platz 1               #
                  #                 D-45470 Muelheim/Ruhr               #
                  #                      Germany                        #
                  #                                                     #
                  #                  All rights reserved                #
                  #                        -***-                        #
                  #######################################################


                         Program Version 5.0.4 -  RELEASE  -


 With contributions from (in alphabetic order):
   Daniel Aravena         : Magnetic Suceptibility
   Michael Atanasov       : Ab Initio Ligand Field Theory (pilot matlab implementation)
   Alexander A. Auer      : GIAO ZORA, VPT2 properties, NMR spectrum
   Ute Becker             : Parallelization
   Giovanni Bistoni       : ED, misc. LED, open-shell LED, HFLD
   Martin Brehm           : Molecular dynamics
   Dmytro Bykov           : SCF Hessian
   Vijay G. Chilkuri      : MRCI spin determinant printing, contributions to CSF-ICE
   Dipayan Datta          : RHF DLPNO-CCSD density
   Achintya Kumar Dutta   : EOM-CC, STEOM-CC
   Dmitry Ganyushin       : Spin-Orbit,Spin-Spin,Magnetic field MRCI
   Miquel Garcia          : C-PCM and meta-GGA Hessian, CC/C-PCM, Gaussian charge scheme
   Yang Guo               : DLPNO-NEVPT2, F12-NEVPT2, CIM, IAO-localization
   Andreas Hansen         : Spin unrestricted coupled pair/coupled cluster methods
   Benjamin Helmich-Paris : MC-RPA, TRAH-SCF, COSX integrals
   Lee Huntington         : MR-EOM, pCC
   Robert Izsak           : Overlap fitted RIJCOSX, COSX-SCS-MP3, EOM
   Marcus Kettner         : VPT2
   Christian Kollmar      : KDIIS, OOCD, Brueckner-CCSD(T), CCSD density, CASPT2, CASPT2-K
   Simone Kossmann        : Meta GGA functionals, TD-DFT gradient, OOMP2, MP2 Hessian
   Martin Krupicka        : Initial AUTO-CI
   Lucas Lang             : DCDCAS
   Marvin Lechner         : AUTO-CI (C++ implementation), FIC-MRCC
   Dagmar Lenk            : GEPOL surface, SMD
   Dimitrios Liakos       : Extrapolation schemes; Compound Job, initial MDCI parallelization
   Dimitrios Manganas     : Further ROCIS development; embedding schemes
   Dimitrios Pantazis     : SARC Basis sets
   Anastasios Papadopoulos: AUTO-CI, single reference methods and gradients
   Taras Petrenko         : DFT Hessian,TD-DFT gradient, ASA, ECA, R-Raman, ABS, FL, XAS/XES, NRVS
   Peter Pinski           : DLPNO-MP2, DLPNO-MP2 Gradient
   Christoph Reimann      : Effective Core Potentials
   Marius Retegan         : Local ZFS, SOC
   Christoph Riplinger    : Optimizer, TS searches, QM/MM, DLPNO-CCSD(T), (RO)-DLPNO pert. Triples
   Tobias Risthaus        : Range-separated hybrids, TD-DFT gradient, RPA, STAB
   Michael Roemelt        : Original ROCIS implementation
   Masaaki Saitow         : Open-shell DLPNO-CCSD energy and density
   Barbara Sandhoefer     : DKH picture change effects
   Avijit Sen             : IP-ROCIS
   Kantharuban Sivalingam : CASSCF convergence, NEVPT2, FIC-MRCI
   Bernardo de Souza      : ESD, SOC TD-DFT
   Georgi Stoychev        : AutoAux, RI-MP2 NMR, DLPNO-MP2 response
   Willem Van den Heuvel  : Paramagnetic NMR
   Boris Wezisla          : Elementary symmetry handling
   Frank Wennmohs         : Technical directorship


 We gratefully acknowledge several colleagues who have allowed us to
 interface, adapt or use parts of their codes:
   Stefan Grimme, W. Hujo, H. Kruse, P. Pracht,  : VdW corrections, initial TS optimization,
                  C. Bannwarth, S. Ehlert          DFT functionals, gCP, sTDA/sTD-DF
   Ed Valeev, F. Pavosevic, A. Kumar             : LibInt (2-el integral package), F12 methods
   Garnet Chan, S. Sharma, J. Yang, R. Olivares  : DMRG
   Ulf Ekstrom                                   : XCFun DFT Library
   Mihaly Kallay                                 : mrcc  (arbitrary order and MRCC methods)
   Jiri Pittner, Ondrej Demel                    : Mk-CCSD
   Frank Weinhold                                : gennbo (NPA and NBO analysis)
   Christopher J. Cramer and Donald G. Truhlar   : smd solvation model
   Lars Goerigk                                  : TD-DFT with DH, B97 family of functionals
   V. Asgeirsson, H. Jonsson                     : NEB implementation
   FAccTs GmbH                                   : IRC, NEB, NEB-TS, DLPNO-Multilevel, CI-OPT
                                                   MM, QMMM, 2- and 3-layer-ONIOM, Crystal-QMMM,
                                                   LR-CPCM, SF, NACMEs, symmetry and pop. for TD-DFT,
                                                   nearIR, NL-DFT gradient (VV10), updates on ESD,
                                                   ML-optimized integration grids
   S Lehtola, MJT Oliveira, MAL Marques          : LibXC Library
   Liviu Ungur et al                             : ANISO software


 Your calculation uses the libint2 library for the computation of 2-el integrals
 For citations please refer to: http://libint.valeyev.net

 Your ORCA version has been built with support for libXC version: 5.1.0
 For citations please refer to: https://tddft.org/programs/libxc/

 This ORCA versions uses:
   CBLAS   interface :  Fast vector & matrix operations
   LAPACKE interface :  Fast linear algebra routines
   SCALAPACK package :  Parallel linear algebra routines
   Shared memory     :  Shared parallel matrices
   BLAS/LAPACK       :  OpenBLAS 0.3.15  USE64BITINT DYNAMIC_ARCH NO_AFFINITY Sandybridge SINGLE_THREADED
        Core in use  :  Sandybridge
   Copyright (c) 2011-2014, The OpenBLAS Project


================================================================================

----- Orbital basis set information -----
Your calculation utilizes the basis: cc-pVDZ 
       H, B-Ne : Obtained from the ccRepo (grant-hill.group.shef.ac.uk/ccrepo) Feb. 2017
                 T. H. Dunning, Jr., J. Chem. Phys. 90, 1007 (1989)
            He : Obtained from the ccRepo (grant-hill.group.shef.ac.uk/ccrepo) Feb. 2017
                 D. E. Woon, T. H. Dunning, Jr., J. Chem. Phys. 100, 2975 (1994)
  Li-Be, Na-Mg : Obtained from the ccRepo (grant-hill.group.shef.ac.uk/ccrepo) Feb. 2017
                 B. P. Prascher, D. E. Woon, K. A. Peterson, T. H. Dunning, Jr., A. K. Wilson, Theor. Chem. Acc. 128, 69 (2011)
         Al-Ar : Obtained from the ccRepo (grant-hill.group.shef.ac.uk/ccrepo) Feb. 2017
                 D. E. Woon, T. H. Dunning, Jr., J. Chem. Phys. 98, 1358 (1993)
            Ca : Obtained from the Peterson Research Group Website (tyr0.chem.wsu.edu/~kipeters) Feb. 2017
                 J. Koput, K. A. Peterson, J. Phys. Chem. 106, 9595 (2002)
         Sc-Zn : Obtained from the ccRepo (grant-hill.group.shef.ac.uk/ccrepo) Feb. 2017
                 N. B. Balabanov, K. A. Peterson, J. Chem. Phys. 123, 064107 (2005)
                 N. B. Balabanov, K. A. Peterson, J. Chem. Phys. 125, 074110 (2006)
         Ga-Kr : Obtained from the ccRepo (grant-hill.group.shef.ac.uk/ccrepo) Feb. 2017
                 A. K. Wilson, D. E. Woon, K. A. Peterson, T. H. Dunning, Jr., J. Chem. Phys. 110, 7667 (1999)

================================================================================
                                        WARNINGS
                       Please study these warnings very carefully!
================================================================================


WARNING: No MP2 level density has been requested!
         To caclulate MP2 level properties use
         %mp2 Density relaxed end
         or
         %mp2 Density unrelaxed end

WARNING: Post HF methods need fully converged wavefunctions
  ===> : Setting SCFConvForced true
         You can overwrite this default with %scf ConvForced false 


INFO   : the flag for use of the SHARK integral package has been found!

================================================================================
                                       INPUT FILE
================================================================================
NAME = /scratch/allen/tmpyp4_amber_gaff2/2.Mdgx/conf11/conf11/Conf153.orca
|  1> ! PAL2
|  2> ! mp2 cc-pvdz TightSCF  NoKeepInts
|  3> 
|  4> %scf
|  5>   MaxCore 2000
|  6> end
|  7> %mp2
|  8>   MaxCore 2000
|  9> end
| 10> * xyz 0 1
| 11>    C       -4.83100         5.27800        -0.50000
| 12>    C        1.47400         4.04100         0.05700
| 13>    C       -2.80200         4.09300         0.04900
| 14>    C       -2.33700         5.27200         0.65200
| 15>    C       -3.12700         6.40400         0.66100
| 16>    C       -5.19000         7.61700         0.14800
| 17>    C        0.13200         4.30700         0.06100
| 18>    C       -0.56900         3.05600         0.04700
| 19>    C        1.64900         2.61800         0.02300
| 20>    C       -4.08000         4.11900        -0.53000
| 21>    N       -4.35300         6.39800         0.08800
| 22>    N        0.38800         2.06700         0.02500
| 23>    N       -2.01000         0.39500        -0.07500
| 24>    N       -0.38800        -2.07400        -0.02700
| 25>    N        2.01000        -0.40100         0.06500
| 26>    C       -1.96000         2.86100         0.02400
| 27>    C       -2.62300         1.61500        -0.01800
| 28>    C       -5.57300        -4.32900         1.06600
| 29>    C       -4.07300         1.47100         0.05600
| 30>    C       -4.10600        -2.75600        -0.02600
| 31>    C       -4.99500        -2.75700        -1.11100
| 32>    C       -6.13200        -3.54200        -1.07600
| 33>    C       -7.65100        -5.11300         0.04000
| 34>    C       -4.32400         0.14100         0.03700
| 35>    C       -3.02500        -0.52000        -0.04800
| 36>    C       -4.42200        -3.56600         1.07500
| 37>    N       -6.40700        -4.31300         0.00100
| 38>    C       -2.86700        -1.92200        -0.04000
| 39>    C       -1.65000        -2.62400        -0.02700
| 40>    C        3.56800        -6.14200        -1.04000
| 41>    C       -1.47600        -4.04900        -0.03400
| 42>    C        2.80300        -4.09900        -0.00800
| 43>    C        3.65700        -4.38400         1.06900
| 44>    C        4.42700        -5.53000         1.05900
| 45>    C        5.24500        -7.58800         0.01400
| 46>    C       -0.13400        -4.31500        -0.02200
| 47>    C        0.56800        -3.06400        -0.02700
| 48>    C        2.77500        -5.01200        -1.07400
| 49>    N        4.37600        -6.39100         0.01700
| 50>    C        1.95900        -2.86900        -0.00900
| 51>    C        2.62100        -1.62200         0.00900
| 52>    C        5.54300         4.33900        -1.13000
| 53>    C        4.07000        -1.47900        -0.09400
| 54>    C        4.10400         2.75100        -0.02100
| 55>    C        5.02700         2.72900         1.03600
| 56>    C        6.16600         3.50900         0.97800
| 57>    C        7.61900         5.15300        -0.11500
| 58>    C        4.32100        -0.14800        -0.09200
| 59>    C        3.02500         0.51400         0.01500
| 60>    C        4.38700         3.58200        -1.11500
| 61>    C        2.86600         1.91600         0.01300
| 62>    N        6.41300         4.29600        -0.09500
| 63>    H       -5.81600         5.34800        -0.94500
| 64>    H        2.27400         4.76600         0.08100
| 65>    H       -1.36300         5.31200         1.12400
| 66>    H       -2.81500         7.33300         1.12100
| 67>    H       -5.74500         7.62100         1.08900
| 68>    H       -4.54300         8.49100         0.09100
| 69>    H       -5.88200         7.60900        -0.69400
| 70>    H       -0.33200         5.28200         0.06900
| 71>    H       -4.49000         3.24500        -1.02300
| 72>    H        0.18200         1.07200         0.00500
| 73>    H       -0.18300        -1.08000        -0.02100
| 74>    H       -5.86400        -4.96200         1.89500
| 75>    H       -4.79400         2.27200         0.13900
| 76>    H       -4.80000        -2.16000        -1.99400
| 77>    H       -6.84100        -3.58200        -1.89300
| 78>    H       -8.42800        -4.53600         0.54600
| 79>    H       -7.95600        -5.33700        -0.98100
| 80>    H       -7.45600        -6.03700         0.58400
| 81>    H       -5.28700        -0.34400         0.10000
| 82>    H       -3.78000        -3.60100         1.94700
| 83>    H        3.58700        -6.86800        -1.84300
| 84>    H       -2.27600        -4.77400        -0.05000
| 85>    H        3.71400        -3.72400         1.92600
| 86>    H        5.09200        -5.79500         1.87100
| 87>    H        6.20500        -7.32900        -0.43900
| 88>    H        5.39300        -7.91700         1.04200
| 89>    H        4.75900        -8.37300        -0.56400
| 90>    H        0.32900        -5.29000        -0.00800
| 91>    H        2.14600        -4.84200        -1.94000
| 92>    H        5.80800         4.98600        -1.95600
| 93>    H        4.78800        -2.28100        -0.18500
| 94>    H        4.86000         2.11400         1.91200
| 95>    H        6.90100         3.53100         1.77200
| 96>    H        7.38300         6.10900         0.35600
| 97>    H        8.41400         4.65200         0.43500
| 98>    H        7.92100         5.31000        -1.15000
| 99>    H        5.28300         0.33600        -0.17900
|100>    H        3.72000         3.63200        -1.96700
|101> *
|102> 
|103>                          ****END OF INPUT****
================================================================================

                       ****************************
                       * Single Point Calculation *
                       ****************************

---------------------------------
CARTESIAN COORDINATES (ANGSTROEM)
---------------------------------
  C     -4.831000    5.278000   -0.500000
  C      1.474000    4.041000    0.057000
  C     -2.802000    4.093000    0.049000
  C     -2.337000    5.272000    0.652000
  C     -3.127000    6.404000    0.661000
  C     -5.190000    7.617000    0.148000
  C      0.132000    4.307000    0.061000
  C     -0.569000    3.056000    0.047000
  C      1.649000    2.618000    0.023000
  C     -4.080000    4.119000   -0.530000
  N     -4.353000    6.398000    0.088000
  N      0.388000    2.067000    0.025000
  N     -2.010000    0.395000   -0.075000
  N     -0.388000   -2.074000   -0.027000
  N      2.010000   -0.401000    0.065000
  C     -1.960000    2.861000    0.024000
  C     -2.623000    1.615000   -0.018000
  C     -5.573000   -4.329000    1.066000
  C     -4.073000    1.471000    0.056000
  C     -4.106000   -2.756000   -0.026000
  C     -4.995000   -2.757000   -1.111000
  C     -6.132000   -3.542000   -1.076000
  C     -7.651000   -5.113000    0.040000
  C     -4.324000    0.141000    0.037000
  C     -3.025000   -0.520000   -0.048000
  C     -4.422000   -3.566000    1.075000
  N     -6.407000   -4.313000    0.001000
  C     -2.867000   -1.922000   -0.040000
  C     -1.650000   -2.624000   -0.027000
  C      3.568000   -6.142000   -1.040000
  C     -1.476000   -4.049000   -0.034000
  C      2.803000   -4.099000   -0.008000
  C      3.657000   -4.384000    1.069000
  C      4.427000   -5.530000    1.059000
  C      5.245000   -7.588000    0.014000
  C     -0.134000   -4.315000   -0.022000
  C      0.568000   -3.064000   -0.027000
  C      2.775000   -5.012000   -1.074000
  N      4.376000   -6.391000    0.017000
  C      1.959000   -2.869000   -0.009000
  C      2.621000   -1.622000    0.009000
  C      5.543000    4.339000   -1.130000
  C      4.070000   -1.479000   -0.094000
  C      4.104000    2.751000   -0.021000
  C      5.027000    2.729000    1.036000
  C      6.166000    3.509000    0.978000
  C      7.619000    5.153000   -0.115000
  C      4.321000   -0.148000   -0.092000
  C      3.025000    0.514000    0.015000
  C      4.387000    3.582000   -1.115000
  C      2.866000    1.916000    0.013000
  N      6.413000    4.296000   -0.095000
  H     -5.816000    5.348000   -0.945000
  H      2.274000    4.766000    0.081000
  H     -1.363000    5.312000    1.124000
  H     -2.815000    7.333000    1.121000
  H     -5.745000    7.621000    1.089000
  H     -4.543000    8.491000    0.091000
  H     -5.882000    7.609000   -0.694000
  H     -0.332000    5.282000    0.069000
  H     -4.490000    3.245000   -1.023000
  H      0.182000    1.072000    0.005000
  H     -0.183000   -1.080000   -0.021000
  H     -5.864000   -4.962000    1.895000
  H     -4.794000    2.272000    0.139000
  H     -4.800000   -2.160000   -1.994000
  H     -6.841000   -3.582000   -1.893000
  H     -8.428000   -4.536000    0.546000
  H     -7.956000   -5.337000   -0.981000
  H     -7.456000   -6.037000    0.584000
  H     -5.287000   -0.344000    0.100000
  H     -3.780000   -3.601000    1.947000
  H      3.587000   -6.868000   -1.843000
  H     -2.276000   -4.774000   -0.050000
  H      3.714000   -3.724000    1.926000
  H      5.092000   -5.795000    1.871000
  H      6.205000   -7.329000   -0.439000
  H      5.393000   -7.917000    1.042000
  H      4.759000   -8.373000   -0.564000
  H      0.329000   -5.290000   -0.008000
  H      2.146000   -4.842000   -1.940000
  H      5.808000    4.986000   -1.956000
  H      4.788000   -2.281000   -0.185000
  H      4.860000    2.114000    1.912000
  H      6.901000    3.531000    1.772000
  H      7.383000    6.109000    0.356000
  H      8.414000    4.652000    0.435000
  H      7.921000    5.310000   -1.150000
  H      5.283000    0.336000   -0.179000
  H      3.720000    3.632000   -1.967000

----------------------------
CARTESIAN COORDINATES (A.U.)
----------------------------
  NO LB      ZA    FRAG     MASS         X           Y           Z
   0 C     6.0000    0    12.011   -9.129267    9.973975   -0.944863
   1 C     6.0000    0    12.011    2.785456    7.636383    0.107714
   2 C     6.0000    0    12.011   -5.295013    7.734649    0.092597
   3 C     6.0000    0    12.011   -4.416290    9.962636    1.232101
   4 C     6.0000    0    12.011   -5.909174   12.101806    1.249109
   5 C     6.0000    0    12.011   -9.807679   14.394044    0.279679
   6 C     6.0000    0    12.011    0.249444    8.139050    0.115273
   7 C     6.0000    0    12.011   -1.075254    5.775003    0.088817
   8 C     6.0000    0    12.011    3.116158    4.947303    0.043464
   9 C     6.0000    0    12.011   -7.710083    7.783782   -1.001555
  10 N     7.0000    0    14.007   -8.225978   12.090468    0.166296
  11 N     7.0000    0    14.007    0.733214    3.906064    0.047243
  12 N     7.0000    0    14.007   -3.798350    0.746442   -0.141729
  13 N     7.0000    0    14.007   -0.733214   -3.919292   -0.051023
  14 N     7.0000    0    14.007    3.798350   -0.757780    0.122832
  15 C     6.0000    0    12.011   -3.703863    5.406506    0.045353
  16 C     6.0000    0    12.011   -4.956752    3.051908   -0.034015
  17 C     6.0000    0    12.011  -10.531444   -8.180624    2.014448
  18 C     6.0000    0    12.011   -7.696855    2.779787    0.105825
  19 C     6.0000    0    12.011   -7.759216   -5.208085   -0.049133
  20 C     6.0000    0    12.011   -9.439182   -5.209975   -2.099486
  21 C     6.0000    0    12.011  -11.587801   -6.693410   -2.033345
  22 C     6.0000    0    12.011  -14.458295   -9.662170    0.075589
  23 C     6.0000    0    12.011   -8.171176    0.266451    0.069920
  24 C     6.0000    0    12.011   -5.716422   -0.982658   -0.090707
  25 C     6.0000    0    12.011   -8.356369   -6.738763    2.031456
  26 N     7.0000    0    14.007  -12.107475   -8.150389    0.001890
  27 C     6.0000    0    12.011   -5.417845   -3.632054   -0.075589
  28 C     6.0000    0    12.011   -3.118048   -4.958641   -0.051023
  29 C     6.0000    0    12.011    6.742543  -11.606698   -1.965315
  30 C     6.0000    0    12.011   -2.789236   -7.651501   -0.064251
  31 C     6.0000    0    12.011    5.296902   -7.745987   -0.015118
  32 C     6.0000    0    12.011    6.910728   -8.284559    2.020117
  33 C     6.0000    0    12.011    8.365818  -10.450186    2.001220
  34 C     6.0000    0    12.011    9.911614  -14.339242    0.026456
  35 C     6.0000    0    12.011   -0.253223   -8.154168   -0.041574
  36 C     6.0000    0    12.011    1.073364   -5.790121   -0.051023
  37 C     6.0000    0    12.011    5.243990   -9.471307   -2.029566
  38 N     7.0000    0    14.007    8.269442  -12.077240    0.032125
  39 C     6.0000    0    12.011    3.701973   -5.421624   -0.017008
  40 C     6.0000    0    12.011    4.952972   -3.065136    0.017008
  41 C     6.0000    0    12.011   10.474752    8.199522   -2.135391
  42 C     6.0000    0    12.011    7.691185   -2.794905   -0.177634
  43 C     6.0000    0    12.011    7.755436    5.198637   -0.039684
  44 C     6.0000    0    12.011    9.499653    5.157063    1.957756
  45 C     6.0000    0    12.011   11.652051    6.631049    1.848152
  46 C     6.0000    0    12.011   14.397823    9.737759   -0.217319
  47 C     6.0000    0    12.011    8.165507   -0.279679   -0.173855
  48 C     6.0000    0    12.011    5.716422    0.971319    0.028346
  49 C     6.0000    0    12.011    8.290229    6.768999   -2.107045
  50 C     6.0000    0    12.011    5.415955    3.620715    0.024566
  51 N     7.0000    0    14.007   12.118814    8.118263   -0.179524
  52 H     1.0000    0     1.008  -10.990647   10.106255   -1.785791
  53 H     1.0000    0     1.008    4.297237    9.006435    0.153068
  54 H     1.0000    0     1.008   -2.575697   10.038225    2.124052
  55 H     1.0000    0     1.008   -5.319579   13.857362    2.118383
  56 H     1.0000    0     1.008  -10.856477   14.401603    2.057912
  57 H     1.0000    0     1.008   -8.585026   16.045665    0.171965
  58 H     1.0000    0     1.008  -11.115369   14.378926   -1.311470
  59 H     1.0000    0     1.008   -0.627389    9.981533    0.130391
  60 H     1.0000    0     1.008   -8.484870    6.132161   -1.933190
  61 H     1.0000    0     1.008    0.343930    2.025786    0.009449
  62 H     1.0000    0     1.008   -0.345820   -2.040904   -0.039684
  63 H     1.0000    0     1.008  -11.081354   -9.376821    3.581031
  64 H     1.0000    0     1.008   -9.059347    4.293458    0.262672
  65 H     1.0000    0     1.008   -9.070685   -4.081808   -3.768114
  66 H     1.0000    0     1.008  -12.927616   -6.768999   -3.577252
  67 H     1.0000    0     1.008  -15.926612   -8.571798    1.031790
  68 H     1.0000    0     1.008  -15.034661  -10.085468   -1.853821
  69 H     1.0000    0     1.008  -14.089798  -11.408277    1.103600
  70 H     1.0000    0     1.008   -9.990982   -0.650066    0.188973
  71 H     1.0000    0     1.008   -7.143165   -6.804904    3.679297
  72 H     1.0000    0     1.008    6.778448  -12.978639   -3.482765
  73 H     1.0000    0     1.008   -4.301017   -9.021553   -0.094486
  74 H     1.0000    0     1.008    7.018443   -7.037340    3.639613
  75 H     1.0000    0     1.008    9.622485  -10.950963    3.535678
  76 H     1.0000    0     1.008   11.725751  -13.849803   -0.829590
  77 H     1.0000    0     1.008   10.191293  -14.960962    1.969095
  78 H     1.0000    0     1.008    8.993207  -15.822677   -1.065806
  79 H     1.0000    0     1.008    0.621720   -9.996651   -0.015118
  80 H     1.0000    0     1.008    4.055352   -9.150054   -3.666069
  81 H     1.0000    0     1.008   10.975529    9.422175   -3.696304
  82 H     1.0000    0     1.008    9.048009   -4.310465   -0.349599
  83 H     1.0000    0     1.008    9.184069    3.994881    3.613156
  84 H     1.0000    0     1.008   13.041000    6.672623    3.348595
  85 H     1.0000    0     1.008   13.951848   11.544337    0.672743
  86 H     1.0000    0     1.008   15.900156    8.791006    0.822031
  87 H     1.0000    0     1.008   14.968521   10.034446   -2.173185
  88 H     1.0000    0     1.008    9.983423    0.634948   -0.338261
  89 H     1.0000    0     1.008    7.029781    6.863485   -3.717091

--------------------------------
INTERNAL COORDINATES (ANGSTROEM)
--------------------------------
 C      0   0   0     0.000000000000     0.00000000     0.00000000
 C      1   0   0     6.449297868761     0.00000000     0.00000000
 C      1   2   0     2.412978864391    20.62607898     0.00000000
 C      3   1   2     1.403522354649    87.92568407    48.39337146
 C      4   3   1     1.380436525162   120.13559736     0.08971562
 C      5   4   3     2.447551225204   152.54907488     1.68360850
 C      2   1   3     1.368114030335     5.12330328   293.46047290
 C      7   2   4     1.434084376876   108.05010202   230.70659006
 C      2   1   3     1.434123425651   107.91249443    27.74677405
 C      1   2   7     1.381369610206    46.32623221   262.27067196
 N      1   2   7     1.352267724972    77.04026347    63.41825571
 N      9   2   1     1.376127174356   106.58526707   353.85811220
 N     12   9   2     2.925062050624   168.53581413   171.12065651
 N     13  12   9     2.954513327098    91.55032014    11.12112580
 N     14  13  12     2.925371258490    88.43092389   359.84326247
 C      8   7   2     1.404790019896   127.24786865   181.11170171
 C     13  12   9     1.366535034311    81.72106996   188.00453233
 C     14  13  12     5.758810554272    80.56209567   166.76250791
 C     17  13  12     1.459010623676   111.08861209   183.82872609
 C     18  14  13     2.412235892279    27.27532823    36.33507194
 C     20  18  14     1.402692767501    87.95206320   148.94598259
 C     21  20  18     1.382106725257   120.14573887   359.70382047
 C     18  14  13     2.446510985056   144.15733107    82.80075377
 C     19  17  13     1.353610726908   106.29293361   359.75308708
 C     13  12   9     1.366813447402   172.21332906    33.46711076
 C     18  14  13     1.380960173213    15.08449437   309.23336894
 N     22  21  20     1.352773077792   120.73759875     0.27865223
 C     25  13  17     1.410897586645   125.60330303   182.37774668
 C     14  13  12     1.376642291955    80.24689249   177.85461986
 C     14  13  12     5.764089607215   164.51507311   312.20821879
 C     29  14  13     1.435600919476   106.58649366   178.76395472
 C     30  14  13     2.413316804732    27.10625047    82.12560436
 C     32  30  14     1.403734305344    87.90059683   149.76154742
 C     33  32  30     1.380694028378   120.14881443   359.74174632
 C     34  33  32     2.448777858443   152.49203239     2.45173620
 C     31  29  14     1.368160809262   108.16950133     0.70383075
 C     14  13  12     1.376239804685   169.26375223   353.09862627
 C     30  14  13     1.380907310430    14.68948582   353.70041132
 N     34  33  32     1.352658863128   120.85575621     0.19603406
 C     37  14  29     1.404717053360   126.01551127   180.90772073
 C     15  14  13     1.366491126938    81.61824056   183.09049352
 C      2   1   3     4.249062720177   153.97703600   149.95280163
 C     41  15  14     1.459677704153   111.05201287   175.08990246
 C     42   2   1     2.412953791518    41.78584867   210.09113933
 C     44  42   2     1.403446472082    87.95153797   233.97558675
 C     45  44  42     1.381696421071   120.11137308     0.19721020
 C     42   2   1     2.450019795838   135.97209175   120.40598843
 C     43  41  15     1.354461516618   106.26758155     0.30894352
 C     15  14  13     1.367461151185   171.87382904   332.35056460
 C     42   2   1     1.381886391857    32.59078432   258.94641852
 C      9   2   1     1.404988612053   126.98745415   174.86244973
 N     42   2   1     1.352765315936   113.57249190   148.14257763
 H      1   2   7     1.083120491912   159.54410759   197.38664472
 H      2   1   3     1.079907866440   126.68250276   202.60032967
 H      4   3   1     1.083078944491   121.07757572   179.56105887
 H      5   4   3     1.082582560362   122.78811785   179.45563578
 H      6   5   4     1.092484324830   104.44666811   100.05728731
 H      6   5   4     1.088914138029    84.71782483   209.50373607
 H      6   5   4     1.089904582980   133.90361159   322.37649515
 H      7   2  54     1.079807853278   126.66122480     1.30600390
 H     10   1   2     1.083985701013   118.73344616   202.39833289
 H     12   9   2     1.016297692608   125.29023241   180.00180175
 H     14  13  12     1.014936943854    44.97226959   359.42596618
 H     18  14  13     1.082871645210   128.03556573   234.20482432
 H     19  17  13     1.080893611786   126.41830519   178.11313280
 H     21  20  18     1.083569563987   121.05669627   180.67006309
 H     22  21  20     1.082483256222   122.73097286   180.59748951
 H     23  18  14     1.092105306278   103.92715769   234.93429879
 H     23  18  14     1.088871893291   134.19244188    12.25587044
 H     23  18  14     1.089833473518    84.85857450   125.45241208
 H     24  19  17     1.080075460327   127.28078426   178.44613241
 H     26  18  14     1.083408048706   118.76995697   244.94906660
 H     30  14  13     1.082703098730   127.99711412   279.66882698
 H     31  29  14     1.079759695488   125.22293469   180.92530585
 H     33  32  30     1.083188810873   121.01964473   180.74284758
 H     34  33  32     1.082494341787   122.70821597   180.59516895
 H     35  34  33     1.092652735319   105.73575241    97.19771933
 H     35  34  33     1.089462711615    84.05943581   206.43036958
 H     35  34  33     1.089268102902   133.08365142   318.50306270
 H     36  31  29     1.079439669458   126.61599965   178.98859863
 H     38  30  73     1.083742127999   118.77264435   359.90091293
 H     42   2   1     1.082178358682   119.31790784     4.77410808
 H     43  41  15     1.080281907652   126.36969097   182.06329380
 H     45  44  42     1.083277434455   121.10105945   179.58025624
 H     46  45  44     1.082194529648   122.72144639   179.46906377
 H     47  42   2     1.091546151109   106.65128841   315.16475048
 H     47  42   2     1.088818625851   132.46019523    94.52397119
 H     47  42   2     1.089531091801    83.63838232   206.04504406
 H     48  43  41     1.080402239909   127.23657387   181.62955349
 H     50  42   2     1.083186502870   118.77001737    94.71359229

---------------------------
INTERNAL COORDINATES (A.U.)
---------------------------
 C      0   0   0     0.000000000000     0.00000000     0.00000000
 C      1   0   0    12.187406728040     0.00000000     0.00000000
 C      1   2   0     4.559869220640    20.62607898     0.00000000
 C      3   1   2     2.652272873123    87.92568407    48.39337146
 C      4   3   1     2.608646977817   120.13559736     0.08971562
 C      5   4   3     4.625201514380   152.54907488     1.68360850
 C      2   1   3     2.585360837309     5.12330328   293.46047290
 C      7   2   4     2.710026725231   108.05010202   230.70659006
 C      2   1   3     2.710100516721   107.91249443    27.74677405
 C      1   2   7     2.610410253010    46.32623221   262.27067196
 N      1   2   7     2.555415659937    77.04026347    63.41825571
 N      9   2   1     2.600503484979   106.58526707   353.85811220
 N     12   9   2     5.527566200405   168.53581413   171.12065651
 N     13  12   9     5.583221047236    91.55032014    11.12112580
 N     14  13  12     5.528150518591    88.43092389   359.84326247
 C      8   7   2     2.654668413270   127.24786865   181.11170171
 C     13  12   9     2.582376967257    81.72106996   188.00453233
 C     14  13  12    10.882574804710    80.56209567   166.76250791
 C     17  13  12     2.757130505230   111.08861209   183.82872609
 C     18  14  13     4.558465206823    27.27532823    36.33507194
 C     20  18  14     2.650705180609    87.95206320   148.94598259
 C     21  20  18     2.611803198586   120.14573887   359.70382047
 C     18  14  13     4.623235745386   144.15733107    82.80075377
 C     19  17  13     2.557953565794   106.29293361   359.75308708
 C     13  12   9     2.582903091751   172.21332906    33.46711076
 C     18  14  13     2.609636529225    15.08449437   309.23336894
 N     22  21  20     2.556370638369   120.73759875     0.27865223
 C     25  13  17     2.666210041769   125.60330303   182.37774668
 C     14  13  12     2.601476916169    80.24689249   177.85461986
 C     14  13  12    10.892550769017   164.51507311   312.20821879
 C     29  14  13     2.712892575415   106.58649366   178.76395472
 C     30  14  13     4.560507835333    27.10625047    82.12560436
 C     32  30  14     2.652673401891    87.90059683   149.76154742
 C     33  32  30     2.609133588376   120.14881443   359.74174632
 C     34  33  32     4.627519515267   152.49203239     2.45173620
 C     31  29  14     2.585449236669   108.16950133     0.70383075
 C     14  13  12     2.600716325456   169.26375223   353.09862627
 C     30  14  13     2.609536633043    14.68948582   353.70041132
 N     34  33  32     2.556154803934   120.85575621     0.19603406
 C     37  14  29     2.654530526499   126.01551127   180.90772073
 C     15  14  13     2.582293994346    81.61824056   183.09049352
 C      2   1   3     8.029564866989   153.97703600   149.95280163
 C     41  15  14     2.758391104639   111.05201287   175.08990246
 C     42   2   1     4.559821839776    41.78584867   210.09113933
 C     44  42   2     2.652129475853    87.95153797   233.97558675
 C     45  44  42     2.611027836043   120.11137308     0.19721020
 C     42   2   1     4.629866436820   135.97209175   120.40598843
 C     43  41  15     2.559561325344   106.26758155     0.30894352
 C     15  14  13     2.584127074516   171.87382904   332.35056460
 C     42   2   1     2.611386828803    32.59078432   258.94641852
 C      9   2   1     2.655043698059   126.98745415   174.86244973
 N     42   2   1     2.556355970587   113.57249190   148.14257763
 H      1   2   7     2.046801099752   159.54410759   197.38664472
 H      2   1   3     2.040730117440   126.68250276   202.60032967
 H      4   3   1     2.046722586505   121.07757572   179.56105887
 H      5   4   3     2.045784556444   122.78811785   179.45563578
 H      6   5   4     2.064496179531   104.44666811   100.05728731
 H      6   5   4     2.057749504230    84.71782483   209.50373607
 H      6   5   4     2.059621173937   133.90361159   322.37649515
 H      7   2  54     2.040541119952   126.66122480     1.30600390
 H     10   1   2     2.048436108001   118.73344616   202.39833289
 H     12   9   2     1.920524309565   125.29023241   180.00180175
 H     14  13  12     1.917952867083    44.97226959   359.42596618
 H     18  14  13     2.046330847636   128.03556573   234.20482432
 H     19  17  13     2.042592906181   126.41830519   178.11313280
 H     21  20  18     2.047649722989   121.05669627   180.67006309
 H     22  21  20     2.045596898814   122.73097286   180.59748951
 H     23  18  14     2.063779938267   103.92715769   234.93429879
 H     23  18  14     2.057669673245   134.19244188    12.25587044
 H     23  18  14     2.059486796529    84.85857450   125.45241208
 H     24  19  17     2.041046823986   127.28078426   178.44613241
 H     26  18  14     2.047344503340   118.76995697   244.94906660
 H     30  14  13     2.046012340948   127.99711412   279.66882698
 H     31  29  14     2.040450114918   125.22293469   180.92530585
 H     33  32  30     2.046930203877   121.01964473   180.74284758
 H     34  33  32     2.045617847496   122.70821597   180.59516895
 H     35  34  33     2.064814429233   105.73575241    97.19771933
 H     35  34  33     2.058786158072    84.05943581   206.43036958
 H     35  34  33     2.058418400901   133.08365142   318.50306270
 H     36  31  29     2.039845353366   126.61599965   178.98859863
 H     38  30  73     2.047975821711   118.77264435   359.90091293
 H     42   2   1     2.045020725966   119.31790784     4.77410808
 H     43  41  15     2.041436952892   126.36969097   182.06329380
 H     45  44  42     2.047097678177   121.10105945   179.58025624
 H     46  45  44     2.045051284662   122.72144639   179.46906377
 H     47  42   2     2.062723288131   106.65128841   315.16475048
 H     47  42   2     2.057569012371   132.46019523    94.52397119
 H     47  42   2     2.058915377895    83.63838232   206.04504406
 H     48  43  41     2.041664347903   127.23657387   181.62955349
 H     50  42   2     2.046925842384   118.77001737    94.71359229

---------------------
BASIS SET INFORMATION
---------------------
There are 3 groups of distinct atoms

 Group   1 Type C   : 17s4p1d contracted to 3s2p1d pattern {881/31/1}
 Group   2 Type N   : 17s4p1d contracted to 3s2p1d pattern {881/31/1}
 Group   3 Type H   : 4s1p contracted to 2s1p pattern {31/1}

Atom   0C    basis set group =>   1
Atom   1N    basis set group =>   2
Atom   2C    basis set group =>   1
Atom   3N    basis set group =>   2
Atom   4C    basis set group =>   1
Atom   5N    basis set group =>   2
Atom   6C    basis set group =>   1
Atom   7N    basis set group =>   2
Atom   8C    basis set group =>   1
Atom   9N    basis set group =>   2
Atom  10C    basis set group =>   1
Atom  11N    basis set group =>   2
Atom  12C    basis set group =>   1
Atom  13N    basis set group =>   2
Atom  14C    basis set group =>   1
Atom  15N    basis set group =>   2
Atom  16C    basis set group =>   1
Atom  17C    basis set group =>   1
Atom  18C    basis set group =>   1
Atom  19C    basis set group =>   1
Atom  20C    basis set group =>   1
Atom  21C    basis set group =>   1
Atom  22C    basis set group =>   1
Atom  23C    basis set group =>   1
Atom  24C    basis set group =>   1
Atom  25C    basis set group =>   1
Atom  26C    basis set group =>   1
Atom  27C    basis set group =>   1
Atom  28C    basis set group =>   1
Atom  29C    basis set group =>   1
Atom  30C    basis set group =>   1
Atom  31C    basis set group =>   1
Atom  32C    basis set group =>   1
Atom  33C    basis set group =>   1
Atom  34C    basis set group =>   1
Atom  35C    basis set group =>   1
Atom  36C    basis set group =>   1
Atom  37C    basis set group =>   1
Atom  38C    basis set group =>   1
Atom  39C    basis set group =>   1
Atom  40C    basis set group =>   1
Atom  41C    basis set group =>   1
Atom  42C    basis set group =>   1
Atom  43C    basis set group =>   1
Atom  44C    basis set group =>   1
Atom  45C    basis set group =>   1
Atom  46C    basis set group =>   1
Atom  47C    basis set group =>   1
Atom  48C    basis set group =>   1
Atom  49C    basis set group =>   1
Atom  50C    basis set group =>   1
Atom  51C    basis set group =>   1
Atom  52H    basis set group =>   3
Atom  53H    basis set group =>   3
Atom  54H    basis set group =>   3
Atom  55H    basis set group =>   3
Atom  56H    basis set group =>   3
Atom  57H    basis set group =>   3
Atom  58H    basis set group =>   3
Atom  59H    basis set group =>   3
Atom  60H    basis set group =>   3
Atom  61H    basis set group =>   3
Atom  62H    basis set group =>   3
Atom  63H    basis set group =>   3
Atom  64H    basis set group =>   3
Atom  65H    basis set group =>   3
Atom  66H    basis set group =>   3
Atom  67H    basis set group =>   3
Atom  68H    basis set group =>   3
Atom  69H    basis set group =>   3
Atom  70H    basis set group =>   3
Atom  71H    basis set group =>   3
Atom  72H    basis set group =>   3
Atom  73H    basis set group =>   3
Atom  74H    basis set group =>   3
Atom  75H    basis set group =>   3
Atom  76H    basis set group =>   3
Atom  77H    basis set group =>   3
Atom  78H    basis set group =>   3
Atom  79H    basis set group =>   3
Atom  80H    basis set group =>   3
Atom  81H    basis set group =>   3
Atom  82H    basis set group =>   3
Atom  83H    basis set group =>   3
Atom  84H    basis set group =>   3
Atom  85H    basis set group =>   3
Atom  86H    basis set group =>   3
Atom  87H    basis set group =>   3
Atom  88H    basis set group =>   3
Atom  89H    basis set group =>   3


           ************************************************************
           *        Program running with 16 parallel MPI-processes    *
           *              working on a common directory               *
           ************************************************************
------------------------------------------------------------------------------
                           ORCA GTO INTEGRAL CALCULATION
------------------------------------------------------------------------------
------------------------------------------------------------------------------
                   ___                                                        
                  /   \      - P O W E R E D   B Y -                         
                 /     \                                                     
                 |  |  |   _    _      __       _____    __    __             
                 |  |  |  | |  | |    /  \     |  _  \  |  |  /  |          
                  \  \/   | |  | |   /    \    | | | |  |  | /  /          
                 / \  \   | |__| |  /  /\  \   | |_| |  |  |/  /          
                |  |  |   |  __  | /  /__\  \  |    /   |      \           
                |  |  |   | |  | | |   __   |  |    \   |  |\   \          
                \     /   | |  | | |  |  |  |  | |\  \  |  | \   \       
                 \___/    |_|  |_| |__|  |__|  |_| \__\ |__|  \__/        
                                                                              
                      - O R C A' S   B I G   F R I E N D -                    
                                      &                                       
                       - I N T E G R A L  F E E D E R -                       
                                                                              
 v1 FN, 2020, v2 2021                                                         
------------------------------------------------------------------------------


Reading SHARK input file /scratch/allen/tmpyp4_amber_gaff2/conf1/conf1/Conf153.orca.SHARKINP.tmp ... ok
----------------------
SHARK INTEGRAL PACKAGE
----------------------

Number of atoms                             ...     90
Number of basis functions                   ...   1230
Number of shells                            ...    738
Maximum angular momentum                    ...      2
Integral batch strategy                     ... SHARK/LIBINT Hybrid
RI-J (if used) integral strategy            ... SPLIT-RIJ (Revised 2003 algorithm where possible)
Printlevel                                  ...      1
Contraction scheme used                     ... PARTIAL GENERAL contraction
Coulomb Range Separation                    ... NOT USED
Exchange Range Separation                   ... NOT USED
Finite Nucleus Model                        ... NOT USED
Auxiliary Coulomb fitting basis             ... NOT available
Auxiliary J/K fitting basis                 ... NOT available
Auxiliary Correlation fitting basis         ... NOT available
Auxiliary 'external' fitting basis          ... NOT available
Integral threshold                          ...     2.500000e-11
Primitive cut-off                           ...     2.500000e-12
Primitive pair pre-selection threshold      ...     2.500000e-12

Calculating pre-screening integrals         ... done (  0.1 sec) Dimension = 738
Calculating pre-screening integrals (ORCA)  ... done (  0.3 sec) Dimension = 426
Organizing shell pair data                  ... done (  0.7 sec)
Shell pair information
Total number of shell pairs                 ...    272691
Shell pairs after pre-screening             ...     71671
Total number of primitive shell pairs       ...    422091
Primitive shell pairs kept                  ...     92532
          la=0 lb=0:  29411 shell pairs
          la=1 lb=0:  26014 shell pairs
          la=1 lb=1:   4707 shell pairs
          la=2 lb=0:   7886 shell pairs
          la=2 lb=1:   3124 shell pairs
          la=2 lb=2:    529 shell pairs

Calculating one electron integrals          ... done (  0.2 sec)
Calculating Nuclear repulsion               ... done (  0.0 sec) ENN=   6231.603205019824 Eh

SHARK setup successfully completed in   2.4 seconds

Maximum memory used throughout the entire GTOINT-calculation: 99.0 MB


           ************************************************************
           *        Program running with 16 parallel MPI-processes    *
           *              working on a common directory               *
           ************************************************************
-------------------------------------------------------------------------------
                                 ORCA SCF
-------------------------------------------------------------------------------

------------
SCF SETTINGS
------------
Hamiltonian:
 Ab initio Hamiltonian  Method          .... Hartree-Fock(GTOs)


General Settings:
 Integral files         IntName         .... /scratch/allen/tmpyp4_amber_gaff2/conf1/conf1/Conf153.orca
 Hartree-Fock type      HFTyp           .... RHF
 Total Charge           Charge          ....    0
 Multiplicity           Mult            ....    1
 Number of Electrons    NEL             ....  358
 Basis Dimension        Dim             ....  918
 Nuclear Repulsion      ENuc            ....   6231.6032050198 Eh

Convergence Acceleration:
 DIIS                   CNVDIIS         .... on
   Start iteration      DIISMaxIt       ....    12
   Startup error        DIISStart       ....  0.200000
   # of expansion vecs  DIISMaxEq       ....     5
   Bias factor          DIISBfac        ....   1.050
   Max. coefficient     DIISMaxC        ....  10.000
 Trust-Rad. Augm. Hess. CNVTRAH         .... auto
   Auto Start mean grad. ratio tolernc. ....  1.125000
   Auto Start start iteration           ....    20
   Auto Start num. interpolation iter.  ....    10
   Max. Number of Micro iterations      ....    16
   Max. Number of Macro iterations      .... Maxiter - #DIIS iter
   Number of Davidson start vectors     ....     2
   Converg. threshold I  (grad. norm)   ....   1.000e-05
   Converg. threshold II (energy diff.) ....   1.000e-08
   Grad. Scal. Fac. for Micro threshold ....   0.100
   Minimum threshold for Micro iter.    ....   0.010
   NR start threshold (gradient norm)   ....   0.001
   Initial trust radius                 ....   0.400
   Minimum AH scaling param. (alpha)    ....   1.000
   Maximum AH scaling param. (alpha)    .... 1000.000
   Orbital update algorithm             .... Taylor
   White noise on init. David. guess    .... on
   Maximum white noise                  ....   0.010
   Quad. conv. algorithm                .... NR
 SOSCF                  CNVSOSCF        .... on
   Start iteration      SOSCFMaxIt      ....   150
   Startup grad/error   SOSCFStart      ....  0.003300
 Level Shifting         CNVShift        .... on
   Level shift para.    LevelShift      ....    0.2500
   Turn off err/grad.   ShiftErr        ....    0.0010
 Zerner damping         CNVZerner       .... off
 Static damping         CNVDamp         .... on
   Fraction old density DampFac         ....    0.7000
   Max. Damping (<1)    DampMax         ....    0.9800
   Min. Damping (>=0)   DampMin         ....    0.0000
   Turn off err/grad.   DampErr         ....    0.1000
 Fernandez-Rico         CNVRico         .... off

SCF Procedure:
 Maximum # iterations   MaxIter         ....   125
 SCF integral mode      SCFMode         .... Direct
   Integral package                     .... SHARK and LIBINT hybrid scheme
 Reset frequency        DirectResetFreq ....    20
 Integral Threshold     Thresh          ....  2.500e-11 Eh
 Primitive CutOff       TCut            ....  2.500e-12 Eh

Convergence Tolerance:
 Convergence Check Mode ConvCheckMode   .... Total+1el-Energy
 Convergence forced     ConvForced      .... 1
 Energy Change          TolE            ....  1.000e-08 Eh
 1-El. energy change                    ....  1.000e-05 Eh
 Orbital Gradient       TolG            ....  1.000e-05
 Orbital Rotation angle TolX            ....  1.000e-05
 DIIS Error             TolErr          ....  5.000e-07


Diagonalization of the overlap matrix:
Smallest eigenvalue                        ... 2.177e-04
Time for diagonalization                   ...    0.419 sec
Threshold for overlap eigenvalues          ... 1.000e-08
Number of eigenvalues below threshold      ... 0
Time for construction of square roots      ...    0.270 sec
Total time needed                          ...    0.696 sec

Time for model grid setup =    1.290 sec

------------------------------
INITIAL GUESS: MODEL POTENTIAL
------------------------------
Loading Hartree-Fock densities                     ... done
Calculating cut-offs                               ... done
Initializing the effective Hamiltonian             ... done
Setting up the integral package (SHARK)            ... done
Starting the Coulomb interaction                   ... done (   1.5 sec)
Reading the grid                                   ... done
Mapping shells                                     ... done
Starting the XC term evaluation                    ... done (   0.2 sec)
Transforming the Hamiltonian                       ... done (   0.3 sec)
Diagonalizing the Hamiltonian                      ... done (   0.4 sec)
Back transforming the eigenvectors                 ... done (   0.1 sec)
Now organizing SCF variables                       ... done
                      ------------------
                      INITIAL GUESS DONE (   3.8 sec)
                      ------------------
--------------
SCF ITERATIONS
--------------
ITER       Energy         Delta-E        Max-DP      RMS-DP      [F,P]     Damp
               ***  Starting incremental Fock matrix formation  ***
  0  -2121.6887559761   0.000000000000 0.08061396  0.00121978  0.2318862 0.7000
  1  -2122.3408434853  -0.652087509250 0.06059842  0.00099182  0.1437209 0.7000
                               ***Turning on DIIS***
  2  -2122.7465982603  -0.405754774936 0.14085674  0.00225383  0.0802610 0.0000
  3  -2117.9751991423   4.771399117959 0.03328625  0.00066864  0.0437727 0.0000
  4  -2123.4273944723  -5.452195329943 0.01074428  0.00022472  0.0083361 0.0000
  5  -2123.5793376300  -0.151943157747 0.00532424  0.00013194  0.0049624 0.0000
  6  -2123.5631750089   0.016162621076 0.00364562  0.00008481  0.0020241 0.0000
  7  -2123.6595530309  -0.096378021930 0.00311035  0.00006685  0.0015914 0.0000
  8  -2123.6694961731  -0.009943142268 0.00328610  0.00006331  0.0014814 0.0000
  9  -2123.6398247438   0.029671429311 0.00262413  0.00004449  0.0011862 0.0000
 10  -2123.6489135060  -0.009088762210 0.00528974  0.00009307  0.0009193 0.0000
                      *** Initiating the SOSCF procedure ***
                           *** Shutting down DIIS ***
                      *** Re-Reading the Fockian *** 
                      *** Removing any level shift *** 
ITER      Energy       Delta-E        Grad      Rot      Max-DP    RMS-DP
 11  -2123.54062161   0.1082919003  0.000180  0.000180  0.000243  0.000005
               *** Restarting incremental Fock matrix formation ***
 12  -2123.60660831  -0.0659866995  0.000851  0.006268  0.001413  0.000035
 13  -2123.60671376  -0.0001054511  0.001063  0.031692  0.006626  0.000136
 14  -2123.60689583  -0.0001820698  0.000347  0.001743  0.000632  0.000012
 15  -2123.60691125  -0.0000154199  0.000161  0.002186  0.000676  0.000016
 16  -2123.60691977  -0.0000085241  0.000156  0.002678  0.000460  0.000009
 17  -2123.60692246  -0.0000026849  0.000119  0.001836  0.000299  0.000006
 18  -2123.60692382  -0.0000013626  0.000065  0.000625  0.000266  0.000003
 19  -2123.60692442  -0.0000006064  0.000041  0.000582  0.000149  0.000003
 20  -2123.60692464  -0.0000002183  0.000020  0.000348  0.000091  0.000002
 21  -2123.60692474  -0.0000000964  0.000020  0.000369  0.000100  0.000002
 22  -2123.60692481  -0.0000000697  0.000015  0.000357  0.000080  0.000001
 23  -2123.60692485  -0.0000000449  0.000007  0.000250  0.000053  0.000001
 24  -2123.60692488  -0.0000000260  0.000004  0.000206  0.000037  0.000001
 25  -2123.60692490  -0.0000000170  0.000005  0.000144  0.000023  0.000000
 26  -2123.60692491  -0.0000000110  0.000004  0.000154  0.000024  0.000001
 27  -2123.60692492  -0.0000000083  0.000003  0.000137  0.000021  0.000000
                  ***Gradient check signals convergence***
              ***Rediagonalizing the Fockian in SOSCF/NRSCF***

               *****************************************************
               *                     SUCCESS                       *
               *           SCF CONVERGED AFTER  28 CYCLES          *
               *****************************************************


----------------
TOTAL SCF ENERGY
----------------

Total Energy       :        -2123.60692492 Eh          -57786.28222 eV

Components:
Nuclear Repulsion  :         6231.60320502 Eh          169570.54401 eV
Electronic Energy  :        -8355.21012994 Eh         -227356.82623 eV
One Electron Energy:       -15303.97029706 Eh         -416442.20330 eV
Two Electron Energy:         6948.76016712 Eh          189085.37706 eV

Virial components:
Potential Energy   :        -4245.80323473 Eh         -115534.17966 eV
Kinetic Energy     :         2122.19630981 Eh           57747.89744 eV
Virial Ratio       :            2.00066470


---------------
SCF CONVERGENCE
---------------

  Last Energy change         ...   -2.7394e-09  Tolerance :   1.0000e-08
  Last MAX-Density change    ...    1.2821e-05  Tolerance :   1.0000e-07
  Last RMS-Density change    ...    2.9613e-07  Tolerance :   5.0000e-09
  Last Orbital Gradient      ...    1.9350e-06  Tolerance :   1.0000e-05
  Last Orbital Rotation      ...    9.2166e-05  Tolerance :   1.0000e-05

             **** THE GBW FILE WAS UPDATED (/scratch/allen/tmpyp4_amber_gaff2/conf1/conf1/Conf153.orca.gbw) ****
             **** DENSITY /scratch/allen/tmpyp4_amber_gaff2/conf1/conf1/Conf153.orca.scfp WAS UPDATED ****
             **** ENERGY FILE WAS UPDATED (/scratch/allen/tmpyp4_amber_gaff2/conf1/conf1/Conf153.orca.en.tmp) ****
             **** THE GBW FILE WAS UPDATED (/scratch/allen/tmpyp4_amber_gaff2/conf1/conf1/Conf153.orca.gbw) ****
             **** DENSITY /scratch/allen/tmpyp4_amber_gaff2/conf1/conf1/Conf153.orca.scfp WAS UPDATED ****
----------------
ORBITAL ENERGIES
----------------

  NO   OCC          E(Eh)            E(eV) 
   0   2.0000     -15.674221      -426.5172 
   1   2.0000     -15.637122      -425.5077 
   2   2.0000     -15.628902      -425.2840 
   3   2.0000     -15.589459      -424.2108 
   4   2.0000     -15.525360      -422.4665 
   5   2.0000     -15.515804      -422.2065 
   6   2.0000     -15.452115      -420.4734 
   7   2.0000     -15.442448      -420.2104 
   8   2.0000     -11.325223      -308.1750 
   9   2.0000     -11.324493      -308.1551 
  10   2.0000     -11.323218      -308.1204 
  11   2.0000     -11.301289      -307.5237 
  12   2.0000     -11.296496      -307.3933 
  13   2.0000     -11.295333      -307.3616 
  14   2.0000     -11.289724      -307.2090 
  15   2.0000     -11.288390      -307.1727 
  16   2.0000     -11.284304      -307.0615 
  17   2.0000     -11.276849      -306.8587 
  18   2.0000     -11.272197      -306.7321 
  19   2.0000     -11.259503      -306.3867 
  20   2.0000     -11.258554      -306.3608 
  21   2.0000     -11.254733      -306.2569 
  22   2.0000     -11.253560      -306.2249 
  23   2.0000     -11.240793      -305.8775 
  24   2.0000     -11.233738      -305.6855 
  25   2.0000     -11.233573      -305.6811 
  26   2.0000     -11.232984      -305.6650 
  27   2.0000     -11.227554      -305.5173 
  28   2.0000     -11.227238      -305.5087 
  29   2.0000     -11.211013      -305.0672 
  30   2.0000     -11.209528      -305.0268 
  31   2.0000     -11.198757      -304.7337 
  32   2.0000     -11.190787      -304.5168 
  33   2.0000     -11.190389      -304.5060 
  34   2.0000     -11.189506      -304.4819 
  35   2.0000     -11.189177      -304.4730 
  36   2.0000     -11.188657      -304.4588 
  37   2.0000     -11.185126      -304.3628 
  38   2.0000     -11.184023      -304.3327 
  39   2.0000     -11.174474      -304.0729 
  40   2.0000     -11.173648      -304.0504 
  41   2.0000     -11.168852      -303.9199 
  42   2.0000     -11.168717      -303.9162 
  43   2.0000     -11.161416      -303.7176 
  44   2.0000     -11.159775      -303.6729 
  45   2.0000     -11.158520      -303.6388 
  46   2.0000     -11.157688      -303.6161 
  47   2.0000     -11.153381      -303.4989 
  48   2.0000     -11.146997      -303.3252 
  49   2.0000     -11.138930      -303.1057 
  50   2.0000     -11.133203      -302.9498 
  51   2.0000     -11.124204      -302.7050 
  52   2.0000      -1.355644       -36.8890 
  53   2.0000      -1.323953       -36.0266 
  54   2.0000      -1.317077       -35.8395 
  55   2.0000      -1.283669       -34.9304 
  56   2.0000      -1.226161       -33.3655 
  57   2.0000      -1.210108       -32.9287 
  58   2.0000      -1.170990       -31.8643 
  59   2.0000      -1.152813       -31.3696 
  60   2.0000      -1.139665       -31.0119 
  61   2.0000      -1.112498       -30.2726 
  62   2.0000      -1.106866       -30.1194 
  63   2.0000      -1.079951       -29.3870 
  64   2.0000      -1.077690       -29.3254 
  65   2.0000      -1.048039       -28.5186 
  66   2.0000      -1.041853       -28.3503 
  67   2.0000      -1.038579       -28.2612 
  68   2.0000      -1.015155       -27.6238 
  69   2.0000      -1.012731       -27.5578 
  70   2.0000      -1.009228       -27.4625 
  71   2.0000      -0.993501       -27.0345 
  72   2.0000      -0.986569       -26.8459 
  73   2.0000      -0.980319       -26.6758 
  74   2.0000      -0.971915       -26.4471 
  75   2.0000      -0.960307       -26.1313 
  76   2.0000      -0.952872       -25.9290 
  77   2.0000      -0.946228       -25.7482 
  78   2.0000      -0.935069       -25.4445 
  79   2.0000      -0.918999       -25.0072 
  80   2.0000      -0.906613       -24.6702 
  81   2.0000      -0.893956       -24.3258 
  82   2.0000      -0.875558       -23.8251 
  83   2.0000      -0.872731       -23.7482 
  84   2.0000      -0.867800       -23.6140 
  85   2.0000      -0.856346       -23.3024 
  86   2.0000      -0.839351       -22.8399 
  87   2.0000      -0.836793       -22.7703 
  88   2.0000      -0.823748       -22.4153 
  89   2.0000      -0.797848       -21.7106 
  90   2.0000      -0.791308       -21.5326 
  91   2.0000      -0.750594       -20.4247 
  92   2.0000      -0.741856       -20.1869 
  93   2.0000      -0.733445       -19.9581 
  94   2.0000      -0.724582       -19.7169 
  95   2.0000      -0.721284       -19.6271 
  96   2.0000      -0.715771       -19.4771 
  97   2.0000      -0.711074       -19.3493 
  98   2.0000      -0.706122       -19.2145 
  99   2.0000      -0.697040       -18.9674 
 100   2.0000      -0.696142       -18.9430 
 101   2.0000      -0.684115       -18.6157 
 102   2.0000      -0.680652       -18.5215 
 103   2.0000      -0.679689       -18.4953 
 104   2.0000      -0.676688       -18.4136 
 105   2.0000      -0.671814       -18.2810 
 106   2.0000      -0.669080       -18.2066 
 107   2.0000      -0.661477       -17.9997 
 108   2.0000      -0.655291       -17.8314 
 109   2.0000      -0.654096       -17.7989 
 110   2.0000      -0.649233       -17.6665 
 111   2.0000      -0.643067       -17.4987 
 112   2.0000      -0.642085       -17.4720 
 113   2.0000      -0.640163       -17.4197 
 114   2.0000      -0.637020       -17.3342 
 115   2.0000      -0.626287       -17.0421 
 116   2.0000      -0.623642       -16.9702 
 117   2.0000      -0.617509       -16.8033 
 118   2.0000      -0.614819       -16.7301 
 119   2.0000      -0.613202       -16.6861 
 120   2.0000      -0.609258       -16.5787 
 121   2.0000      -0.607817       -16.5395 
 122   2.0000      -0.599400       -16.3105 
 123   2.0000      -0.586382       -15.9563 
 124   2.0000      -0.583243       -15.8709 
 125   2.0000      -0.580568       -15.7981 
 126   2.0000      -0.578693       -15.7470 
 127   2.0000      -0.576551       -15.6887 
 128   2.0000      -0.567337       -15.4380 
 129   2.0000      -0.558896       -15.2083 
 130   2.0000      -0.550632       -14.9835 
 131   2.0000      -0.547703       -14.9038 
 132   2.0000      -0.543681       -14.7943 
 133   2.0000      -0.541066       -14.7232 
 134   2.0000      -0.539608       -14.6835 
 135   2.0000      -0.534300       -14.5390 
 136   2.0000      -0.527245       -14.3471 
 137   2.0000      -0.522155       -14.2086 
 138   2.0000      -0.518361       -14.1053 
 139   2.0000      -0.513554       -13.9745 
 140   2.0000      -0.512246       -13.9389 
 141   2.0000      -0.510425       -13.8894 
 142   2.0000      -0.510413       -13.8890 
 143   2.0000      -0.503799       -13.7091 
 144   2.0000      -0.500344       -13.6151 
 145   2.0000      -0.496314       -13.5054 
 146   2.0000      -0.493904       -13.4398 
 147   2.0000      -0.483391       -13.1537 
 148   2.0000      -0.478753       -13.0275 
 149   2.0000      -0.466850       -12.7036 
 150   2.0000      -0.465996       -12.6804 
 151   2.0000      -0.457225       -12.4417 
 152   2.0000      -0.450001       -12.2451 
 153   2.0000      -0.446088       -12.1387 
 154   2.0000      -0.441913       -12.0251 
 155   2.0000      -0.431369       -11.7382 
 156   2.0000      -0.428789       -11.6679 
 157   2.0000      -0.420269       -11.4361 
 158   2.0000      -0.405866       -11.0442 
 159   2.0000      -0.387035       -10.5318 
 160   2.0000      -0.383986       -10.4488 
 161   2.0000      -0.378315       -10.2945 
 162   2.0000      -0.371234       -10.1018 
 163   2.0000      -0.358849        -9.7648 
 164   2.0000      -0.353807        -9.6276 
 165   2.0000      -0.339974        -9.2512 
 166   2.0000      -0.337768        -9.1911 
 167   2.0000      -0.326976        -8.8975 
 168   2.0000      -0.323898        -8.8137 
 169   2.0000      -0.305165        -8.3040 
 170   2.0000      -0.299476        -8.1492 
 171   2.0000      -0.285569        -7.7707 
 172   2.0000      -0.281491        -7.6598 
 173   2.0000      -0.262053        -7.1308 
 174   2.0000      -0.243275        -6.6199 
 175   2.0000      -0.190012        -5.1705 
 176   2.0000      -0.180419        -4.9094 
 177   2.0000      -0.076402        -2.0790 
 178   2.0000      -0.058562        -1.5936 
 179   0.0000       0.028347         0.7714 
 180   0.0000       0.066033         1.7968 
 181   0.0000       0.091299         2.4844 
 182   0.0000       0.109592         2.9822 
 183   0.0000       0.110757         3.0138 
 184   0.0000       0.135029         3.6743 
 185   0.0000       0.141172         3.8415 
 186   0.0000       0.143827         3.9137 
 187   0.0000       0.163305         4.4438 
 188   0.0000       0.164327         4.4716 
 189   0.0000       0.167254         4.5512 
 190   0.0000       0.170927         4.6512 
 191   0.0000       0.183280         4.9873 
 192   0.0000       0.186703         5.0805 
 193   0.0000       0.187490         5.1019 
 194   0.0000       0.203096         5.5265 
 195   0.0000       0.206436         5.6174 
 196   0.0000       0.207259         5.6398 
 197   0.0000       0.210345         5.7238 
 198   0.0000       0.219217         5.9652 
 199   0.0000       0.227289         6.1848 
 200   0.0000       0.232353         6.3226 
 201   0.0000       0.236231         6.4282 
 202   0.0000       0.238029         6.4771 
 203   0.0000       0.241066         6.5598 
 204   0.0000       0.247727         6.7410 
 205   0.0000       0.255255         6.9458 
 206   0.0000       0.257026         6.9940 
 207   0.0000       0.257911         7.0181 
 208   0.0000       0.259985         7.0746 
 209   0.0000       0.261168         7.1067 
 210   0.0000       0.263883         7.1806 
 211   0.0000       0.268176         7.2974 
 212   0.0000       0.271117         7.3775 
 213   0.0000       0.271758         7.3949 
 214   0.0000       0.272462         7.4141 
 215   0.0000       0.276767         7.5312 
 216   0.0000       0.278575         7.5804 
 217   0.0000       0.280518         7.6333 
 218   0.0000       0.285338         7.7644 
 219   0.0000       0.288595         7.8531 
 220   0.0000       0.289165         7.8686 
 221   0.0000       0.292801         7.9675 
 222   0.0000       0.294156         8.0044 
 223   0.0000       0.295287         8.0352 
 224   0.0000       0.299027         8.1369 
 225   0.0000       0.300018         8.1639 
 226   0.0000       0.305570         8.3150 
 227   0.0000       0.308701         8.4002 
 228   0.0000       0.309952         8.4342 
 229   0.0000       0.323515         8.8033 
 230   0.0000       0.326760         8.8916 
 231   0.0000       0.331595         9.0232 
 232   0.0000       0.336026         9.1437 
 233   0.0000       0.340163         9.2563 
 234   0.0000       0.348789         9.4910 
 235   0.0000       0.355191         9.6652 
 236   0.0000       0.370581        10.0840 
 237   0.0000       0.377369        10.2687 
 238   0.0000       0.393100        10.6968 
 239   0.0000       0.396422        10.7872 
 240   0.0000       0.400636        10.9019 
 241   0.0000       0.410387        11.1672 
 242   0.0000       0.414647        11.2831 
 243   0.0000       0.419525        11.4159 
 244   0.0000       0.427612        11.6359 
 245   0.0000       0.434560        11.8250 
 246   0.0000       0.437324        11.9002 
 247   0.0000       0.438871        11.9423 
 248   0.0000       0.443171        12.0593 
 249   0.0000       0.449255        12.2249 
 250   0.0000       0.457092        12.4381 
 251   0.0000       0.459676        12.5084 
 252   0.0000       0.468464        12.7475 
 253   0.0000       0.469598        12.7784 
 254   0.0000       0.471660        12.8345 
 255   0.0000       0.475154        12.9296 
 256   0.0000       0.477389        12.9904 
 257   0.0000       0.481779        13.1099 
 258   0.0000       0.486466        13.2374 
 259   0.0000       0.497498        13.5376 
 260   0.0000       0.503093        13.6899 
 261   0.0000       0.504448        13.7267 
 262   0.0000       0.507368        13.8062 
 263   0.0000       0.509111        13.8536 
 264   0.0000       0.514440        13.9986 
 265   0.0000       0.518236        14.1019 
 266   0.0000       0.524507        14.2726 
 267   0.0000       0.529386        14.4053 
 268   0.0000       0.532982        14.5032 
 269   0.0000       0.536395        14.5961 
 270   0.0000       0.539684        14.6856 
 271   0.0000       0.547765        14.9054 
 272   0.0000       0.554318        15.0838 
 273   0.0000       0.558288        15.1918 
 274   0.0000       0.562004        15.2929 
 275   0.0000       0.564141        15.3511 
 276   0.0000       0.570673        15.5288 
 277   0.0000       0.570841        15.5334 
 278   0.0000       0.577784        15.7223 
 279   0.0000       0.587170        15.9777 
 280   0.0000       0.589235        16.0339 
 281   0.0000       0.591954        16.1079 
 282   0.0000       0.593580        16.1521 
 283   0.0000       0.595751        16.2112 
 284   0.0000       0.596850        16.2411 
 285   0.0000       0.598726        16.2922 
 286   0.0000       0.608129        16.5480 
 287   0.0000       0.612015        16.6538 
 288   0.0000       0.618015        16.8170 
 289   0.0000       0.623328        16.9616 
 290   0.0000       0.627113        17.0646 
 291   0.0000       0.630374        17.1533 
 292   0.0000       0.634227        17.2582 
 293   0.0000       0.637346        17.3431 
 294   0.0000       0.645595        17.5675 
 295   0.0000       0.649394        17.6709 
 296   0.0000       0.653605        17.7855 
 297   0.0000       0.656210        17.8564 
 298   0.0000       0.663758        18.0618 
 299   0.0000       0.668091        18.1797 
 300   0.0000       0.670056        18.2332 
 301   0.0000       0.675241        18.3742 
 302   0.0000       0.675992        18.3947 
 303   0.0000       0.678797        18.4710 
 304   0.0000       0.681307        18.5393 
 305   0.0000       0.685812        18.6619 
 306   0.0000       0.688573        18.7370 
 307   0.0000       0.690732        18.7958 
 308   0.0000       0.695579        18.9277 
 309   0.0000       0.697752        18.9868 
 310   0.0000       0.701970        19.1016 
 311   0.0000       0.704376        19.1671 
 312   0.0000       0.708685        19.2843 
 313   0.0000       0.710082        19.3223 
 314   0.0000       0.710723        19.3398 
 315   0.0000       0.714992        19.4559 
 316   0.0000       0.716816        19.5056 
 317   0.0000       0.718916        19.5627 
 318   0.0000       0.721568        19.6349 
 319   0.0000       0.724521        19.7152 
 320   0.0000       0.726351        19.7650 
 321   0.0000       0.731656        19.9094 
 322   0.0000       0.732714        19.9382 
 323   0.0000       0.733544        19.9607 
 324   0.0000       0.736317        20.0362 
 325   0.0000       0.739836        20.1320 
 326   0.0000       0.745000        20.2725 
 327   0.0000       0.746301        20.3079 
 328   0.0000       0.749976        20.4079 
 329   0.0000       0.752551        20.4779 
 330   0.0000       0.753404        20.5012 
 331   0.0000       0.756978        20.5984 
 332   0.0000       0.760835        20.7034 
 333   0.0000       0.762417        20.7464 
 334   0.0000       0.767512        20.8851 
 335   0.0000       0.772458        21.0197 
 336   0.0000       0.776728        21.1358 
 337   0.0000       0.782478        21.2923 
 338   0.0000       0.783424        21.3180 
 339   0.0000       0.788106        21.4455 
 340   0.0000       0.793338        21.5878 
 341   0.0000       0.794739        21.6259 
 342   0.0000       0.795707        21.6523 
 343   0.0000       0.802338        21.8327 
 344   0.0000       0.804222        21.8840 
 345   0.0000       0.805759        21.9258 
 346   0.0000       0.807957        21.9856 
 347   0.0000       0.812096        22.0983 
 348   0.0000       0.815416        22.1886 
 349   0.0000       0.817413        22.2429 
 350   0.0000       0.819025        22.2868 
 351   0.0000       0.820363        22.3232 
 352   0.0000       0.822087        22.3701 
 353   0.0000       0.823498        22.4085 
 354   0.0000       0.830045        22.5867 
 355   0.0000       0.832599        22.6562 
 356   0.0000       0.834221        22.7003 
 357   0.0000       0.835522        22.7357 
 358   0.0000       0.836460        22.7612 
 359   0.0000       0.838953        22.8291 
 360   0.0000       0.842144        22.9159 
 361   0.0000       0.843671        22.9575 
 362   0.0000       0.844643        22.9839 
 363   0.0000       0.844998        22.9936 
 364   0.0000       0.849208        23.1081 
 365   0.0000       0.853862        23.2348 
 366   0.0000       0.857733        23.3401 
 367   0.0000       0.861675        23.4474 
 368   0.0000       0.863485        23.4966 
 369   0.0000       0.865116        23.5410 
 370   0.0000       0.870386        23.6844 
 371   0.0000       0.871816        23.7233 
 372   0.0000       0.874629        23.7999 
 373   0.0000       0.879793        23.9404 
 374   0.0000       0.880288        23.9538 
 375   0.0000       0.882106        24.0033 
 376   0.0000       0.886134        24.1129 
 377   0.0000       0.888764        24.1845 
 378   0.0000       0.892462        24.2851 
 379   0.0000       0.893699        24.3188 
 380   0.0000       0.896082        24.3836 
 381   0.0000       0.898880        24.4598 
 382   0.0000       0.900736        24.5103 
 383   0.0000       0.902013        24.5450 
 384   0.0000       0.903760        24.5926 
 385   0.0000       0.906353        24.6631 
 386   0.0000       0.906654        24.6713 
 387   0.0000       0.909343        24.7445 
 388   0.0000       0.912024        24.8174 
 389   0.0000       0.915407        24.9095 
 390   0.0000       0.920323        25.0433 
 391   0.0000       0.923499        25.1297 
 392   0.0000       0.925943        25.1962 
 393   0.0000       0.927585        25.2409 
 394   0.0000       0.928392        25.2628 
 395   0.0000       0.930391        25.3172 
 396   0.0000       0.931924        25.3589 
 397   0.0000       0.933445        25.4003 
 398   0.0000       0.942076        25.6352 
 399   0.0000       0.942798        25.6548 
 400   0.0000       0.945961        25.7409 
 401   0.0000       0.951442        25.8900 
 402   0.0000       0.953231        25.9387 
 403   0.0000       0.953671        25.9507 
 404   0.0000       0.960627        26.1400 
 405   0.0000       0.964168        26.2364 
 406   0.0000       0.967178        26.3182 
 407   0.0000       0.969719        26.3874 
 408   0.0000       0.971883        26.4463 
 409   0.0000       0.979280        26.6476 
 410   0.0000       0.981048        26.6957 
 411   0.0000       0.985066        26.8050 
 412   0.0000       0.991245        26.9732 
 413   0.0000       0.997738        27.1498 
 414   0.0000       1.000597        27.2276 
 415   0.0000       1.006904        27.3992 
 416   0.0000       1.007234        27.4082 
 417   0.0000       1.010248        27.4902 
 418   0.0000       1.015857        27.6429 
 419   0.0000       1.022413        27.8213 
 420   0.0000       1.029147        28.0045 
 421   0.0000       1.029800        28.0223 
 422   0.0000       1.041922        28.3522 
 423   0.0000       1.044522        28.4229 
 424   0.0000       1.050705        28.5911 
 425   0.0000       1.058522        28.8038 
 426   0.0000       1.063324        28.9345 
 427   0.0000       1.067367        29.0445 
 428   0.0000       1.073100        29.2005 
 429   0.0000       1.078322        29.3426 
 430   0.0000       1.080065        29.3901 
 431   0.0000       1.083953        29.4958 
 432   0.0000       1.087428        29.5904 
 433   0.0000       1.092577        29.7305 
 434   0.0000       1.096505        29.8374 
 435   0.0000       1.104776        30.0625 
 436   0.0000       1.106750        30.1162 
 437   0.0000       1.111302        30.2401 
 438   0.0000       1.117214        30.4009 
 439   0.0000       1.119333        30.4586 
 440   0.0000       1.120998        30.5039 
 441   0.0000       1.121995        30.5310 
 442   0.0000       1.125541        30.6275 
 443   0.0000       1.128894        30.7188 
 444   0.0000       1.131215        30.7819 
 445   0.0000       1.134045        30.8589 
 446   0.0000       1.141020        31.0487 
 447   0.0000       1.146054        31.1857 
 448   0.0000       1.149211        31.2716 
 449   0.0000       1.150981        31.3198 
 450   0.0000       1.152744        31.3678 
 451   0.0000       1.155099        31.4318 
 452   0.0000       1.161006        31.5926 
 453   0.0000       1.164745        31.6943 
 454   0.0000       1.167096        31.7583 
 455   0.0000       1.171575        31.8802 
 456   0.0000       1.173349        31.9284 
 457   0.0000       1.178723        32.0747 
 458   0.0000       1.185083        32.2477 
 459   0.0000       1.187710        32.3192 
 460   0.0000       1.192665        32.4541 
 461   0.0000       1.197876        32.5959 
 462   0.0000       1.201566        32.6963 
 463   0.0000       1.203550        32.7503 
 464   0.0000       1.206613        32.8336 
 465   0.0000       1.207682        32.8627 
 466   0.0000       1.212287        32.9880 
 467   0.0000       1.217726        33.1360 
 468   0.0000       1.219184        33.1757 
 469   0.0000       1.227089        33.3908 
 470   0.0000       1.228760        33.4363 
 471   0.0000       1.233104        33.5545 
 472   0.0000       1.234263        33.5860 
 473   0.0000       1.236004        33.6334 
 474   0.0000       1.242296        33.8046 
 475   0.0000       1.243138        33.8275 
 476   0.0000       1.248199        33.9652 
 477   0.0000       1.251615        34.0582 
 478   0.0000       1.253825        34.1183 
 479   0.0000       1.254451        34.1354 
 480   0.0000       1.258747        34.2522 
 481   0.0000       1.262040        34.3419 
 482   0.0000       1.270345        34.5679 
 483   0.0000       1.272256        34.6199 
 484   0.0000       1.274346        34.6767 
 485   0.0000       1.277397        34.7598 
 486   0.0000       1.282279        34.8926 
 487   0.0000       1.285319        34.9753 
 488   0.0000       1.289630        35.0926 
 489   0.0000       1.292263        35.1643 
 490   0.0000       1.294495        35.2250 
 491   0.0000       1.295809        35.2608 
 492   0.0000       1.300869        35.3984 
 493   0.0000       1.302910        35.4540 
 494   0.0000       1.311106        35.6770 
 495   0.0000       1.313704        35.7477 
 496   0.0000       1.318437        35.8765 
 497   0.0000       1.322124        35.9768 
 498   0.0000       1.325532        36.0696 
 499   0.0000       1.326957        36.1083 
 500   0.0000       1.330345        36.2005 
 501   0.0000       1.335612        36.3438 
 502   0.0000       1.337537        36.3962 
 503   0.0000       1.344303        36.5803 
 504   0.0000       1.346528        36.6409 
 505   0.0000       1.349270        36.7155 
 506   0.0000       1.350598        36.7516 
 507   0.0000       1.355742        36.8916 
 508   0.0000       1.360287        37.0153 
 509   0.0000       1.362856        37.0852 
[...]
      pz      :     0.022098  p :     0.079760
      px      :     0.043581
      py      :     0.014081
 77 H s       :     0.885111  s :     0.885111
      pz      :     0.047939  p :     0.079242
      px      :     0.015022
      py      :     0.016281
 78 H s       :     0.885522  s :     0.885522
      pz      :     0.025859  p :     0.079198
      px      :     0.020466
      py      :     0.032872
 79 H s       :     0.910245  s :     0.910245
      pz      :     0.021841  p :     0.086389
      px      :     0.021674
      py      :     0.042874
 80 H s       :     0.865344  s :     0.865344
      pz      :     0.039323  p :     0.084751
      px      :     0.030250
      py      :     0.015177
 81 H s       :     0.887129  s :     0.887129
      pz      :     0.037798  p :     0.084089
      px      :     0.016194
      py      :     0.030096
 82 H s       :     0.916148  s :     0.916148
      pz      :     0.021993  p :     0.086731
      px      :     0.031605
      py      :     0.033133
 83 H s       :     0.873798  s :     0.873798
      pz      :     0.039229  p :     0.084037
      px      :     0.015283
      py      :     0.029524
 84 H s       :     0.887166  s :     0.887166
      pz      :     0.035743  p :     0.083472
      px      :     0.031683
      py      :     0.016045
 85 H s       :     0.893322  s :     0.893322
      pz      :     0.022481  p :     0.079763
      px      :     0.014086
      py      :     0.043195
 86 H s       :     0.891254  s :     0.891254
      pz      :     0.024719  p :     0.078808
      px      :     0.032962
      py      :     0.021126
 87 H s       :     0.890112  s :     0.890112
      pz      :     0.047993  p :     0.078715
      px      :     0.015587
      py      :     0.015135
 88 H s       :     0.910924  s :     0.910924
      pz      :     0.021713  p :     0.087037
      px      :     0.042873
      py      :     0.022451
 89 H s       :     0.871416  s :     0.871416
      pz      :     0.037939  p :     0.083828
      px      :     0.030469
      py      :     0.015420


                      *****************************
                      * MAYER POPULATION ANALYSIS *
                      *****************************

  NA   - Mulliken gross atomic population
  ZA   - Total nuclear charge
  QA   - Mulliken gross atomic charge
  VA   - Mayer's total valence
  BVA  - Mayer's bonded valence
  FA   - Mayer's free valence

  ATOM       NA         ZA         QA         VA         BVA        FA
  0 C      5.7917     6.0000     0.2083     3.8408     3.8408     0.0000
  1 N      7.4559     7.0000    -0.4559     3.3297     3.3297     0.0000
  2 C      6.0685     6.0000    -0.0685     3.9209     3.9209    -0.0000
  3 N      7.3375     7.0000    -0.3375     3.4596     3.4596     0.0000
  4 C      6.0552     6.0000    -0.0552     4.0368     4.0368    -0.0000
  5 N      7.5625     7.0000    -0.5625     3.0962     3.0962     0.0000
  6 C      6.1211     6.0000    -0.1211     3.9934     3.9934    -0.0000
  7 N      7.3404     7.0000    -0.3404     3.4337     3.4337    -0.0000
  8 C      5.7905     6.0000     0.2095     3.8440     3.8440     0.0000
  9 N      7.5626     7.0000    -0.5626     3.0784     3.0784    -0.0000
 10 C      5.8807     6.0000     0.1193     3.9094     3.9094     0.0000
 11 N      7.4378     7.0000    -0.4378     3.3814     3.3814    -0.0000
 12 C      6.0788     6.0000    -0.0788     3.8912     3.8912    -0.0000
 13 N      7.4307     7.0000    -0.4307     3.4223     3.4223    -0.0000
 14 C      5.7806     6.0000     0.2194     3.7853     3.7853     0.0000
 15 N      7.4415     7.0000    -0.4415     3.3695     3.3695    -0.0000
 16 C      5.7695     6.0000     0.2305     3.7783     3.7783    -0.0000
 17 C      6.1181     6.0000    -0.1181     3.9944     3.9944    -0.0000
 18 C      6.1603     6.0000    -0.1603     3.7540     3.7540     0.0000
 19 C      5.7936     6.0000     0.2064     3.8649     3.8649     0.0000
 20 C      5.7858     6.0000     0.2142     3.8283     3.8283     0.0000
 21 C      6.0911     6.0000    -0.0911     3.8894     3.8894     0.0000
 22 C      6.0890     6.0000    -0.0890     3.9818     3.9818     0.0000
 23 C      6.0407     6.0000    -0.0407     3.9922     3.9922     0.0000
 24 C      5.8039     6.0000     0.1961     3.8214     3.8214    -0.0000
 25 C      5.8858     6.0000     0.1142     3.8904     3.8904     0.0000
 26 C      6.0790     6.0000    -0.0790     3.9058     3.9058    -0.0000
 27 C      5.7875     6.0000     0.2125     3.8631     3.8631    -0.0000
 28 C      6.0604     6.0000    -0.0604     3.9887     3.9887     0.0000
 29 C      6.1811     6.0000    -0.1811     3.7455     3.7455    -0.0000
 30 C      5.7553     6.0000     0.2447     3.7980     3.7980    -0.0000
 31 C      5.7710     6.0000     0.2290     3.8188     3.8188     0.0000
 32 C      6.0615     6.0000    -0.0615     3.9233     3.9233     0.0000
 33 C      6.0631     6.0000    -0.0631     3.9733     3.9733    -0.0000
 34 C      6.0498     6.0000    -0.0498     3.9848     3.9848    -0.0000
 35 C      5.7758     6.0000     0.2242     3.8174     3.8174     0.0000
 36 C      5.8910     6.0000     0.1090     3.8768     3.8768     0.0000
 37 C      6.0646     6.0000    -0.0646     3.9175     3.9175     0.0000
 38 C      5.7671     6.0000     0.2329     3.8019     3.8019    -0.0000
 39 C      6.0591     6.0000    -0.0591     3.9840     3.9840     0.0000
 40 C      6.1814     6.0000    -0.1814     3.7284     3.7284    -0.0000
 41 C      5.7760     6.0000     0.2240     3.8858     3.8858     0.0000
 42 C      5.8028     6.0000     0.1972     3.8264     3.8264    -0.0000
 43 C      6.0728     6.0000    -0.0728     3.9000     3.9000     0.0000
 44 C      6.0911     6.0000    -0.0911     3.9858     3.9858    -0.0000
 45 C      6.0607     6.0000    -0.0607     3.9922     3.9922    -0.0000
 46 C      5.7907     6.0000     0.2093     3.8287     3.8287    -0.0000
 47 C      5.8843     6.0000     0.1157     3.8939     3.8939     0.0000
 48 C      6.0682     6.0000    -0.0682     3.9088     3.9088     0.0000
 49 C      5.7630     6.0000     0.2370     3.8941     3.8941     0.0000
 50 C      6.0471     6.0000    -0.0471     3.9906     3.9906    -0.0000
 51 C      6.1940     6.0000    -0.1940     3.7369     3.7369     0.0000
 52 H      0.9608     1.0000     0.0392     0.9861     0.9861     0.0000
 53 H      1.0169     1.0000    -0.0169     0.9986     0.9986    -0.0000
 54 H      0.9489     1.0000     0.0511     1.0144     1.0144     0.0000
 55 H      0.9620     1.0000     0.0380     0.9866     0.9866     0.0000
 56 H      0.9507     1.0000     0.0493     0.9696     0.9696     0.0000
 57 H      0.9521     1.0000     0.0479     0.9824     0.9824     0.0000
 58 H      0.9530     1.0000     0.0470     0.9851     0.9851     0.0000
 59 H      0.9985     1.0000     0.0015     1.0038     1.0038    -0.0000
 60 H      0.9475     1.0000     0.0525     1.0177     1.0177     0.0000
 61 H      0.8290     1.0000     0.1710     1.0419     1.0419     0.0000
 62 H      0.8245     1.0000     0.1755     1.0436     1.0436     0.0000
 63 H      0.9436     1.0000     0.0564     0.9852     0.9852     0.0000
 64 H      1.0044     1.0000    -0.0044     0.9974     0.9974     0.0000
 65 H      0.9529     1.0000     0.0471     1.0098     1.0098     0.0000
 66 H      0.9435     1.0000     0.0565     0.9854     0.9854    -0.0000
 67 H      0.9367     1.0000     0.0633     0.9720     0.9720     0.0000
 68 H      0.9422     1.0000     0.0578     0.9868     0.9868     0.0000
 69 H      0.9428     1.0000     0.0572     0.9829     0.9829     0.0000
 70 H      1.0286     1.0000    -0.0286     0.9932     0.9932    -0.0000
 71 H      0.9539     1.0000     0.0461     1.0059     1.0059    -0.0000
 72 H      0.9303     1.0000     0.0697     0.9837     0.9837     0.0000
 73 H      1.0085     1.0000    -0.0085     1.0006     1.0006     0.0000
 74 H      0.9411     1.0000     0.0589     1.0102     1.0102    -0.0000
 75 H      0.9311     1.0000     0.0689     0.9841     0.9841     0.0000
 76 H      0.9265     1.0000     0.0735     0.9721     0.9721     0.0000
 77 H      0.9331     1.0000     0.0669     0.9854     0.9854     0.0000
 78 H      0.9340     1.0000     0.0660     0.9853     0.9853     0.0000
 79 H      1.0157     1.0000    -0.0157     0.9979     0.9979    -0.0000
 80 H      0.9405     1.0000     0.0595     1.0071     1.0071    -0.0000
 81 H      0.9463     1.0000     0.0537     0.9857     0.9857    -0.0000
 82 H      1.0252     1.0000    -0.0252     0.9933     0.9933     0.0000
 83 H      0.9590     1.0000     0.0410     1.0084     1.0084    -0.0000
 84 H      0.9469     1.0000     0.0531     0.9853     0.9853     0.0000
 85 H      0.9401     1.0000     0.0599     0.9715     0.9715     0.0000
 86 H      0.9449     1.0000     0.0551     0.9839     0.9839    -0.0000
 87 H      0.9433     1.0000     0.0567     0.9856     0.9856    -0.0000
 88 H      1.0152     1.0000    -0.0152     0.9966     0.9966     0.0000
 89 H      0.9536     1.0000     0.0464     1.0071     1.0071     0.0000

  Mayer bond orders larger than 0.100000
B(  0-C ,  1-N ) :   1.0879 B(  0-C , 17-C ) :   1.7097 B(  0-C , 52-H ) :   0.9663 
B(  1-N ,  8-C ) :   1.0907 B(  1-N , 10-C ) :   0.9779 B(  2-C , 12-C ) :   1.5048 
B(  2-C , 16-C ) :   1.3571 B(  2-C , 53-H ) :   0.9756 B(  3-N , 14-C ) :   1.2183 
B(  3-N , 16-C ) :   1.1905 B(  3-N , 61-H ) :   0.8994 B(  4-C ,  6-C ) :   1.2114 
B(  4-C , 17-C ) :   1.2119 B(  4-C , 18-C ) :   1.4374 B(  5-N , 19-C ) :   1.4527 
B(  5-N , 27-C ) :   1.3792 B(  6-C ,  8-C ) :   1.7081 B(  6-C , 54-H ) :   0.9537 
B(  7-N , 30-C ) :   1.1940 B(  7-N , 38-C ) :   1.1923 B(  7-N , 62-H ) :   0.8968 
B(  8-C , 55-H ) :   0.9672 B(  9-N , 41-C ) :   1.3930 B(  9-N , 49-C ) :   1.4276 
B( 10-C , 56-H ) :   0.9770 B( 10-C , 57-H ) :   0.9832 B( 10-C , 58-H ) :   0.9834 
B( 11-N , 20-C ) :   1.1321 B( 11-N , 24-C ) :   1.1106 B( 11-N , 25-C ) :   0.9590 
B( 12-C , 14-C ) :   1.3565 B( 12-C , 59-H ) :   0.9731 B( 13-N , 31-C ) :   1.1582 
B( 13-N , 35-C ) :   1.1532 B( 13-N , 36-C ) :   0.9436 B( 14-C , 18-C ) :   1.1286 
B( 15-N , 42-C ) :   1.1068 B( 15-N , 46-C ) :   1.1211 B( 15-N , 47-C ) :   0.9624 
B( 16-C , 51-C ) :   1.1715 B( 17-C , 60-H ) :   0.9544 B( 18-C , 19-C ) :   1.1321 
B( 19-C , 21-C ) :   1.2448 B( 20-C , 28-C ) :   1.6258 B( 20-C , 63-H ) :   0.9702 
B( 21-C , 26-C ) :   1.6098 B( 21-C , 64-H ) :   0.9706 B( 22-C , 23-C ) :   1.2909 
B( 22-C , 28-C ) :   1.2672 B( 22-C , 29-C ) :   1.2206 B( 23-C , 24-C ) :   1.6174 
B( 23-C , 65-H ) :   0.9704 B( 24-C , 66-H ) :   0.9694 B( 25-C , 67-H ) :   0.9760 
B( 25-C , 68-H ) :   0.9828 B( 25-C , 69-H ) :   0.9823 B( 26-C , 27-C ) :   1.2396 
B( 26-C , 70-H ) :   0.9700 B( 27-C , 29-C ) :   1.2134 B( 28-C , 71-H ) :   0.9719 
B( 29-C , 30-C ) :   1.2430 B( 30-C , 32-C ) :   1.2815 B( 31-C , 39-C ) :   1.5933 
B( 31-C , 72-H ) :   0.9683 B( 32-C , 37-C ) :   1.5779 B( 32-C , 73-H ) :   0.9784 
B( 33-C , 34-C ) :   1.3047 B( 33-C , 39-C ) :   1.2986 B( 33-C , 40-C ) :   1.1831 
B( 34-C , 35-C ) :   1.5898 B( 34-C , 74-H ) :   0.9697 B( 35-C , 75-H ) :   0.9683 
B( 36-C , 76-H ) :   0.9767 B( 36-C , 77-H ) :   0.9816 B( 36-C , 78-H ) :   0.9824 
B( 37-C , 38-C ) :   1.2859 B( 37-C , 79-H ) :   0.9767 B( 38-C , 40-C ) :   1.2324 
B( 39-C , 80-H ) :   0.9707 B( 40-C , 41-C ) :   1.2468 B( 41-C , 43-C ) :   1.1899 
B( 42-C , 50-C ) :   1.6359 B( 42-C , 81-H ) :   0.9697 B( 43-C , 48-C ) :   1.6621 
B( 43-C , 82-H ) :   0.9722 B( 44-C , 45-C ) :   1.2622 B( 44-C , 50-C ) :   1.2693 
B( 44-C , 51-C ) :   1.2653 B( 45-C , 46-C ) :   1.6370 B( 45-C , 83-H ) :   0.9718 
B( 46-C , 84-H ) :   0.9701 B( 47-C , 85-H ) :   0.9762 B( 47-C , 86-H ) :   0.9829 
B( 47-C , 87-H ) :   0.9825 B( 48-C , 49-C ) :   1.1933 B( 48-C , 88-H ) :   0.9748 
B( 49-C , 51-C ) :   1.2373 B( 50-C , 89-H ) :   0.9709 

-------
TIMINGS
-------

Total SCF time: 0 days 0 hours 28 min 12 sec 

Total time                  ....    1692.299 sec
Sum of individual times     ....    1687.534 sec  ( 99.7%)

Fock matrix formation       ....    1659.669 sec  ( 98.1%)
Diagonalization             ....       8.797 sec  (  0.5%)
Density matrix formation    ....       0.530 sec  (  0.0%)
Population analysis         ....       0.586 sec  (  0.0%)
Initial guess               ....       2.552 sec  (  0.2%)
Orbital Transformation      ....       0.000 sec  (  0.0%)
Orbital Orthonormalization  ....       0.000 sec  (  0.0%)
DIIS solution               ....       3.971 sec  (  0.2%)
SOSCF solution              ....      10.140 sec  (  0.6%)

Maximum memory used throughout the entire SCF-calculation: 302.6 MB


           ************************************************************
           *        Program running with 16 parallel MPI-processes    *
           *              working on a common directory               *
           ************************************************************

------------------------------------------------------------------------------
                                ORCA  MP2 
------------------------------------------------------------------------------

Freezing NCore=104 chemical core electrons

----------
MP2 ENERGY (disk based algorithm)
----------

Dimension of the basis                    ...  918
Memory devoted to MP2                     ... 2000 MB   
Data format for buffers                   ... DOUBLE
Compression type for matrix containers    ... UNCOMPRESSED

-------------------------------
PARTIAL EXCHANGE TRANSFORMATION
-------------------------------

Transformation type                        ... one-operator
Generation of integrals (i,mue|j,nue)      ... ON
Generation of integrals (mue,kappa|nue,tau)... OFF
Generation of integrals (i,mue|a,nue)      ... OFF
Dimension of the basis                     ...  918
Number of internal MOs                     ...  127 (  52- 178)
Pair cutoff                                ... 2.500e-12 Eh
Number of AO pairs in the trafo            ... 421821
Total Number of distinct AO pairs          ... 421821
Memory devoted for trafo                   ... 2000.0 MB 
Max. Number of MO pairs treated together   ...  311      
Number Format for Storage                  ... Double (8 Byte)
Integral package used                      ... LIBINT

Starting integral evaluation:
    ... done with AO integral generation
Closing buffer AOK     (38.24 GB; CompressionRatio= 1.33)
Collecting buffer AOK 
Number of MO pairs included in the trafo   ... 8128
------------------------
SORTING OF (i,mue|j,nue)
------------------------

IBATCH = 1 of  2
IBATCH = 2 of  2
Closing buffer KAO     (51.03 GB; CompressionRatio= 1.00)
Collecting buffer KAO 
N(AO-Batches) Done                         ...  85969717 
N(AO-Batches) Skipped                      ...  82278435 
N(IJ)-pairs Skipped                        ...         0 
TOTAL TIME for half transformation         ...  2470.593 sec
AO-integral generation                     ...   212.139 sec
Half transformation                        ...   423.474 sec
K-integral sorting                         ...  1611.332 sec
Process 10:   Internal MO 132
Process 13:   Internal MO 156

Finished integral transformation - now doing MP2 part

OPERATOR COMBINATION   0   0: ij=( 52..178, 52..178)
Process  4:   Internal MO  84
Process  1:   Internal MO  60
Process  7:   Internal MO 108
Process  0:   Internal MO  54
Process  2:   Internal MO  69
Process  0:   Internal MO  57
Process  1:   Internal MO  63
Process  5:   Internal MO  93
Process  3:   Internal MO  78
Process  2:   Internal MO  72
Process  6:   Internal MO 102
Process  8:   Internal MO 117
Process  1:   Internal MO  66
Process 11:   Internal MO 141
Process 14:   Internal MO 165
Process  4:   Internal MO  87
Process  3:   Internal MO  81
Process  2:   Internal MO  75
Process  5:   Internal MO  96
Process 12:   Internal MO 150
Process  7:   Internal MO 111
Process  6:   Internal MO 105
Process  8:   Internal MO 120
Process  4:   Internal MO  90
Process 15:   Internal MO 174
Process 10:   Internal MO 135
Process  5:   Internal MO  99
Process  9:   Internal MO 126
Process  7:   Internal MO 114
Process 13:   Internal MO 159
Process 11:   Internal MO 144
Process 12:   Internal MO 153
Process  8:   Internal MO 123
Process 14:   Internal MO 168
Process 10:   Internal MO 138
Process  9:   Internal MO 129
Process 15:   Internal MO 177
Process 11:   Internal MO 147
Process 13:   Internal MO 162
Process 14:   Internal MO 171
-----------------------------------------------
 MP2 CORRELATION ENERGY   :     -7.281888555 Eh
-----------------------------------------------


-------
TIMINGS
-------
Total time                : 2768.534 sec
Integral trafo            : 2473.052 sec ( 89.3%)
K(i,j)                    :   10.800 sec (  0.4%)
T(i,j)                    :    0.062 sec (  0.0%)

---------------------------------------
MP2 TOTAL ENERGY:    -2130.888813474 Eh
---------------------------------------

Maximum memory used throughout the entire MP2-calculation: 2275.3 MB

-------------------------   --------------------
FINAL SINGLE POINT ENERGY     -2130.888813473658
-------------------------   --------------------


                            ***************************************
                            *     ORCA property calculations      *
                            ***************************************


  WARNING: The energy has been calculated at the MP2 level but the densities
           used in the property calculations are still SCF densities
           MP2 response densities have not been calculated 
           use %mp2 Density relaxed end
           or  %mp2 Density unrelaxed end

                                    ---------------------
                                    Active property flags
                                    ---------------------
   (+) Dipole Moment


------------------------------------------------------------------------------
                       ORCA ELECTRIC PROPERTIES CALCULATION
------------------------------------------------------------------------------

Dipole Moment Calculation                       ... on
Quadrupole Moment Calculation                   ... off
Polarizability Calculation                      ... off
GBWName                                         ... /scratch/allen/tmpyp4_amber_gaff2/conf1/conf1/Conf153.orca.gbw
Electron density                                ... /scratch/allen/tmpyp4_amber_gaff2/conf1/conf1/Conf153.orca.scfp
The origin for moment calculation is the CENTER OF MASS  = ( 0.003407, -0.001838  0.001797)

-------------
DIPOLE MOMENT
-------------
                                X             Y             Z
Electronic contribution:      2.20794      -4.10648      -0.22346
Nuclear contribution   :      0.03714       0.21190       0.22217
                        -----------------------------------------
Total Dipole Moment    :      2.24508      -3.89458      -0.00128
                        -----------------------------------------
Magnitude (a.u.)       :      4.49535
Magnitude (Debye)      :     11.42626



--------------------
Rotational spectrum 
--------------------
 
Rotational constants in cm-1:     0.001500     0.001478     0.000761 
Rotational constants in MHz :    44.977018    44.315928    22.801952 

 Dipole components along the rotational axes: 
x,y,z [a.u.] :     3.076318    -3.277866     0.002884 
x,y,z [Debye]:     7.819378    -8.331674     0.007331 

 

Timings for individual modules:

Sum of individual times         ...     4482.475 sec (=  74.708 min)
GTO integral calculation        ...        3.631 sec (=   0.061 min)   0.1 %
SCF iterations                  ...     1693.483 sec (=  28.225 min)  37.8 %
MP2 module                      ...     2785.361 sec (=  46.423 min)  62.1 %
                             ****ORCA TERMINATED NORMALLY****
TOTAL RUN TIME: 0 days 1 hours 14 minutes 46 seconds 3 msec
# of primitive gaussian functions

