
                                 *****************
                                 * O   R   C   A *
                                 *****************

                                            #,                                       
                                            ###                                      
                                            ####                                     
                                            #####                                    
                                            ######                                   
                                           ########,                                 
                                     ,,################,,,,,                         
                               ,,#################################,,                 
                          ,,##########################################,,             
                       ,#########################################, ''#####,          
                    ,#############################################,,   '####,        
                  ,##################################################,,,,####,       
                ,###########''''           ''''###############################       
              ,#####''   ,,,,##########,,,,          '''####'''          '####       
            ,##' ,,,,###########################,,,                        '##       
           ' ,,###''''                  '''############,,,                           
         ,,##''                                '''############,,,,        ,,,,,,###''
      ,#''                                            '''#######################'''  
     '                                                          ''''####''''         
             ,#######,   #######,   ,#######,      ##                                
            ,#'     '#,  ##    ##  ,#'     '#,    #''#        ######   ,####,        
            ##       ##  ##   ,#'  ##            #'  '#       #        #'  '#        
            ##       ##  #######   ##           ,######,      #####,   #    #        
            '#,     ,#'  ##    ##  '#,     ,#' ,#      #,         ##   #,  ,#        
             '#######'   ##     ##  '#######'  #'      '#     #####' # '####'        



                  #######################################################
                  #                        -***-                        #
                  #          Department of theory and spectroscopy      #
                  #    Directorship and core code : Frank Neese         #
                  #        Max Planck Institute fuer Kohlenforschung    #
                  #                Kaiser Wilhelm Platz 1               #
                  #                 D-45470 Muelheim/Ruhr               #
                  #                      Germany                        #
                  #                                                     #
                  #                  All rights reserved                #
                  #                        -***-                        #
                  #######################################################


                         Program Version 5.0.4 -  RELEASE  -


 With contributions from (in alphabetic order):
   Daniel Aravena         : Magnetic Suceptibility
   Michael Atanasov       : Ab Initio Ligand Field Theory (pilot matlab implementation)
   Alexander A. Auer      : GIAO ZORA, VPT2 properties, NMR spectrum
   Ute Becker             : Parallelization
   Giovanni Bistoni       : ED, misc. LED, open-shell LED, HFLD
   Martin Brehm           : Molecular dynamics
   Dmytro Bykov           : SCF Hessian
   Vijay G. Chilkuri      : MRCI spin determinant printing, contributions to CSF-ICE
   Dipayan Datta          : RHF DLPNO-CCSD density
   Achintya Kumar Dutta   : EOM-CC, STEOM-CC
   Dmitry Ganyushin       : Spin-Orbit,Spin-Spin,Magnetic field MRCI
   Miquel Garcia          : C-PCM and meta-GGA Hessian, CC/C-PCM, Gaussian charge scheme
   Yang Guo               : DLPNO-NEVPT2, F12-NEVPT2, CIM, IAO-localization
   Andreas Hansen         : Spin unrestricted coupled pair/coupled cluster methods
   Benjamin Helmich-Paris : MC-RPA, TRAH-SCF, COSX integrals
   Lee Huntington         : MR-EOM, pCC
   Robert Izsak           : Overlap fitted RIJCOSX, COSX-SCS-MP3, EOM
   Marcus Kettner         : VPT2
   Christian Kollmar      : KDIIS, OOCD, Brueckner-CCSD(T), CCSD density, CASPT2, CASPT2-K
   Simone Kossmann        : Meta GGA functionals, TD-DFT gradient, OOMP2, MP2 Hessian
   Martin Krupicka        : Initial AUTO-CI
   Lucas Lang             : DCDCAS
   Marvin Lechner         : AUTO-CI (C++ implementation), FIC-MRCC
   Dagmar Lenk            : GEPOL surface, SMD
   Dimitrios Liakos       : Extrapolation schemes; Compound Job, initial MDCI parallelization
   Dimitrios Manganas     : Further ROCIS development; embedding schemes
   Dimitrios Pantazis     : SARC Basis sets
   Anastasios Papadopoulos: AUTO-CI, single reference methods and gradients
   Taras Petrenko         : DFT Hessian,TD-DFT gradient, ASA, ECA, R-Raman, ABS, FL, XAS/XES, NRVS
   Peter Pinski           : DLPNO-MP2, DLPNO-MP2 Gradient
   Christoph Reimann      : Effective Core Potentials
   Marius Retegan         : Local ZFS, SOC
   Christoph Riplinger    : Optimizer, TS searches, QM/MM, DLPNO-CCSD(T), (RO)-DLPNO pert. Triples
   Tobias Risthaus        : Range-separated hybrids, TD-DFT gradient, RPA, STAB
   Michael Roemelt        : Original ROCIS implementation
   Masaaki Saitow         : Open-shell DLPNO-CCSD energy and density
   Barbara Sandhoefer     : DKH picture change effects
   Avijit Sen             : IP-ROCIS
   Kantharuban Sivalingam : CASSCF convergence, NEVPT2, FIC-MRCI
   Bernardo de Souza      : ESD, SOC TD-DFT
   Georgi Stoychev        : AutoAux, RI-MP2 NMR, DLPNO-MP2 response
   Willem Van den Heuvel  : Paramagnetic NMR
   Boris Wezisla          : Elementary symmetry handling
   Frank Wennmohs         : Technical directorship


 We gratefully acknowledge several colleagues who have allowed us to
 interface, adapt or use parts of their codes:
   Stefan Grimme, W. Hujo, H. Kruse, P. Pracht,  : VdW corrections, initial TS optimization,
                  C. Bannwarth, S. Ehlert          DFT functionals, gCP, sTDA/sTD-DF
   Ed Valeev, F. Pavosevic, A. Kumar             : LibInt (2-el integral package), F12 methods
   Garnet Chan, S. Sharma, J. Yang, R. Olivares  : DMRG
   Ulf Ekstrom                                   : XCFun DFT Library
   Mihaly Kallay                                 : mrcc  (arbitrary order and MRCC methods)
   Jiri Pittner, Ondrej Demel                    : Mk-CCSD
   Frank Weinhold                                : gennbo (NPA and NBO analysis)
   Christopher J. Cramer and Donald G. Truhlar   : smd solvation model
   Lars Goerigk                                  : TD-DFT with DH, B97 family of functionals
   V. Asgeirsson, H. Jonsson                     : NEB implementation
   FAccTs GmbH                                   : IRC, NEB, NEB-TS, DLPNO-Multilevel, CI-OPT
                                                   MM, QMMM, 2- and 3-layer-ONIOM, Crystal-QMMM,
                                                   LR-CPCM, SF, NACMEs, symmetry and pop. for TD-DFT,
                                                   nearIR, NL-DFT gradient (VV10), updates on ESD,
                                                   ML-optimized integration grids
   S Lehtola, MJT Oliveira, MAL Marques          : LibXC Library
   Liviu Ungur et al                             : ANISO software


 Your calculation uses the libint2 library for the computation of 2-el integrals
 For citations please refer to: http://libint.valeyev.net

 Your ORCA version has been built with support for libXC version: 5.1.0
 For citations please refer to: https://tddft.org/programs/libxc/

 This ORCA versions uses:
   CBLAS   interface :  Fast vector & matrix operations
   LAPACKE interface :  Fast linear algebra routines
   SCALAPACK package :  Parallel linear algebra routines
   Shared memory     :  Shared parallel matrices
   BLAS/LAPACK       :  OpenBLAS 0.3.15  USE64BITINT DYNAMIC_ARCH NO_AFFINITY Sandybridge SINGLE_THREADED
        Core in use  :  Sandybridge
   Copyright (c) 2011-2014, The OpenBLAS Project


================================================================================

----- Orbital basis set information -----
Your calculation utilizes the basis: cc-pVDZ 
       H, B-Ne : Obtained from the ccRepo (grant-hill.group.shef.ac.uk/ccrepo) Feb. 2017
                 T. H. Dunning, Jr., J. Chem. Phys. 90, 1007 (1989)
            He : Obtained from the ccRepo (grant-hill.group.shef.ac.uk/ccrepo) Feb. 2017
                 D. E. Woon, T. H. Dunning, Jr., J. Chem. Phys. 100, 2975 (1994)
  Li-Be, Na-Mg : Obtained from the ccRepo (grant-hill.group.shef.ac.uk/ccrepo) Feb. 2017
                 B. P. Prascher, D. E. Woon, K. A. Peterson, T. H. Dunning, Jr., A. K. Wilson, Theor. Chem. Acc. 128, 69 (2011)
         Al-Ar : Obtained from the ccRepo (grant-hill.group.shef.ac.uk/ccrepo) Feb. 2017
                 D. E. Woon, T. H. Dunning, Jr., J. Chem. Phys. 98, 1358 (1993)
            Ca : Obtained from the Peterson Research Group Website (tyr0.chem.wsu.edu/~kipeters) Feb. 2017
                 J. Koput, K. A. Peterson, J. Phys. Chem. 106, 9595 (2002)
         Sc-Zn : Obtained from the ccRepo (grant-hill.group.shef.ac.uk/ccrepo) Feb. 2017
                 N. B. Balabanov, K. A. Peterson, J. Chem. Phys. 123, 064107 (2005)
                 N. B. Balabanov, K. A. Peterson, J. Chem. Phys. 125, 074110 (2006)
         Ga-Kr : Obtained from the ccRepo (grant-hill.group.shef.ac.uk/ccrepo) Feb. 2017
                 A. K. Wilson, D. E. Woon, K. A. Peterson, T. H. Dunning, Jr., J. Chem. Phys. 110, 7667 (1999)

================================================================================
                                        WARNINGS
                       Please study these warnings very carefully!
================================================================================


WARNING: No MP2 level density has been requested!
         To caclulate MP2 level properties use
         %mp2 Density relaxed end
         or
         %mp2 Density unrelaxed end

WARNING: Post HF methods need fully converged wavefunctions
  ===> : Setting SCFConvForced true
         You can overwrite this default with %scf ConvForced false 


INFO   : the flag for use of the SHARK integral package has been found!

================================================================================
                                       INPUT FILE
================================================================================
NAME = /scratch/allen/tmpyp4_amber_gaff2/2.Mdgx/conf11/conf11/Conf236.orca
|  1> ! PAL2
|  2> ! mp2 cc-pvdz TightSCF  NoKeepInts
|  3> 
|  4> %scf
|  5>   MaxCore 2000
|  6> end
|  7> %mp2
|  8>   MaxCore 2000
|  9> end
| 10> * xyz 0 1
| 11>    C       -4.55500         5.43600         1.02200
| 12>    C        1.47400         4.04100         0.05700
| 13>    C       -2.80200         4.09300         0.04900
| 14>    C       -2.64100         5.09600        -0.91900
| 15>    C       -3.43200         6.22700        -0.88400
| 16>    C       -5.18000         7.62500         0.10700
| 17>    C        0.13200         4.30700         0.06100
| 18>    C       -0.56900         3.05600         0.04700
| 19>    C        1.64900         2.61800         0.02300
| 20>    C       -3.78400         4.29000         1.03200
| 21>    N       -4.37400         6.38400         0.07500
| 22>    N        0.38800         2.06700         0.02500
| 23>    N       -2.01000         0.39500        -0.07500
| 24>    N       -0.38800        -2.07400        -0.02700
| 25>    N        2.01000        -0.40100         0.06500
| 26>    C       -1.96000         2.86100         0.02400
| 27>    C       -2.62300         1.61500        -0.01800
| 28>    C       -5.57300        -4.32900         1.06600
| 29>    C       -4.07300         1.47100         0.05600
| 30>    C       -4.10600        -2.75600        -0.02600
| 31>    C       -4.99500        -2.75700        -1.11100
| 32>    C       -6.13200        -3.54200        -1.07600
| 33>    C       -7.65100        -5.11300         0.04000
| 34>    C       -4.32400         0.14100         0.03700
| 35>    C       -3.02500        -0.52000        -0.04800
| 36>    C       -4.42200        -3.56600         1.07500
| 37>    N       -6.40700        -4.31300         0.00100
| 38>    C       -2.86700        -1.92200        -0.04000
| 39>    C       -1.65000        -2.62400        -0.02700
| 40>    C        3.56800        -6.14200        -1.04000
| 41>    C       -1.47600        -4.04900        -0.03400
| 42>    C        2.80300        -4.09900        -0.00800
| 43>    C        3.65700        -4.38400         1.06900
| 44>    C        4.42700        -5.53000         1.05900
| 45>    C        5.24500        -7.58800         0.01400
| 46>    C       -0.13400        -4.31500        -0.02200
| 47>    C        0.56800        -3.06400        -0.02700
| 48>    C        2.77500        -5.01200        -1.07400
| 49>    N        4.37600        -6.39100         0.01700
| 50>    C        1.95900        -2.86900        -0.00900
| 51>    C        2.62100        -1.62200         0.00900
| 52>    C        5.54300         4.33900        -1.13000
| 53>    C        4.07000        -1.47900        -0.09400
| 54>    C        4.10400         2.75100        -0.02100
| 55>    C        5.02700         2.72900         1.03600
| 56>    C        6.16600         3.50900         0.97800
| 57>    C        7.61900         5.15300        -0.11500
| 58>    C        4.32100        -0.14800        -0.09200
| 59>    C        3.02500         0.51400         0.01500
| 60>    C        4.38700         3.58200        -1.11500
| 61>    C        2.86600         1.91600         0.01300
| 62>    N        6.41300         4.29600        -0.09500
| 63>    H       -5.33100         5.62500         1.75300
| 64>    H        2.27400         4.76600         0.08100
| 65>    H       -1.89300         5.00700        -1.69800
| 66>    H       -3.33800         7.03100        -1.60300
| 67>    H       -4.63400         8.38900         0.66600
| 68>    H       -5.35100         7.95900        -0.91600
| 69>    H       -6.13100         7.41200         0.59500
| 70>    H       -0.33200         5.28200         0.06900
| 71>    H       -3.96600         3.54600         1.79900
| 72>    H        0.18200         1.07200         0.00500
| 73>    H       -0.18300        -1.08000        -0.02100
| 74>    H       -5.86400        -4.96200         1.89500
| 75>    H       -4.79400         2.27200         0.13900
| 76>    H       -4.80000        -2.16000        -1.99400
| 77>    H       -6.84100        -3.58200        -1.89300
| 78>    H       -8.42800        -4.53600         0.54600
| 79>    H       -7.95600        -5.33700        -0.98100
| 80>    H       -7.45600        -6.03700         0.58400
| 81>    H       -5.28700        -0.34400         0.10000
| 82>    H       -3.78000        -3.60100         1.94700
| 83>    H        3.58700        -6.86800        -1.84300
| 84>    H       -2.27600        -4.77400        -0.05000
| 85>    H        3.71400        -3.72400         1.92600
| 86>    H        5.09200        -5.79500         1.87100
| 87>    H        6.20500        -7.32900        -0.43900
| 88>    H        5.39300        -7.91700         1.04200
| 89>    H        4.75900        -8.37300        -0.56400
| 90>    H        0.32900        -5.29000        -0.00800
| 91>    H        2.14600        -4.84200        -1.94000
| 92>    H        5.80800         4.98600        -1.95600
| 93>    H        4.78800        -2.28100        -0.18500
| 94>    H        4.86000         2.11400         1.91200
| 95>    H        6.90100         3.53100         1.77200
| 96>    H        7.38300         6.10900         0.35600
| 97>    H        8.41400         4.65200         0.43500
| 98>    H        7.92100         5.31000        -1.15000
| 99>    H        5.28300         0.33600        -0.17900
|100>    H        3.72000         3.63200        -1.96700
|101> *
|102> 
|103>                          ****END OF INPUT****
================================================================================

                       ****************************
                       * Single Point Calculation *
                       ****************************

---------------------------------
CARTESIAN COORDINATES (ANGSTROEM)
---------------------------------
  C     -4.555000    5.436000    1.022000
  C      1.474000    4.041000    0.057000
  C     -2.802000    4.093000    0.049000
  C     -2.641000    5.096000   -0.919000
  C     -3.432000    6.227000   -0.884000
  C     -5.180000    7.625000    0.107000
  C      0.132000    4.307000    0.061000
  C     -0.569000    3.056000    0.047000
  C      1.649000    2.618000    0.023000
  C     -3.784000    4.290000    1.032000
  N     -4.374000    6.384000    0.075000
  N      0.388000    2.067000    0.025000
  N     -2.010000    0.395000   -0.075000
  N     -0.388000   -2.074000   -0.027000
  N      2.010000   -0.401000    0.065000
  C     -1.960000    2.861000    0.024000
  C     -2.623000    1.615000   -0.018000
  C     -5.573000   -4.329000    1.066000
  C     -4.073000    1.471000    0.056000
  C     -4.106000   -2.756000   -0.026000
  C     -4.995000   -2.757000   -1.111000
  C     -6.132000   -3.542000   -1.076000
  C     -7.651000   -5.113000    0.040000
  C     -4.324000    0.141000    0.037000
  C     -3.025000   -0.520000   -0.048000
  C     -4.422000   -3.566000    1.075000
  N     -6.407000   -4.313000    0.001000
  C     -2.867000   -1.922000   -0.040000
  C     -1.650000   -2.624000   -0.027000
  C      3.568000   -6.142000   -1.040000
  C     -1.476000   -4.049000   -0.034000
  C      2.803000   -4.099000   -0.008000
  C      3.657000   -4.384000    1.069000
  C      4.427000   -5.530000    1.059000
  C      5.245000   -7.588000    0.014000
  C     -0.134000   -4.315000   -0.022000
  C      0.568000   -3.064000   -0.027000
  C      2.775000   -5.012000   -1.074000
  N      4.376000   -6.391000    0.017000
  C      1.959000   -2.869000   -0.009000
  C      2.621000   -1.622000    0.009000
  C      5.543000    4.339000   -1.130000
  C      4.070000   -1.479000   -0.094000
  C      4.104000    2.751000   -0.021000
  C      5.027000    2.729000    1.036000
  C      6.166000    3.509000    0.978000
  C      7.619000    5.153000   -0.115000
  C      4.321000   -0.148000   -0.092000
  C      3.025000    0.514000    0.015000
  C      4.387000    3.582000   -1.115000
  C      2.866000    1.916000    0.013000
  N      6.413000    4.296000   -0.095000
  H     -5.331000    5.625000    1.753000
  H      2.274000    4.766000    0.081000
  H     -1.893000    5.007000   -1.698000
  H     -3.338000    7.031000   -1.603000
  H     -4.634000    8.389000    0.666000
  H     -5.351000    7.959000   -0.916000
  H     -6.131000    7.412000    0.595000
  H     -0.332000    5.282000    0.069000
  H     -3.966000    3.546000    1.799000
  H      0.182000    1.072000    0.005000
  H     -0.183000   -1.080000   -0.021000
  H     -5.864000   -4.962000    1.895000
  H     -4.794000    2.272000    0.139000
  H     -4.800000   -2.160000   -1.994000
  H     -6.841000   -3.582000   -1.893000
  H     -8.428000   -4.536000    0.546000
  H     -7.956000   -5.337000   -0.981000
  H     -7.456000   -6.037000    0.584000
  H     -5.287000   -0.344000    0.100000
  H     -3.780000   -3.601000    1.947000
  H      3.587000   -6.868000   -1.843000
  H     -2.276000   -4.774000   -0.050000
  H      3.714000   -3.724000    1.926000
  H      5.092000   -5.795000    1.871000
  H      6.205000   -7.329000   -0.439000
  H      5.393000   -7.917000    1.042000
  H      4.759000   -8.373000   -0.564000
  H      0.329000   -5.290000   -0.008000
  H      2.146000   -4.842000   -1.940000
  H      5.808000    4.986000   -1.956000
  H      4.788000   -2.281000   -0.185000
  H      4.860000    2.114000    1.912000
  H      6.901000    3.531000    1.772000
  H      7.383000    6.109000    0.356000
  H      8.414000    4.652000    0.435000
  H      7.921000    5.310000   -1.150000
  H      5.283000    0.336000   -0.179000
  H      3.720000    3.632000   -1.967000

----------------------------
CARTESIAN COORDINATES (A.U.)
----------------------------
  NO LB      ZA    FRAG     MASS         X           Y           Z
   0 C     6.0000    0    12.011   -8.607703   10.272551    1.931300
   1 C     6.0000    0    12.011    2.785456    7.636383    0.107714
   2 C     6.0000    0    12.011   -5.295013    7.734649    0.092597
   3 C     6.0000    0    12.011   -4.990767    9.630044   -1.736658
   4 C     6.0000    0    12.011   -6.485540   11.767325   -1.670518
   5 C     6.0000    0    12.011   -9.788781   14.409162    0.202201
   6 C     6.0000    0    12.011    0.249444    8.139050    0.115273
   7 C     6.0000    0    12.011   -1.075254    5.775003    0.088817
   8 C     6.0000    0    12.011    3.116158    4.947303    0.043464
   9 C     6.0000    0    12.011   -7.150724    8.106925    1.950197
  10 N     7.0000    0    14.007   -8.265662   12.064012    0.141729
  11 N     7.0000    0    14.007    0.733214    3.906064    0.047243
  12 N     7.0000    0    14.007   -3.798350    0.746442   -0.141729
  13 N     7.0000    0    14.007   -0.733214   -3.919292   -0.051023
  14 N     7.0000    0    14.007    3.798350   -0.757780    0.122832
  15 C     6.0000    0    12.011   -3.703863    5.406506    0.045353
  16 C     6.0000    0    12.011   -4.956752    3.051908   -0.034015
  17 C     6.0000    0    12.011  -10.531444   -8.180624    2.014448
  18 C     6.0000    0    12.011   -7.696855    2.779787    0.105825
  19 C     6.0000    0    12.011   -7.759216   -5.208085   -0.049133
  20 C     6.0000    0    12.011   -9.439182   -5.209975   -2.099486
  21 C     6.0000    0    12.011  -11.587801   -6.693410   -2.033345
  22 C     6.0000    0    12.011  -14.458295   -9.662170    0.075589
  23 C     6.0000    0    12.011   -8.171176    0.266451    0.069920
  24 C     6.0000    0    12.011   -5.716422   -0.982658   -0.090707
  25 C     6.0000    0    12.011   -8.356369   -6.738763    2.031456
  26 N     7.0000    0    14.007  -12.107475   -8.150389    0.001890
  27 C     6.0000    0    12.011   -5.417845   -3.632054   -0.075589
  28 C     6.0000    0    12.011   -3.118048   -4.958641   -0.051023
  29 C     6.0000    0    12.011    6.742543  -11.606698   -1.965315
  30 C     6.0000    0    12.011   -2.789236   -7.651501   -0.064251
  31 C     6.0000    0    12.011    5.296902   -7.745987   -0.015118
  32 C     6.0000    0    12.011    6.910728   -8.284559    2.020117
  33 C     6.0000    0    12.011    8.365818  -10.450186    2.001220
  34 C     6.0000    0    12.011    9.911614  -14.339242    0.026456
  35 C     6.0000    0    12.011   -0.253223   -8.154168   -0.041574
  36 C     6.0000    0    12.011    1.073364   -5.790121   -0.051023
  37 C     6.0000    0    12.011    5.243990   -9.471307   -2.029566
  38 N     7.0000    0    14.007    8.269442  -12.077240    0.032125
  39 C     6.0000    0    12.011    3.701973   -5.421624   -0.017008
  40 C     6.0000    0    12.011    4.952972   -3.065136    0.017008
  41 C     6.0000    0    12.011   10.474752    8.199522   -2.135391
  42 C     6.0000    0    12.011    7.691185   -2.794905   -0.177634
  43 C     6.0000    0    12.011    7.755436    5.198637   -0.039684
  44 C     6.0000    0    12.011    9.499653    5.157063    1.957756
  45 C     6.0000    0    12.011   11.652051    6.631049    1.848152
  46 C     6.0000    0    12.011   14.397823    9.737759   -0.217319
  47 C     6.0000    0    12.011    8.165507   -0.279679   -0.173855
  48 C     6.0000    0    12.011    5.716422    0.971319    0.028346
  49 C     6.0000    0    12.011    8.290229    6.768999   -2.107045
  50 C     6.0000    0    12.011    5.415955    3.620715    0.024566
  51 N     7.0000    0    14.007   12.118814    8.118263   -0.179524
  52 H     1.0000    0     1.008  -10.074130   10.629710    3.312690
  53 H     1.0000    0     1.008    4.297237    9.006435    0.153068
  54 H     1.0000    0     1.008   -3.577252    9.461859   -3.208755
  55 H     1.0000    0     1.008   -6.307906   13.286664   -3.029231
  56 H     1.0000    0     1.008   -8.756991   15.852913    1.258558
  57 H     1.0000    0     1.008  -10.111925   15.040330   -1.730989
  58 H     1.0000    0     1.008  -11.585911   14.006650    1.124387
  59 H     1.0000    0     1.008   -0.627389    9.981533    0.130391
  60 H     1.0000    0     1.008   -7.494654    6.700969    3.399617
  61 H     1.0000    0     1.008    0.343930    2.025786    0.009449
  62 H     1.0000    0     1.008   -0.345820   -2.040904   -0.039684
  63 H     1.0000    0     1.008  -11.081354   -9.376821    3.581031
  64 H     1.0000    0     1.008   -9.059347    4.293458    0.262672
  65 H     1.0000    0     1.008   -9.070685   -4.081808   -3.768114
  66 H     1.0000    0     1.008  -12.927616   -6.768999   -3.577252
  67 H     1.0000    0     1.008  -15.926612   -8.571798    1.031790
  68 H     1.0000    0     1.008  -15.034661  -10.085468   -1.853821
  69 H     1.0000    0     1.008  -14.089798  -11.408277    1.103600
  70 H     1.0000    0     1.008   -9.990982   -0.650066    0.188973
  71 H     1.0000    0     1.008   -7.143165   -6.804904    3.679297
  72 H     1.0000    0     1.008    6.778448  -12.978639   -3.482765
  73 H     1.0000    0     1.008   -4.301017   -9.021553   -0.094486
  74 H     1.0000    0     1.008    7.018443   -7.037340    3.639613
  75 H     1.0000    0     1.008    9.622485  -10.950963    3.535678
  76 H     1.0000    0     1.008   11.725751  -13.849803   -0.829590
  77 H     1.0000    0     1.008   10.191293  -14.960962    1.969095
  78 H     1.0000    0     1.008    8.993207  -15.822677   -1.065806
  79 H     1.0000    0     1.008    0.621720   -9.996651   -0.015118
  80 H     1.0000    0     1.008    4.055352   -9.150054   -3.666069
  81 H     1.0000    0     1.008   10.975529    9.422175   -3.696304
  82 H     1.0000    0     1.008    9.048009   -4.310465   -0.349599
  83 H     1.0000    0     1.008    9.184069    3.994881    3.613156
  84 H     1.0000    0     1.008   13.041000    6.672623    3.348595
  85 H     1.0000    0     1.008   13.951848   11.544337    0.672743
  86 H     1.0000    0     1.008   15.900156    8.791006    0.822031
  87 H     1.0000    0     1.008   14.968521   10.034446   -2.173185
  88 H     1.0000    0     1.008    9.983423    0.634948   -0.338261
  89 H     1.0000    0     1.008    7.029781    6.863485   -3.717091

--------------------------------
INTERNAL COORDINATES (ANGSTROEM)
--------------------------------
 C      0   0   0     0.000000000000     0.00000000     0.00000000
 C      1   0   0     6.263073606465     0.00000000     0.00000000
 C      1   2   0     2.413169492597    27.70364255     0.00000000
 C      3   1   2     1.403194213215    87.91945355   281.12889587
 C      4   3   1     1.380603853392   120.15497374     0.15403091
 C      5   4   3     2.447853958062   152.53023892     1.64059249
 C      2   1   3     1.368114030335     8.88199313    42.64558871
 C      7   2   3     1.434084376876   108.05010202     0.84668783
 C      2   1   3     1.434123425651   110.00636782   322.70275811
 C      1   2   3     1.381251968324    43.86201137    45.45962938
 N      1   2   3     1.352136827396    85.37640048   259.81693970
 N      9   2   1     1.376127174356   106.58526707     8.44749834
 N     12   9   2     2.925062050624   168.53581413   171.12065651
 N     13  12   9     2.954513327098    91.55032014    11.12112580
 N     14  13  12     2.925371258490    88.43092389   359.84326247
 C      8   7   2     1.404790019896   127.24786865   181.11170171
 C     13  12   9     1.366535034311    81.72106996   188.00453233
 C     14  13  12     5.758810554272    80.56209567   166.76250791
 C     17  13  12     1.459010623676   111.08861209   183.82872609
 C     18  14  13     2.412235892279    27.27532823    36.33507194
 C     20  18  14     1.402692767501    87.95206320   148.94598259
 C     21  20  18     1.382106725257   120.14573887   359.70382047
 C     18  14  13     2.446510985056   144.15733107    82.80075377
 C     19  17  13     1.353610726908   106.29293361   359.75308708
 C     13  12   9     1.366813447402   172.21332906    33.46711076
 C     18  14  13     1.380960173213    15.08449437   309.23336894
 N     22  21  20     1.352773077792   120.73759875     0.27865223
 C     25  13  17     1.410897586645   125.60330303   182.37774668
 C     14  13  12     1.376642291955    80.24689249   177.85461986
 C     14  13  12     5.764089607215   164.51507311   312.20821879
 C     29  14  13     1.435600919476   106.58649366   178.76395472
 C     30  14  13     2.413316804732    27.10625047    82.12560436
 C     32  30  14     1.403734305344    87.90059683   149.76154742
 C     33  32  30     1.380694028378   120.14881443   359.74174632
 C     34  33  32     2.448777858443   152.49203239     2.45173620
 C     31  29  14     1.368160809262   108.16950133     0.70383075
 C     14  13  12     1.376239804685   169.26375223   353.09862627
 C     30  14  13     1.380907310430    14.68948582   353.70041132
 N     34  33  32     1.352658863128   120.85575621     0.19603406
 C     37  14  29     1.404717053360   126.01551127   180.90772073
 C     15  14  13     1.366491126938    81.61824056   183.09049352
 C      2   1   3     4.249062720177   161.66884322   119.13309905
 C     41  15  14     1.459677704153   111.05201287   175.08990246
 C     42   2   1     2.412953791518    41.78584867   178.45919243
 C     44  42   2     1.403446472082    87.95153797   233.97558675
 C     45  44  42     1.381696421071   120.11137308     0.19721020
 C     42   2   1     2.450019795838   135.97209175    88.77404154
 C     43  41  15     1.354461516618   106.26758155     0.30894352
 C     15  14  13     1.367461151185   171.87382904   332.35056460
 C     42   2   1     1.381886391857    32.59078432   227.31447163
 C      9   2   1     1.404988612053   126.98745415   189.45183587
 N     42   2   1     1.352765315936   113.57249190   116.51063073
 H      1   2   3     1.082708640401   146.39183503   126.38698466
 H      2   1   3     1.079907866440   124.06685390   152.11294307
 H      4   3   1     1.083635547590   121.09197642   179.50366686
 H      5   4   3     1.082687858988   122.80362968   179.40102312
 H      6   5   4     1.092837133337   104.45222042   100.05516500
 H      6   5   4     1.089644896285    84.66604923   209.51103811
 H      6   5   4     1.089914675560   133.84694916   322.36897675
 H      7   2  54     1.079807853278   126.66122480     1.30600390
 H     10   1   2     1.083950644633   118.74263686   139.86556649
 H     12   9   2     1.016297692608   125.29023241   180.00180175
 H     14  13  12     1.014936943854    44.97226959   359.42596618
 H     18  14  13     1.082871645210   128.03556573   234.20482432
 H     19  17  13     1.080893611786   126.41830519   178.11313280
 H     21  20  18     1.083569563987   121.05669627   180.67006309
 H     22  21  20     1.082483256222   122.73097286   180.59748951
 H     23  18  14     1.092105306278   103.92715769   234.93429879
 H     23  18  14     1.088871893291   134.19244188    12.25587044
 H     23  18  14     1.089833473518    84.85857450   125.45241208
 H     24  19  17     1.080075460327   127.28078426   178.44613241
 H     26  18  14     1.083408048706   118.76995697   244.94906660
 H     30  14  13     1.082703098730   127.99711412   279.66882698
 H     31  29  14     1.079759695488   125.22293469   180.92530585
 H     33  32  30     1.083188810873   121.01964473   180.74284758
 H     34  33  32     1.082494341787   122.70821597   180.59516895
 H     35  34  33     1.092652735319   105.73575241    97.19771933
 H     35  34  33     1.089462711615    84.05943581   206.43036958
 H     35  34  33     1.089268102902   133.08365142   318.50306270
 H     36  31  29     1.079439669458   126.61599965   178.98859863
 H     38  30  73     1.083742127999   118.77264435   359.90091293
 H     42   2   1     1.082178358682   119.31790784   333.14216118
 H     43  41  15     1.080281907652   126.36969097   182.06329380
 H     45  44  42     1.083277434455   121.10105945   179.58025624
 H     46  45  44     1.082194529648   122.72144639   179.46906377
 H     47  42   2     1.091546151109   106.65128841   315.16475048
 H     47  42   2     1.088818625851   132.46019523    94.52397119
 H     47  42   2     1.089531091801    83.63838232   206.04504406
 H     48  43  41     1.080402239909   127.23657387   181.62955349
 H     50  42   2     1.083186502870   118.77001737    94.71359229

---------------------------
INTERNAL COORDINATES (A.U.)
---------------------------
 C      0   0   0     0.000000000000     0.00000000     0.00000000
 C      1   0   0    11.835493872810     0.00000000     0.00000000
 C      1   2   0     4.560229455742    27.70364255     0.00000000
 C      3   1   2     2.651652775679    87.91945355   281.12889587
 C      4   3   1     2.608963182347   120.15497374     0.15403091
 C      5   4   3     4.625773596572   152.53023892     1.64059249
 C      2   1   3     2.585360837309     8.88199313    42.64558871
 C      7   2   3     2.710026725231   108.05010202     0.84668783
 C      2   1   3     2.710100516721   110.00636782   322.70275811
 C      1   2   3     2.610187942073    43.86201137    45.45962938
 N      1   2   3     2.555168299367    85.37640048   259.81693970
 N      9   2   1     2.600503484979   106.58526707     8.44749834
 N     12   9   2     5.527566200405   168.53581413   171.12065651
 N     13  12   9     5.583221047236    91.55032014    11.12112580
 N     14  13  12     5.528150518591    88.43092389   359.84326247
 C      8   7   2     2.654668413270   127.24786865   181.11170171
 C     13  12   9     2.582376967257    81.72106996   188.00453233
 C     14  13  12    10.882574804710    80.56209567   166.76250791
 C     17  13  12     2.757130505230   111.08861209   183.82872609
 C     18  14  13     4.558465206823    27.27532823    36.33507194
 C     20  18  14     2.650705180609    87.95206320   148.94598259
 C     21  20  18     2.611803198586   120.14573887   359.70382047
 C     18  14  13     4.623235745386   144.15733107    82.80075377
 C     19  17  13     2.557953565794   106.29293361   359.75308708
 C     13  12   9     2.582903091751   172.21332906    33.46711076
 C     18  14  13     2.609636529225    15.08449437   309.23336894
 N     22  21  20     2.556370638369   120.73759875     0.27865223
 C     25  13  17     2.666210041769   125.60330303   182.37774668
 C     14  13  12     2.601476916169    80.24689249   177.85461986
 C     14  13  12    10.892550769017   164.51507311   312.20821879
 C     29  14  13     2.712892575415   106.58649366   178.76395472
 C     30  14  13     4.560507835333    27.10625047    82.12560436
 C     32  30  14     2.652673401891    87.90059683   149.76154742
 C     33  32  30     2.609133588376   120.14881443   359.74174632
 C     34  33  32     4.627519515267   152.49203239     2.45173620
 C     31  29  14     2.585449236669   108.16950133     0.70383075
 C     14  13  12     2.600716325456   169.26375223   353.09862627
 C     30  14  13     2.609536633043    14.68948582   353.70041132
 N     34  33  32     2.556154803934   120.85575621     0.19603406
 C     37  14  29     2.654530526499   126.01551127   180.90772073
 C     15  14  13     2.582293994346    81.61824056   183.09049352
 C      2   1   3     8.029564866989   161.66884322   119.13309905
 C     41  15  14     2.758391104639   111.05201287   175.08990246
 C     42   2   1     4.559821839776    41.78584867   178.45919243
 C     44  42   2     2.652129475853    87.95153797   233.97558675
 C     45  44  42     2.611027836043   120.11137308     0.19721020
 C     42   2   1     4.629866436820   135.97209175    88.77404154
 C     43  41  15     2.559561325344   106.26758155     0.30894352
 C     15  14  13     2.584127074516   171.87382904   332.35056460
 C     42   2   1     2.611386828803    32.59078432   227.31447163
 C      9   2   1     2.655043698059   126.98745415   189.45183587
 N     42   2   1     2.556355970587   113.57249190   116.51063073
 H      1   2   3     2.046022813189   146.39183503   126.38698466
 H      2   1   3     2.040730117440   124.06685390   152.11294307
 H      4   3   1     2.047774413926   121.09197642   179.50366686
 H      5   4   3     2.045983542009   122.80362968   179.40102312
 H      6   5   4     2.065162890986   104.45222042   100.05516500
 H      6   5   4     2.059130437204    84.66604923   209.51103811
 H      6   5   4     2.059640246149   133.84694916   322.36897675
 H      7   2  54     2.040541119952   126.66122480     1.30600390
 H     10   1   2     2.048369861044   118.74263686   139.86556649
 H     12   9   2     1.920524309565   125.29023241   180.00180175
 H     14  13  12     1.917952867083    44.97226959   359.42596618
 H     18  14  13     2.046330847636   128.03556573   234.20482432
 H     19  17  13     2.042592906181   126.41830519   178.11313280
 H     21  20  18     2.047649722989   121.05669627   180.67006309
 H     22  21  20     2.045596898814   122.73097286   180.59748951
 H     23  18  14     2.063779938267   103.92715769   234.93429879
 H     23  18  14     2.057669673245   134.19244188    12.25587044
 H     23  18  14     2.059486796529    84.85857450   125.45241208
 H     24  19  17     2.041046823986   127.28078426   178.44613241
 H     26  18  14     2.047344503340   118.76995697   244.94906660
 H     30  14  13     2.046012340948   127.99711412   279.66882698
 H     31  29  14     2.040450114918   125.22293469   180.92530585
 H     33  32  30     2.046930203877   121.01964473   180.74284758
 H     34  33  32     2.045617847496   122.70821597   180.59516895
 H     35  34  33     2.064814429233   105.73575241    97.19771933
 H     35  34  33     2.058786158072    84.05943581   206.43036958
 H     35  34  33     2.058418400901   133.08365142   318.50306270
 H     36  31  29     2.039845353366   126.61599965   178.98859863
 H     38  30  73     2.047975821711   118.77264435   359.90091293
 H     42   2   1     2.045020725966   119.31790784   333.14216118
 H     43  41  15     2.041436952892   126.36969097   182.06329380
 H     45  44  42     2.047097678177   121.10105945   179.58025624
 H     46  45  44     2.045051284662   122.72144639   179.46906377
 H     47  42   2     2.062723288131   106.65128841   315.16475048
 H     47  42   2     2.057569012371   132.46019523    94.52397119
 H     47  42   2     2.058915377895    83.63838232   206.04504406
 H     48  43  41     2.041664347903   127.23657387   181.62955349
 H     50  42   2     2.046925842384   118.77001737    94.71359229

---------------------
BASIS SET INFORMATION
---------------------
There are 3 groups of distinct atoms

 Group   1 Type C   : 17s4p1d contracted to 3s2p1d pattern {881/31/1}
 Group   2 Type N   : 17s4p1d contracted to 3s2p1d pattern {881/31/1}
 Group   3 Type H   : 4s1p contracted to 2s1p pattern {31/1}

Atom   0C    basis set group =>   1
Atom   1N    basis set group =>   2
Atom   2C    basis set group =>   1
Atom   3N    basis set group =>   2
Atom   4C    basis set group =>   1
Atom   5N    basis set group =>   2
Atom   6C    basis set group =>   1
Atom   7N    basis set group =>   2
Atom   8C    basis set group =>   1
Atom   9N    basis set group =>   2
Atom  10C    basis set group =>   1
Atom  11N    basis set group =>   2
Atom  12C    basis set group =>   1
Atom  13N    basis set group =>   2
Atom  14C    basis set group =>   1
Atom  15N    basis set group =>   2
Atom  16C    basis set group =>   1
Atom  17C    basis set group =>   1
Atom  18C    basis set group =>   1
Atom  19C    basis set group =>   1
Atom  20C    basis set group =>   1
Atom  21C    basis set group =>   1
Atom  22C    basis set group =>   1
Atom  23C    basis set group =>   1
Atom  24C    basis set group =>   1
Atom  25C    basis set group =>   1
Atom  26C    basis set group =>   1
Atom  27C    basis set group =>   1
Atom  28C    basis set group =>   1
Atom  29C    basis set group =>   1
Atom  30C    basis set group =>   1
Atom  31C    basis set group =>   1
Atom  32C    basis set group =>   1
Atom  33C    basis set group =>   1
Atom  34C    basis set group =>   1
Atom  35C    basis set group =>   1
Atom  36C    basis set group =>   1
Atom  37C    basis set group =>   1
Atom  38C    basis set group =>   1
Atom  39C    basis set group =>   1
Atom  40C    basis set group =>   1
Atom  41C    basis set group =>   1
Atom  42C    basis set group =>   1
Atom  43C    basis set group =>   1
Atom  44C    basis set group =>   1
Atom  45C    basis set group =>   1
Atom  46C    basis set group =>   1
Atom  47C    basis set group =>   1
Atom  48C    basis set group =>   1
Atom  49C    basis set group =>   1
Atom  50C    basis set group =>   1
Atom  51C    basis set group =>   1
Atom  52H    basis set group =>   3
Atom  53H    basis set group =>   3
Atom  54H    basis set group =>   3
Atom  55H    basis set group =>   3
Atom  56H    basis set group =>   3
Atom  57H    basis set group =>   3
Atom  58H    basis set group =>   3
Atom  59H    basis set group =>   3
Atom  60H    basis set group =>   3
Atom  61H    basis set group =>   3
Atom  62H    basis set group =>   3
Atom  63H    basis set group =>   3
Atom  64H    basis set group =>   3
Atom  65H    basis set group =>   3
Atom  66H    basis set group =>   3
Atom  67H    basis set group =>   3
Atom  68H    basis set group =>   3
Atom  69H    basis set group =>   3
Atom  70H    basis set group =>   3
Atom  71H    basis set group =>   3
Atom  72H    basis set group =>   3
Atom  73H    basis set group =>   3
Atom  74H    basis set group =>   3
Atom  75H    basis set group =>   3
Atom  76H    basis set group =>   3
Atom  77H    basis set group =>   3
Atom  78H    basis set group =>   3
Atom  79H    basis set group =>   3
Atom  80H    basis set group =>   3
Atom  81H    basis set group =>   3
Atom  82H    basis set group =>   3
Atom  83H    basis set group =>   3
Atom  84H    basis set group =>   3
Atom  85H    basis set group =>   3
Atom  86H    basis set group =>   3
Atom  87H    basis set group =>   3
Atom  88H    basis set group =>   3
Atom  89H    basis set group =>   3


           ************************************************************
           *        Program running with 16 parallel MPI-processes    *
           *              working on a common directory               *
           ************************************************************
------------------------------------------------------------------------------
                           ORCA GTO INTEGRAL CALCULATION
------------------------------------------------------------------------------
------------------------------------------------------------------------------
                   ___                                                        
                  /   \      - P O W E R E D   B Y -                         
                 /     \                                                     
                 |  |  |   _    _      __       _____    __    __             
                 |  |  |  | |  | |    /  \     |  _  \  |  |  /  |          
                  \  \/   | |  | |   /    \    | | | |  |  | /  /          
                 / \  \   | |__| |  /  /\  \   | |_| |  |  |/  /          
                |  |  |   |  __  | /  /__\  \  |    /   |      \           
                |  |  |   | |  | | |   __   |  |    \   |  |\   \          
                \     /   | |  | | |  |  |  |  | |\  \  |  | \   \       
                 \___/    |_|  |_| |__|  |__|  |_| \__\ |__|  \__/        
                                                                              
                      - O R C A' S   B I G   F R I E N D -                    
                                      &                                       
                       - I N T E G R A L  F E E D E R -                       
                                                                              
 v1 FN, 2020, v2 2021                                                         
------------------------------------------------------------------------------


Reading SHARK input file /scratch/allen/tmpyp4_amber_gaff2/conf1/conf1/Conf236.orca.SHARKINP.tmp ... ok
----------------------
SHARK INTEGRAL PACKAGE
----------------------

Number of atoms                             ...     90
Number of basis functions                   ...   1230
Number of shells                            ...    738
Maximum angular momentum                    ...      2
Integral batch strategy                     ... SHARK/LIBINT Hybrid
RI-J (if used) integral strategy            ... SPLIT-RIJ (Revised 2003 algorithm where possible)
Printlevel                                  ...      1
Contraction scheme used                     ... PARTIAL GENERAL contraction
Coulomb Range Separation                    ... NOT USED
Exchange Range Separation                   ... NOT USED
Finite Nucleus Model                        ... NOT USED
Auxiliary Coulomb fitting basis             ... NOT available
Auxiliary J/K fitting basis                 ... NOT available
Auxiliary Correlation fitting basis         ... NOT available
Auxiliary 'external' fitting basis          ... NOT available
Integral threshold                          ...     2.500000e-11
Primitive cut-off                           ...     2.500000e-12
Primitive pair pre-selection threshold      ...     2.500000e-12

Calculating pre-screening integrals         ... done (  0.1 sec) Dimension = 738
Calculating pre-screening integrals (ORCA)  ... done (  0.3 sec) Dimension = 426
Organizing shell pair data                  ... done (  0.7 sec)
Shell pair information
Total number of shell pairs                 ...    272691
Shell pairs after pre-screening             ...     71609
Total number of primitive shell pairs       ...    422091
Primitive shell pairs kept                  ...     92373
          la=0 lb=0:  29414 shell pairs
          la=1 lb=0:  25968 shell pairs
          la=1 lb=1:   4701 shell pairs
          la=2 lb=0:   7869 shell pairs
          la=2 lb=1:   3126 shell pairs
          la=2 lb=2:    531 shell pairs

Calculating one electron integrals          ... done (  0.2 sec)
Calculating Nuclear repulsion               ... done (  0.0 sec) ENN=   6225.855912208940 Eh

SHARK setup successfully completed in   2.2 seconds

Maximum memory used throughout the entire GTOINT-calculation: 98.9 MB


           ************************************************************
           *        Program running with 16 parallel MPI-processes    *
           *              working on a common directory               *
           ************************************************************
-------------------------------------------------------------------------------
                                 ORCA SCF
-------------------------------------------------------------------------------

------------
SCF SETTINGS
------------
Hamiltonian:
 Ab initio Hamiltonian  Method          .... Hartree-Fock(GTOs)


General Settings:
 Integral files         IntName         .... /scratch/allen/tmpyp4_amber_gaff2/conf1/conf1/Conf236.orca
 Hartree-Fock type      HFTyp           .... RHF
 Total Charge           Charge          ....    0
 Multiplicity           Mult            ....    1
 Number of Electrons    NEL             ....  358
 Basis Dimension        Dim             ....  918
 Nuclear Repulsion      ENuc            ....   6225.8559122089 Eh

Convergence Acceleration:
 DIIS                   CNVDIIS         .... on
   Start iteration      DIISMaxIt       ....    12
   Startup error        DIISStart       ....  0.200000
   # of expansion vecs  DIISMaxEq       ....     5
   Bias factor          DIISBfac        ....   1.050
   Max. coefficient     DIISMaxC        ....  10.000
 Trust-Rad. Augm. Hess. CNVTRAH         .... auto
   Auto Start mean grad. ratio tolernc. ....  1.125000
   Auto Start start iteration           ....    20
   Auto Start num. interpolation iter.  ....    10
   Max. Number of Micro iterations      ....    16
   Max. Number of Macro iterations      .... Maxiter - #DIIS iter
   Number of Davidson start vectors     ....     2
   Converg. threshold I  (grad. norm)   ....   1.000e-05
   Converg. threshold II (energy diff.) ....   1.000e-08
   Grad. Scal. Fac. for Micro threshold ....   0.100
   Minimum threshold for Micro iter.    ....   0.010
   NR start threshold (gradient norm)   ....   0.001
   Initial trust radius                 ....   0.400
   Minimum AH scaling param. (alpha)    ....   1.000
   Maximum AH scaling param. (alpha)    .... 1000.000
   Orbital update algorithm             .... Taylor
   White noise on init. David. guess    .... on
   Maximum white noise                  ....   0.010
   Quad. conv. algorithm                .... NR
 SOSCF                  CNVSOSCF        .... on
   Start iteration      SOSCFMaxIt      ....   150
   Startup grad/error   SOSCFStart      ....  0.003300
 Level Shifting         CNVShift        .... on
   Level shift para.    LevelShift      ....    0.2500
   Turn off err/grad.   ShiftErr        ....    0.0010
 Zerner damping         CNVZerner       .... off
 Static damping         CNVDamp         .... on
   Fraction old density DampFac         ....    0.7000
   Max. Damping (<1)    DampMax         ....    0.9800
   Min. Damping (>=0)   DampMin         ....    0.0000
   Turn off err/grad.   DampErr         ....    0.1000
 Fernandez-Rico         CNVRico         .... off

SCF Procedure:
 Maximum # iterations   MaxIter         ....   125
 SCF integral mode      SCFMode         .... Direct
   Integral package                     .... SHARK and LIBINT hybrid scheme
 Reset frequency        DirectResetFreq ....    20
 Integral Threshold     Thresh          ....  2.500e-11 Eh
 Primitive CutOff       TCut            ....  2.500e-12 Eh

Convergence Tolerance:
 Convergence Check Mode ConvCheckMode   .... Total+1el-Energy
 Convergence forced     ConvForced      .... 1
 Energy Change          TolE            ....  1.000e-08 Eh
 1-El. energy change                    ....  1.000e-05 Eh
 Orbital Gradient       TolG            ....  1.000e-05
 Orbital Rotation angle TolX            ....  1.000e-05
 DIIS Error             TolErr          ....  5.000e-07


Diagonalization of the overlap matrix:
Smallest eigenvalue                        ... 2.246e-04
Time for diagonalization                   ...    0.485 sec
Threshold for overlap eigenvalues          ... 1.000e-08
Number of eigenvalues below threshold      ... 0
Time for construction of square roots      ...    0.267 sec
Total time needed                          ...    0.759 sec

Time for model grid setup =    1.302 sec

------------------------------
INITIAL GUESS: MODEL POTENTIAL
------------------------------
Loading Hartree-Fock densities                     ... done
Calculating cut-offs                               ... done
Initializing the effective Hamiltonian             ... done
Setting up the integral package (SHARK)            ... done
Starting the Coulomb interaction                   ... done (   1.4 sec)
Reading the grid                                   ... done
Mapping shells                                     ... done
Starting the XC term evaluation                    ... done (   0.2 sec)
Transforming the Hamiltonian                       ... done (   0.3 sec)
Diagonalizing the Hamiltonian                      ... done (   0.4 sec)
Back transforming the eigenvectors                 ... done (   0.1 sec)
Now organizing SCF variables                       ... done
                      ------------------
                      INITIAL GUESS DONE (   3.8 sec)
                      ------------------
--------------
SCF ITERATIONS
--------------
ITER       Energy         Delta-E        Max-DP      RMS-DP      [F,P]     Damp
               ***  Starting incremental Fock matrix formation  ***
  0  -2121.6734733111   0.000000000000 0.06900323  0.00121182  0.2329892 0.7000
  1  -2122.3382414003  -0.664768089153 0.05234563  0.00098399  0.1441602 0.7000
                               ***Turning on DIIS***
  2  -2122.7510877957  -0.412846395435 0.11619596  0.00222874  0.0802540 0.0000
  3  -2117.7389791145   5.012108681145 0.03070696  0.00068496  0.0442438 0.0000
  4  -2123.4117501574  -5.672771042904 0.00896810  0.00022925  0.0069406 0.0000
  5  -2123.5908391246  -0.179088967139 0.00516740  0.00013586  0.0048973 0.0000
  6  -2123.5739326489   0.016906475688 0.00338992  0.00008828  0.0019595 0.0000
  7  -2123.6791991608  -0.105266511904 0.00285759  0.00006991  0.0015016 0.0000
  8  -2123.6981545262  -0.018955365353 0.00280226  0.00006588  0.0014017 0.0000
  9  -2123.6619653933   0.036189132848 0.00224757  0.00004489  0.0011070 0.0000
 10  -2123.6768333075  -0.014867914168 0.00463349  0.00008836  0.0008432 0.0000
                      *** Initiating the SOSCF procedure ***
                           *** Shutting down DIIS ***
                      *** Re-Reading the Fockian *** 
                      *** Removing any level shift *** 
ITER      Energy       Delta-E        Grad      Rot      Max-DP    RMS-DP
 11  -2123.55743173   0.1194015780  0.000338  0.000338  0.000295  0.000007
               *** Restarting incremental Fock matrix formation ***
 12  -2123.62350559  -0.0660738652  0.000991  0.006737  0.001109  0.000027
 13  -2123.62357020  -0.0000646035  0.001036  0.026489  0.004095  0.000086
 14  -2123.62364734  -0.0000771403  0.000451  0.002659  0.000531  0.000011
 15  -2123.62365809  -0.0000107541  0.000126  0.001517  0.000503  0.000008
 16  -2123.62366159  -0.0000035004  0.000097  0.002382  0.000586  0.000011
 17  -2123.62366407  -0.0000024811  0.000104  0.002305  0.000461  0.000008
 18  -2123.62366514  -0.0000010671  0.000052  0.001331  0.000269  0.000005
 19  -2123.62366593  -0.0000007842  0.000055  0.000815  0.000168  0.000003
 20  -2123.62366625  -0.0000003249  0.000026  0.000528  0.000104  0.000002
 21  -2123.62366634  -0.0000000903  0.000026  0.000270  0.000050  0.000001
 22  -2123.62366641  -0.0000000682  0.000016  0.000356  0.000071  0.000001
 23  -2123.62366646  -0.0000000523  0.000011  0.000169  0.000054  0.000001
 24  -2123.62366648  -0.0000000182  0.000004  0.000106  0.000029  0.000000
 25  -2123.62366649  -0.0000000109  0.000003  0.000057  0.000019  0.000000
                  ***Gradient check signals convergence***
              ***Rediagonalizing the Fockian in SOSCF/NRSCF***

               *****************************************************
               *                     SUCCESS                       *
               *           SCF CONVERGED AFTER  26 CYCLES          *
               *****************************************************


----------------
TOTAL SCF ENERGY
----------------

Total Energy       :        -2123.62366650 Eh          -57786.73779 eV

Components:
Nuclear Repulsion  :         6225.85591221 Eh          169414.15222 eV
Electronic Energy  :        -8349.47957871 Eh         -227200.89001 eV
One Electron Energy:       -15292.81547393 Eh         -416138.66513 eV
Two Electron Energy:         6943.33589522 Eh          188937.77512 eV

Virial components:
Potential Energy   :        -4245.63762016 Eh         -115529.67306 eV
Kinetic Energy     :         2122.01395366 Eh           57742.93527 eV
Virial Ratio       :            2.00075858


---------------
SCF CONVERGENCE
---------------

  Last Energy change         ...   -1.0547e-08  Tolerance :   1.0000e-08
  Last MAX-Density change    ...    1.4297e-05  Tolerance :   1.0000e-07
  Last RMS-Density change    ...    1.8675e-07  Tolerance :   5.0000e-09
  Last Orbital Gradient      ...    2.3990e-06  Tolerance :   1.0000e-05
  Last Orbital Rotation      ...    3.7998e-05  Tolerance :   1.0000e-05

             **** THE GBW FILE WAS UPDATED (/scratch/allen/tmpyp4_amber_gaff2/conf1/conf1/Conf236.orca.gbw) ****
             **** DENSITY /scratch/allen/tmpyp4_amber_gaff2/conf1/conf1/Conf236.orca.scfp WAS UPDATED ****
             **** ENERGY FILE WAS UPDATED (/scratch/allen/tmpyp4_amber_gaff2/conf1/conf1/Conf236.orca.en.tmp) ****
             **** THE GBW FILE WAS UPDATED (/scratch/allen/tmpyp4_amber_gaff2/conf1/conf1/Conf236.orca.gbw) ****
             **** DENSITY /scratch/allen/tmpyp4_amber_gaff2/conf1/conf1/Conf236.orca.scfp WAS UPDATED ****
----------------
ORBITAL ENERGIES
----------------

  NO   OCC          E(Eh)            E(eV) 
   0   2.0000     -15.642685      -425.6591 
   1   2.0000     -15.638542      -425.5464 
   2   2.0000     -15.629156      -425.2910 
   3   2.0000     -15.620774      -425.0629 
   4   2.0000     -15.519446      -422.3056 
   5   2.0000     -15.516381      -422.2222 
   6   2.0000     -15.444980      -420.2793 
   7   2.0000     -15.443856      -420.2487 
   8   2.0000     -11.304903      -307.6220 
   9   2.0000     -11.302092      -307.5456 
  10   2.0000     -11.298790      -307.4557 
  11   2.0000     -11.296487      -307.3930 
  12   2.0000     -11.296344      -307.3891 
  13   2.0000     -11.294508      -307.3392 
  14   2.0000     -11.292746      -307.2913 
  15   2.0000     -11.291862      -307.2672 
  16   2.0000     -11.286379      -307.1180 
  17   2.0000     -11.285885      -307.1045 
  18   2.0000     -11.280699      -306.9634 
  19   2.0000     -11.279688      -306.9359 
  20   2.0000     -11.246952      -306.0451 
  21   2.0000     -11.241818      -305.9054 
  22   2.0000     -11.236924      -305.7723 
  23   2.0000     -11.236040      -305.7482 
  24   2.0000     -11.234021      -305.6933 
  25   2.0000     -11.233610      -305.6821 
  26   2.0000     -11.233242      -305.6721 
  27   2.0000     -11.227611      -305.5188 
  28   2.0000     -11.227217      -305.5081 
  29   2.0000     -11.227040      -305.5033 
  30   2.0000     -11.221478      -305.3519 
  31   2.0000     -11.220110      -305.3147 
  32   2.0000     -11.201013      -304.7951 
  33   2.0000     -11.200642      -304.7850 
  34   2.0000     -11.194168      -304.6088 
  35   2.0000     -11.193687      -304.5957 
  36   2.0000     -11.173976      -304.0593 
  37   2.0000     -11.173077      -304.0349 
  38   2.0000     -11.172934      -304.0310 
  39   2.0000     -11.171829      -304.0009 
  40   2.0000     -11.170120      -303.9544 
  41   2.0000     -11.168855      -303.9200 
  42   2.0000     -11.167409      -303.8807 
  43   2.0000     -11.166275      -303.8498 
  44   2.0000     -11.160660      -303.6970 
  45   2.0000     -11.159290      -303.6597 
  46   2.0000     -11.152561      -303.4766 
  47   2.0000     -11.150677      -303.4254 
  48   2.0000     -11.145185      -303.2759 
  49   2.0000     -11.143103      -303.2192 
  50   2.0000     -11.141863      -303.1855 
  51   2.0000     -11.138530      -303.0948 
  52   2.0000      -1.328716       -36.1562 
  53   2.0000      -1.325071       -36.0570 
  54   2.0000      -1.317020       -35.8379 
  55   2.0000      -1.310520       -35.6611 
  56   2.0000      -1.218233       -33.1498 
  57   2.0000      -1.212848       -33.0033 
  58   2.0000      -1.162268       -31.6269 
  59   2.0000      -1.157254       -31.4905 
  60   2.0000      -1.117085       -30.3974 
  61   2.0000      -1.112912       -30.2839 
  62   2.0000      -1.106151       -30.0999 
  63   2.0000      -1.100913       -29.9574 
  64   2.0000      -1.052565       -28.6417 
  65   2.0000      -1.048907       -28.5422 
  66   2.0000      -1.041644       -28.3446 
  67   2.0000      -1.036146       -28.1950 
  68   2.0000      -1.027044       -27.9473 
  69   2.0000      -1.009955       -27.4823 
  70   2.0000      -1.009642       -27.4738 
  71   2.0000      -0.997804       -27.1516 
  72   2.0000      -0.982359       -26.7314 
  73   2.0000      -0.975878       -26.5550 
  74   2.0000      -0.969317       -26.3765 
  75   2.0000      -0.960323       -26.1317 
  76   2.0000      -0.952481       -25.9183 
  77   2.0000      -0.943582       -25.6762 
  78   2.0000      -0.940606       -25.5952 
  79   2.0000      -0.923494       -25.1296 
  80   2.0000      -0.893555       -24.3149 
  81   2.0000      -0.879198       -23.9242 
  82   2.0000      -0.875725       -23.8297 
  83   2.0000      -0.869071       -23.6486 
  84   2.0000      -0.864277       -23.5182 
  85   2.0000      -0.857128       -23.3236 
  86   2.0000      -0.848023       -23.0759 
  87   2.0000      -0.844162       -22.9708 
  88   2.0000      -0.821866       -22.3641 
  89   2.0000      -0.798609       -21.7313 
  90   2.0000      -0.797887       -21.7116 
  91   2.0000      -0.739601       -20.1256 
  92   2.0000      -0.729987       -19.8640 
  93   2.0000      -0.729043       -19.8383 
  94   2.0000      -0.720789       -19.6137 
  95   2.0000      -0.720708       -19.6115 
  96   2.0000      -0.712296       -19.3826 
  97   2.0000      -0.709570       -19.3084 
  98   2.0000      -0.698976       -19.0201 
  99   2.0000      -0.692663       -18.8483 
 100   2.0000      -0.684483       -18.6257 
 101   2.0000      -0.680848       -18.5268 
 102   2.0000      -0.679377       -18.4868 
 103   2.0000      -0.673734       -18.3332 
 104   2.0000      -0.668214       -18.1830 
 105   2.0000      -0.667048       -18.1513 
 106   2.0000      -0.662057       -18.0155 
 107   2.0000      -0.660200       -17.9649 
 108   2.0000      -0.657163       -17.8823 
 109   2.0000      -0.655536       -17.8380 
 110   2.0000      -0.652266       -17.7491 
 111   2.0000      -0.650840       -17.7103 
 112   2.0000      -0.648095       -17.6356 
 113   2.0000      -0.644011       -17.5244 
 114   2.0000      -0.635196       -17.2846 
 115   2.0000      -0.623898       -16.9771 
 116   2.0000      -0.619029       -16.8446 
 117   2.0000      -0.615752       -16.7555 
 118   2.0000      -0.611368       -16.6362 
 119   2.0000      -0.608825       -16.5670 
 120   2.0000      -0.608591       -16.5606 
 121   2.0000      -0.604942       -16.4613 
 122   2.0000      -0.601524       -16.3683 
 123   2.0000      -0.593477       -16.1493 
 124   2.0000      -0.587536       -15.9877 
 125   2.0000      -0.584509       -15.9053 
 126   2.0000      -0.578704       -15.7473 
 127   2.0000      -0.574041       -15.6204 
 128   2.0000      -0.571018       -15.5382 
 129   2.0000      -0.561290       -15.2735 
 130   2.0000      -0.553813       -15.0700 
 131   2.0000      -0.543589       -14.7918 
 132   2.0000      -0.540944       -14.7198 
 133   2.0000      -0.535515       -14.5721 
 134   2.0000      -0.533884       -14.5277 
 135   2.0000      -0.530771       -14.4430 
 136   2.0000      -0.524667       -14.2769 
 137   2.0000      -0.523579       -14.2473 
 138   2.0000      -0.518197       -14.1009 
 139   2.0000      -0.516401       -14.0520 
 140   2.0000      -0.510470       -13.8906 
 141   2.0000      -0.505630       -13.7589 
 142   2.0000      -0.504043       -13.7157 
 143   2.0000      -0.502592       -13.6762 
 144   2.0000      -0.499255       -13.5854 
 145   2.0000      -0.498492       -13.5647 
 146   2.0000      -0.497414       -13.5353 
 147   2.0000      -0.492873       -13.4118 
 148   2.0000      -0.491307       -13.3691 
 149   2.0000      -0.469346       -12.7716 
 150   2.0000      -0.460576       -12.5329 
 151   2.0000      -0.451813       -12.2945 
 152   2.0000      -0.448425       -12.2023 
 153   2.0000      -0.446674       -12.1546 
 154   2.0000      -0.445210       -12.1148 
 155   2.0000      -0.439595       -11.9620 
 156   2.0000      -0.435431       -11.8487 
 157   2.0000      -0.431982       -11.7548 
 158   2.0000      -0.392360       -10.6767 
 159   2.0000      -0.383326       -10.4308 
 160   2.0000      -0.377440       -10.2707 
 161   2.0000      -0.373601       -10.1662 
 162   2.0000      -0.362590        -9.8666 
 163   2.0000      -0.359347        -9.7783 
 164   2.0000      -0.353311        -9.6141 
 165   2.0000      -0.347624        -9.4593 
 166   2.0000      -0.337130        -9.1738 
 167   2.0000      -0.332631        -9.0514 
 168   2.0000      -0.329493        -8.9660 
 169   2.0000      -0.300313        -8.1719 
 170   2.0000      -0.295662        -8.0454 
 171   2.0000      -0.289193        -7.8693 
 172   2.0000      -0.287426        -7.8213 
 173   2.0000      -0.255597        -6.9551 
 174   2.0000      -0.248478        -6.7614 
 175   2.0000      -0.188292        -5.1237 
 176   2.0000      -0.178230        -4.8499 
 177   2.0000      -0.067249        -1.8299 
 178   2.0000      -0.054586        -1.4853 
 179   0.0000       0.030786         0.8377 
 180   0.0000       0.070721         1.9244 
 181   0.0000       0.092802         2.5253 
 182   0.0000       0.097706         2.6587 
 183   0.0000       0.131713         3.5841 
 184   0.0000       0.134555         3.6614 
 185   0.0000       0.141332         3.8458 
 186   0.0000       0.147174         4.0048 
 187   0.0000       0.160276         4.3613 
 188   0.0000       0.160975         4.3804 
 189   0.0000       0.162852         4.4314 
 190   0.0000       0.167520         4.5584 
 191   0.0000       0.171289         4.6610 
 192   0.0000       0.200203         5.4478 
 193   0.0000       0.202573         5.5123 
 194   0.0000       0.203561         5.5392 
 195   0.0000       0.206172         5.6102 
 196   0.0000       0.207455         5.6451 
 197   0.0000       0.210698         5.7334 
 198   0.0000       0.211362         5.7515 
 199   0.0000       0.214571         5.8388 
 200   0.0000       0.234539         6.3821 
 201   0.0000       0.237724         6.4688 
 202   0.0000       0.241722         6.5776 
 203   0.0000       0.245844         6.6898 
 204   0.0000       0.252391         6.8679 
 205   0.0000       0.254922         6.9368 
 206   0.0000       0.258166         7.0251 
 207   0.0000       0.258409         7.0317 
 208   0.0000       0.261683         7.1207 
 209   0.0000       0.263768         7.1775 
 210   0.0000       0.267850         7.2886 
 211   0.0000       0.270086         7.3494 
 212   0.0000       0.273276         7.4362 
 213   0.0000       0.275499         7.4967 
 214   0.0000       0.277975         7.5641 
 215   0.0000       0.278690         7.5835 
 216   0.0000       0.280902         7.6437 
 217   0.0000       0.283049         7.7022 
 218   0.0000       0.286660         7.8004 
 219   0.0000       0.289798         7.8858 
 220   0.0000       0.291243         7.9251 
 221   0.0000       0.291894         7.9428 
 222   0.0000       0.293321         7.9817 
 223   0.0000       0.295349         8.0369 
 224   0.0000       0.298969         8.1354 
 225   0.0000       0.301099         8.1933 
 226   0.0000       0.302372         8.2280 
 227   0.0000       0.305364         8.3094 
 228   0.0000       0.307531         8.3684 
 229   0.0000       0.311273         8.4702 
 230   0.0000       0.316212         8.6046 
 231   0.0000       0.318551         8.6682 
 232   0.0000       0.325399         8.8545 
 233   0.0000       0.328844         8.9483 
 234   0.0000       0.331895         9.0313 
 235   0.0000       0.337615         9.1870 
 236   0.0000       0.356348         9.6967 
 237   0.0000       0.387996        10.5579 
 238   0.0000       0.394346        10.7307 
 239   0.0000       0.401390        10.9224 
 240   0.0000       0.406558        11.0630 
 241   0.0000       0.410466        11.1693 
 242   0.0000       0.422150        11.4873 
 243   0.0000       0.424047        11.5389 
 244   0.0000       0.431954        11.7541 
 245   0.0000       0.432405        11.7663 
 246   0.0000       0.435236        11.8434 
 247   0.0000       0.438483        11.9317 
 248   0.0000       0.439445        11.9579 
 249   0.0000       0.443780        12.0759 
 250   0.0000       0.445029        12.1098 
 251   0.0000       0.449607        12.2344 
 252   0.0000       0.455969        12.4076 
 253   0.0000       0.467894        12.7320 
 254   0.0000       0.471302        12.8248 
 255   0.0000       0.474676        12.9166 
 256   0.0000       0.481530        13.1031 
 257   0.0000       0.486355        13.2344 
 258   0.0000       0.491030        13.3616 
 259   0.0000       0.498338        13.5605 
 260   0.0000       0.500699        13.6247 
 261   0.0000       0.502752        13.6806 
 262   0.0000       0.506000        13.7690 
 263   0.0000       0.511016        13.9055 
 264   0.0000       0.511261        13.9121 
 265   0.0000       0.514657        14.0045 
 266   0.0000       0.517989        14.0952 
 267   0.0000       0.522017        14.2048 
 268   0.0000       0.535911        14.5829 
 269   0.0000       0.538324        14.6485 
 270   0.0000       0.540382        14.7045 
 271   0.0000       0.545745        14.8505 
 272   0.0000       0.547626        14.9017 
 273   0.0000       0.553570        15.0634 
 274   0.0000       0.560154        15.2426 
 275   0.0000       0.564199        15.3526 
 276   0.0000       0.572277        15.5725 
 277   0.0000       0.577619        15.7178 
 278   0.0000       0.581869        15.8335 
 279   0.0000       0.585786        15.9400 
 280   0.0000       0.589646        16.0451 
 281   0.0000       0.591585        16.0979 
 282   0.0000       0.594421        16.1750 
 283   0.0000       0.595966        16.2171 
 284   0.0000       0.601055        16.3555 
 285   0.0000       0.603420        16.4199 
 286   0.0000       0.605474        16.4758 
 287   0.0000       0.607213        16.5231 
 288   0.0000       0.609425        16.5833 
 289   0.0000       0.614248        16.7145 
 290   0.0000       0.617903        16.8140 
 291   0.0000       0.627759        17.0822 
 292   0.0000       0.639939        17.4136 
 293   0.0000       0.640212        17.4211 
 294   0.0000       0.640988        17.4422 
 295   0.0000       0.652146        17.7458 
 296   0.0000       0.656990        17.8776 
 297   0.0000       0.660220        17.9655 
 298   0.0000       0.661327        17.9956 
 299   0.0000       0.662815        18.0361 
 300   0.0000       0.671128        18.2623 
 301   0.0000       0.672054        18.2875 
 302   0.0000       0.678514        18.4633 
 303   0.0000       0.680805        18.5256 
 304   0.0000       0.682930        18.5835 
 305   0.0000       0.685628        18.6569 
 306   0.0000       0.690499        18.7894 
 307   0.0000       0.695109        18.9149 
 308   0.0000       0.698244        19.0002 
 309   0.0000       0.702113        19.1055 
 310   0.0000       0.704059        19.1584 
 311   0.0000       0.706174        19.2160 
 312   0.0000       0.706980        19.2379 
 313   0.0000       0.708707        19.2849 
 314   0.0000       0.711199        19.3527 
 315   0.0000       0.714577        19.4446 
 316   0.0000       0.716510        19.4972 
 317   0.0000       0.718689        19.5565 
 318   0.0000       0.719912        19.5898 
 319   0.0000       0.720979        19.6188 
 320   0.0000       0.723572        19.6894 
 321   0.0000       0.728208        19.8155 
 322   0.0000       0.731995        19.9186 
 323   0.0000       0.734327        19.9820 
 324   0.0000       0.739345        20.1186 
 325   0.0000       0.741724        20.1833 
 326   0.0000       0.745500        20.2861 
 327   0.0000       0.746807        20.3217 
 328   0.0000       0.747273        20.3343 
 329   0.0000       0.749040        20.3824 
 330   0.0000       0.751114        20.4388 
 331   0.0000       0.755919        20.5696 
 332   0.0000       0.757958        20.6251 
 333   0.0000       0.760656        20.6985 
 334   0.0000       0.763831        20.7849 
 335   0.0000       0.774165        21.0661 
 336   0.0000       0.776132        21.1196 
 337   0.0000       0.778039        21.1715 
 338   0.0000       0.784350        21.3432 
 339   0.0000       0.787091        21.4178 
 340   0.0000       0.791085        21.5265 
 341   0.0000       0.794485        21.6190 
 342   0.0000       0.797054        21.6889 
 343   0.0000       0.801319        21.8050 
 344   0.0000       0.803972        21.8772 
 345   0.0000       0.805283        21.9129 
 346   0.0000       0.809710        22.0333 
 347   0.0000       0.812879        22.1196 
 348   0.0000       0.814783        22.1714 
 349   0.0000       0.816793        22.2261 
 350   0.0000       0.819515        22.3001 
 351   0.0000       0.822886        22.3919 
 352   0.0000       0.825039        22.4505 
 353   0.0000       0.828473        22.5439 
 354   0.0000       0.830486        22.5987 
 355   0.0000       0.832623        22.6568 
 356   0.0000       0.834756        22.7149 
 357   0.0000       0.836010        22.7490 
 358   0.0000       0.837943        22.8016 
 359   0.0000       0.838729        22.8230 
 360   0.0000       0.840926        22.8828 
 361   0.0000       0.842131        22.9156 
 362   0.0000       0.843278        22.9468 
 363   0.0000       0.844402        22.9774 
 364   0.0000       0.845354        23.0032 
 365   0.0000       0.848275        23.0827 
 366   0.0000       0.851516        23.1709 
 367   0.0000       0.855216        23.2716 
 368   0.0000       0.858928        23.3726 
 369   0.0000       0.861050        23.4304 
 370   0.0000       0.865247        23.5446 
 371   0.0000       0.866940        23.5906 
 372   0.0000       0.871323        23.7099 
 373   0.0000       0.877668        23.8826 
 374   0.0000       0.878271        23.8990 
 375   0.0000       0.882508        24.0143 
 376   0.0000       0.884825        24.0773 
 377   0.0000       0.887997        24.1636 
 378   0.0000       0.892731        24.2924 
 379   0.0000       0.895384        24.3646 
 380   0.0000       0.898808        24.4578 
 381   0.0000       0.900226        24.4964 
 382   0.0000       0.901232        24.5238 
 383   0.0000       0.903161        24.5763 
 384   0.0000       0.904267        24.6063 
 385   0.0000       0.907065        24.6825 
 386   0.0000       0.909049        24.7365 
 387   0.0000       0.910190        24.7675 
 388   0.0000       0.912146        24.8208 
 389   0.0000       0.914823        24.8936 
 390   0.0000       0.917025        24.9535 
 391   0.0000       0.920272        25.0419 
 392   0.0000       0.921433        25.0735 
 393   0.0000       0.924895        25.1677 
 394   0.0000       0.927024        25.2256 
 395   0.0000       0.932408        25.3721 
 396   0.0000       0.934669        25.4336 
 397   0.0000       0.936347        25.4793 
 398   0.0000       0.937488        25.5103 
 399   0.0000       0.940900        25.6032 
 400   0.0000       0.944506        25.7013 
 401   0.0000       0.946131        25.7455 
 402   0.0000       0.950149        25.8549 
 403   0.0000       0.951699        25.8970 
 404   0.0000       0.952722        25.9249 
 405   0.0000       0.955309        25.9953 
 406   0.0000       0.961362        26.1600 
 407   0.0000       0.965212        26.2648 
 408   0.0000       0.967894        26.3377 
 409   0.0000       0.970636        26.4123 
 410   0.0000       0.976705        26.5775 
 411   0.0000       0.978187        26.6178 
 412   0.0000       0.983878        26.7727 
 413   0.0000       0.986518        26.8445 
 414   0.0000       0.989359        26.9218 
 415   0.0000       0.990207        26.9449 
 416   0.0000       0.993398        27.0317 
 417   0.0000       1.003282        27.3007 
 418   0.0000       1.007649        27.4195 
 419   0.0000       1.015100        27.6223 
 420   0.0000       1.022053        27.8115 
 421   0.0000       1.030008        28.0279 
 422   0.0000       1.032533        28.0967 
 423   0.0000       1.038519        28.2595 
 424   0.0000       1.041326        28.3359 
 425   0.0000       1.046359        28.4729 
 426   0.0000       1.051451        28.6114 
 427   0.0000       1.066478        29.0203 
 428   0.0000       1.070021        29.1168 
 429   0.0000       1.071729        29.1632 
 430   0.0000       1.076046        29.2807 
 431   0.0000       1.079713        29.3805 
 432   0.0000       1.085155        29.5286 
 433   0.0000       1.089712        29.6526 
 434   0.0000       1.095186        29.8015 
 435   0.0000       1.099229        29.9115 
 436   0.0000       1.108024        30.1509 
 437   0.0000       1.112978        30.2857 
 438   0.0000       1.117910        30.4199 
 439   0.0000       1.118055        30.4238 
 440   0.0000       1.120611        30.4934 
 441   0.0000       1.125112        30.6159 
 442   0.0000       1.129562        30.7369 
 443   0.0000       1.131410        30.7872 
 444   0.0000       1.134805        30.8796 
 445   0.0000       1.135695        30.9038 
 446   0.0000       1.137353        30.9489 
 447   0.0000       1.142590        31.0915 
 448   0.0000       1.143822        31.1250 
 449   0.0000       1.145841        31.1799 
 450   0.0000       1.147271        31.2188 
 451   0.0000       1.150398        31.3039 
 452   0.0000       1.154095        31.4045 
 453   0.0000       1.157317        31.4922 
 454   0.0000       1.160735        31.5852 
 455   0.0000       1.167645        31.7732 
 456   0.0000       1.175135        31.9770 
 457   0.0000       1.176716        32.0201 
 458   0.0000       1.178808        32.0770 
 459   0.0000       1.187198        32.3053 
 460   0.0000       1.187750        32.3203 
 461   0.0000       1.191452        32.4211 
 462   0.0000       1.204114        32.7656 
 463   0.0000       1.204966        32.7888 
 464   0.0000       1.207092        32.8466 
 465   0.0000       1.210732        32.9457 
 466   0.0000       1.212815        33.0024 
 467   0.0000       1.218104        33.1463 
 468   0.0000       1.223773        33.3006 
 469   0.0000       1.227343        33.3977 
 470   0.0000       1.233953        33.5776 
 471   0.0000       1.235613        33.6228 
 472   0.0000       1.237775        33.6816 
 473   0.0000       1.240961        33.7683 
 474   0.0000       1.242353        33.8061 
 475   0.0000       1.246211        33.9111 
 476   0.0000       1.249545        34.0018 
 477   0.0000       1.250221        34.0202 
 478   0.0000       1.253266        34.1031 
 479   0.0000       1.254381        34.1334 
 480   0.0000       1.257708        34.2240 
 481   0.0000       1.266637        34.4669 
 482   0.0000       1.268311        34.5125 
 483   0.0000       1.271654        34.6035 
 484   0.0000       1.274277        34.6749 
 485   0.0000       1.278582        34.7920 
 486   0.0000       1.281866        34.8814 
 487   0.0000       1.284297        34.9475 
 488   0.0000       1.288117        35.0514 
 489   0.0000       1.290320        35.1114 
 490   0.0000       1.291064        35.1316 
 491   0.0000       1.294447        35.2237 
 492   0.0000       1.302254        35.4361 
 493   0.0000       1.308425        35.6040 
 494   0.0000       1.313185        35.7336 
 495   0.0000       1.315341        35.7923 
 496   0.0000       1.318974        35.8911 
 497   0.0000       1.322311        35.9819 
 498   0.0000       1.323757        36.0213 
 499   0.0000       1.328927        36.1620 
 500   0.0000       1.335194        36.3325 
 501   0.0000       1.337789        36.4031 
 502   0.0000       1.341975        36.5170 
 503   0.0000       1.346932        36.6519 
 504   0.0000       1.348882        36.7050 
 505   0.0000       1.352757        36.8104 
 506   0.0000       1.353931        36.8423 
 507   0.0000       1.355747        36.8917 
 508   0.0000       1.358247        36.9598 
 509   0.0000       1.361696        37.0536 
 510   0.0000       1.367269        37.2053 
 511   0.0000       1.367722        37.2176 
 512   0.0000       1.371136        37.3105 
[...]
      pz      :     0.021982  p :     0.079582
      px      :     0.043321
      py      :     0.014279
 77 H s       :     0.888773  s :     0.888773
      pz      :     0.047650  p :     0.078917
      px      :     0.015013
      py      :     0.016254
 78 H s       :     0.889159  s :     0.889159
      pz      :     0.025715  p :     0.078859
      px      :     0.020550
      py      :     0.032594
 79 H s       :     0.909249  s :     0.909249
      pz      :     0.022105  p :     0.086685
      px      :     0.021760
      py      :     0.042820
 80 H s       :     0.870302  s :     0.870302
      pz      :     0.038908  p :     0.084161
      px      :     0.029947
      py      :     0.015306
 81 H s       :     0.887260  s :     0.887260
      pz      :     0.037749  p :     0.083881
      px      :     0.016148
      py      :     0.029984
 82 H s       :     0.915115  s :     0.915115
      pz      :     0.022087  p :     0.086855
      px      :     0.031390
      py      :     0.033378
 83 H s       :     0.872609  s :     0.872609
      pz      :     0.039269  p :     0.083989
      px      :     0.015253
      py      :     0.029467
 84 H s       :     0.887008  s :     0.887008
      pz      :     0.035799  p :     0.083719
      px      :     0.031730
      py      :     0.016190
 85 H s       :     0.893571  s :     0.893571
      pz      :     0.022501  p :     0.079744
      px      :     0.014086
      py      :     0.043156
 86 H s       :     0.890716  s :     0.890716
      pz      :     0.024728  p :     0.078864
      px      :     0.032997
      py      :     0.021140
 87 H s       :     0.890171  s :     0.890171
      pz      :     0.047963  p :     0.078706
      px      :     0.015609
      py      :     0.015134
 88 H s       :     0.913475  s :     0.913475
      pz      :     0.021972  p :     0.086940
      px      :     0.042580
      py      :     0.022387
 89 H s       :     0.872499  s :     0.872499
      pz      :     0.037893  p :     0.083878
      px      :     0.030484
      py      :     0.015501


                      *****************************
                      * MAYER POPULATION ANALYSIS *
                      *****************************

  NA   - Mulliken gross atomic population
  ZA   - Total nuclear charge
  QA   - Mulliken gross atomic charge
  VA   - Mayer's total valence
  BVA  - Mayer's bonded valence
  FA   - Mayer's free valence

  ATOM       NA         ZA         QA         VA         BVA        FA
  0 C      5.7900     6.0000     0.2100     3.8300     3.8300    -0.0000
  1 N      7.4448     7.0000    -0.4448     3.3611     3.3611    -0.0000
  2 C      6.0637     6.0000    -0.0637     3.9183     3.9183    -0.0000
  3 N      7.3370     7.0000    -0.3370     3.4469     3.4469    -0.0000
  4 C      6.0599     6.0000    -0.0599     3.9826     3.9826     0.0000
  5 N      7.5633     7.0000    -0.5633     3.0859     3.0859     0.0000
  6 C      6.0738     6.0000    -0.0738     3.9997     3.9997     0.0000
  7 N      7.3382     7.0000    -0.3382     3.4405     3.4405    -0.0000
  8 C      5.7965     6.0000     0.2035     3.8312     3.8312     0.0000
  9 N      7.5632     7.0000    -0.5632     3.0827     3.0827    -0.0000
 10 C      5.8848     6.0000     0.1152     3.8969     3.8969     0.0000
 11 N      7.4374     7.0000    -0.4374     3.3838     3.3838     0.0000
 12 C      6.0745     6.0000    -0.0745     3.9182     3.9182    -0.0000
 13 N      7.4381     7.0000    -0.4381     3.3873     3.3873    -0.0000
 14 C      5.7562     6.0000     0.2438     3.7861     3.7861    -0.0000
 15 N      7.4408     7.0000    -0.4408     3.3716     3.3716    -0.0000
 16 C      5.7675     6.0000     0.2325     3.7903     3.7903    -0.0000
 17 C      6.0811     6.0000    -0.0811     4.0000     4.0000     0.0000
 18 C      6.2162     6.0000    -0.2162     3.7605     3.7605     0.0000
 19 C      5.7585     6.0000     0.2415     3.8652     3.8652     0.0000
 20 C      5.7909     6.0000     0.2091     3.8259     3.8259    -0.0000
 21 C      6.0873     6.0000    -0.0873     3.9077     3.9077    -0.0000
 22 C      6.0876     6.0000    -0.0876     3.9835     3.9835     0.0000
 23 C      6.0470     6.0000    -0.0470     3.9906     3.9906     0.0000
 24 C      5.7963     6.0000     0.2037     3.8230     3.8230    -0.0000
 25 C      5.8861     6.0000     0.1139     3.8899     3.8899    -0.0000
 26 C      6.0718     6.0000    -0.0718     3.9080     3.9080    -0.0000
 27 C      5.7789     6.0000     0.2211     3.8803     3.8803    -0.0000
 28 C      6.0541     6.0000    -0.0541     3.9877     3.9877     0.0000
 29 C      6.1842     6.0000    -0.1842     3.7368     3.7368     0.0000
 30 C      5.7629     6.0000     0.2371     3.7945     3.7945     0.0000
 31 C      5.7859     6.0000     0.2141     3.8255     3.8255     0.0000
 32 C      6.0648     6.0000    -0.0648     3.9185     3.9185     0.0000
 33 C      6.0777     6.0000    -0.0777     3.9827     3.9827    -0.0000
 34 C      6.0504     6.0000    -0.0504     3.9905     3.9905    -0.0000
 35 C      5.7915     6.0000     0.2085     3.8237     3.8237    -0.0000
 36 C      5.8869     6.0000     0.1131     3.8887     3.8887     0.0000
 37 C      6.0665     6.0000    -0.0665     3.9175     3.9175     0.0000
 38 C      5.7641     6.0000     0.2359     3.7989     3.7989    -0.0000
 39 C      6.0606     6.0000    -0.0606     3.9897     3.9897     0.0000
 40 C      6.1884     6.0000    -0.1884     3.7386     3.7386    -0.0000
 41 C      5.7778     6.0000     0.2222     3.8821     3.8821    -0.0000
 42 C      5.7977     6.0000     0.2023     3.8274     3.8274    -0.0000
 43 C      6.0733     6.0000    -0.0733     3.9027     3.9027    -0.0000
 44 C      6.0891     6.0000    -0.0891     3.9850     3.9850    -0.0000
 45 C      6.0539     6.0000    -0.0539     3.9930     3.9930    -0.0000
 46 C      5.7955     6.0000     0.2045     3.8260     3.8260    -0.0000
 47 C      5.8844     6.0000     0.1156     3.8936     3.8936     0.0000
 48 C      6.0729     6.0000    -0.0729     3.9051     3.9051    -0.0000
 49 C      5.7716     6.0000     0.2284     3.8853     3.8853    -0.0000
 50 C      6.0520     6.0000    -0.0520     3.9903     3.9903     0.0000
 51 C      6.1894     6.0000    -0.1894     3.7363     3.7363    -0.0000
 52 H      0.9482     1.0000     0.0518     0.9853     0.9853     0.0000
 53 H      1.0143     1.0000    -0.0143     0.9988     0.9988     0.0000
 54 H      0.9533     1.0000     0.0467     1.0082     1.0082     0.0000
 55 H      0.9500     1.0000     0.0500     0.9861     0.9861    -0.0000
 56 H      0.9424     1.0000     0.0576     0.9710     0.9710     0.0000
 57 H      0.9448     1.0000     0.0552     0.9838     0.9838    -0.0000
 58 H      0.9455     1.0000     0.0545     0.9853     0.9853    -0.0000
 59 H      1.0096     1.0000    -0.0096     1.0002     1.0002    -0.0000
 60 H      0.9505     1.0000     0.0495     1.0096     1.0096     0.0000
 61 H      0.8274     1.0000     0.1726     1.0424     1.0424    -0.0000
 62 H      0.8268     1.0000     0.1732     1.0435     1.0435    -0.0000
 63 H      0.9434     1.0000     0.0566     0.9854     0.9854     0.0000
 64 H      1.0163     1.0000    -0.0163     0.9965     0.9965    -0.0000
 65 H      0.9525     1.0000     0.0475     1.0090     1.0090    -0.0000
 66 H      0.9424     1.0000     0.0576     0.9851     0.9851    -0.0000
 67 H      0.9372     1.0000     0.0628     0.9720     0.9720    -0.0000
 68 H      0.9418     1.0000     0.0582     0.9868     0.9868    -0.0000
 69 H      0.9414     1.0000     0.0586     0.9829     0.9829    -0.0000
 70 H      1.0252     1.0000    -0.0252     0.9941     0.9941     0.0000
 71 H      0.9526     1.0000     0.0474     1.0066     1.0066     0.0000
 72 H      0.9411     1.0000     0.0589     0.9848     0.9848    -0.0000
 73 H      1.0132     1.0000    -0.0132     0.9990     0.9990     0.0000
 74 H      0.9510     1.0000     0.0490     1.0099     1.0099    -0.0000
 75 H      0.9420     1.0000     0.0580     0.9853     0.9853    -0.0000
 76 H      0.9359     1.0000     0.0641     0.9717     0.9717     0.0000
 77 H      0.9402     1.0000     0.0598     0.9851     0.9851     0.0000
 78 H      0.9410     1.0000     0.0590     0.9848     0.9848     0.0000
 79 H      1.0144     1.0000    -0.0144     0.9991     0.9991     0.0000
 80 H      0.9506     1.0000     0.0494     1.0071     1.0071    -0.0000
 81 H      0.9466     1.0000     0.0534     0.9855     0.9855     0.0000
 82 H      1.0236     1.0000    -0.0236     0.9941     0.9941     0.0000
 83 H      0.9570     1.0000     0.0430     1.0091     1.0091     0.0000
 84 H      0.9466     1.0000     0.0534     0.9855     0.9855    -0.0000
 85 H      0.9406     1.0000     0.0594     0.9716     0.9716     0.0000
 86 H      0.9438     1.0000     0.0562     0.9840     0.9840    -0.0000
 87 H      0.9434     1.0000     0.0566     0.9855     0.9855     0.0000
 88 H      1.0204     1.0000    -0.0204     0.9948     0.9948    -0.0000
 89 H      0.9558     1.0000     0.0442     1.0072     1.0072    -0.0000

  Mayer bond orders larger than 0.100000
B(  0-C ,  1-N ) :   1.1118 B(  0-C , 17-C ) :   1.6514 B(  0-C , 52-H ) :   0.9691 
B(  1-N ,  8-C ) :   1.1061 B(  1-N , 10-C ) :   0.9653 B(  2-C , 12-C ) :   1.5298 
B(  2-C , 16-C ) :   1.3314 B(  2-C , 53-H ) :   0.9774 B(  3-N , 14-C ) :   1.2060 
B(  3-N , 16-C ) :   1.1953 B(  3-N , 61-H ) :   0.8984 B(  4-C ,  6-C ) :   1.2517 
B(  4-C , 17-C ) :   1.2514 B(  4-C , 18-C ) :   1.3103 B(  5-N , 19-C ) :   1.4279 
B(  5-N , 27-C ) :   1.3978 B(  6-C ,  8-C ) :   1.6524 B(  6-C , 54-H ) :   0.9701 
B(  7-N , 30-C ) :   1.1941 B(  7-N , 38-C ) :   1.1997 B(  7-N , 62-H ) :   0.8981 
B(  8-C , 55-H ) :   0.9698 B(  9-N , 41-C ) :   1.4061 B(  9-N , 49-C ) :   1.4167 
B( 10-C , 56-H ) :   0.9764 B( 10-C , 57-H ) :   0.9818 B( 10-C , 58-H ) :   0.9838 
B( 11-N , 20-C ) :   1.1266 B( 11-N , 24-C ) :   1.1204 B( 11-N , 25-C ) :   0.9583 
B( 12-C , 14-C ) :   1.3324 B( 12-C , 59-H ) :   0.9758 B( 13-N , 31-C ) :   1.1301 
B( 13-N , 35-C ) :   1.1241 B( 13-N , 36-C ) :   0.9566 B( 14-C , 18-C ) :   1.1795 
B( 15-N , 42-C ) :   1.1143 B( 15-N , 46-C ) :   1.1156 B( 15-N , 47-C ) :   0.9622 
B( 16-C , 51-C ) :   1.1928 B( 17-C , 60-H ) :   0.9699 B( 18-C , 19-C ) :   1.1952 
B( 19-C , 21-C ) :   1.2154 B( 20-C , 28-C ) :   1.6233 B( 20-C , 63-H ) :   0.9703 
B( 21-C , 26-C ) :   1.6393 B( 21-C , 64-H ) :   0.9709 B( 22-C , 23-C ) :   1.2857 
B( 22-C , 28-C ) :   1.2731 B( 22-C , 29-C ) :   1.2259 B( 23-C , 24-C ) :   1.6177 
B( 23-C , 65-H ) :   0.9708 B( 24-C , 66-H ) :   0.9692 B( 25-C , 67-H ) :   0.9761 
B( 25-C , 68-H ) :   0.9829 B( 25-C , 69-H ) :   0.9821 B( 26-C , 27-C ) :   1.2143 
B( 26-C , 70-H ) :   0.9729 B( 27-C , 29-C ) :   1.2306 B( 28-C , 71-H ) :   0.9715 
B( 29-C , 30-C ) :   1.2148 B( 30-C , 32-C ) :   1.3085 B( 31-C , 39-C ) :   1.6235 
B( 31-C , 72-H ) :   0.9694 B( 32-C , 37-C ) :   1.5499 B( 32-C , 73-H ) :   0.9779 
B( 33-C , 34-C ) :   1.2805 B( 33-C , 39-C ) :   1.2740 B( 33-C , 40-C ) :   1.2371 
B( 34-C , 35-C ) :   1.6205 B( 34-C , 74-H ) :   0.9703 B( 35-C , 75-H ) :   0.9694 
B( 36-C , 76-H ) :   0.9764 B( 36-C , 77-H ) :   0.9820 B( 36-C , 78-H ) :   0.9830 
B( 37-C , 38-C ) :   1.3102 B( 37-C , 79-H ) :   0.9775 B( 38-C , 40-C ) :   1.2109 
B( 39-C , 80-H ) :   0.9713 B( 40-C , 41-C ) :   1.2245 B( 41-C , 43-C ) :   1.2082 
B( 42-C , 50-C ) :   1.6336 B( 42-C , 81-H ) :   0.9696 B( 43-C , 48-C ) :   1.6436 
B( 43-C , 82-H ) :   0.9735 B( 44-C , 45-C ) :   1.2697 B( 44-C , 50-C ) :   1.2676 
B( 44-C , 51-C ) :   1.2561 B( 45-C , 46-C ) :   1.6330 B( 45-C , 83-H ) :   0.9713 
B( 46-C , 84-H ) :   0.9702 B( 47-C , 85-H ) :   0.9761 B( 47-C , 86-H ) :   0.9828 
B( 47-C , 87-H ) :   0.9826 B( 48-C , 49-C ) :   1.2086 B( 48-C , 88-H ) :   0.9740 
B( 49-C , 51-C ) :   1.2246 B( 50-C , 89-H ) :   0.9713 

-------
TIMINGS
-------

Total SCF time: 0 days 0 hours 26 min 40 sec 

Total time                  ....    1600.804 sec
Sum of individual times     ....    1596.108 sec  ( 99.7%)

Fock matrix formation       ....    1569.529 sec  ( 98.0%)
Diagonalization             ....       8.925 sec  (  0.6%)
Density matrix formation    ....       0.494 sec  (  0.0%)
Population analysis         ....       0.584 sec  (  0.0%)
Initial guess               ....       2.518 sec  (  0.2%)
Orbital Transformation      ....       0.000 sec  (  0.0%)
Orbital Orthonormalization  ....       0.000 sec  (  0.0%)
DIIS solution               ....       3.963 sec  (  0.2%)
SOSCF solution              ....       8.793 sec  (  0.5%)

Maximum memory used throughout the entire SCF-calculation: 302.6 MB


           ************************************************************
           *        Program running with 16 parallel MPI-processes    *
           *              working on a common directory               *
           ************************************************************

------------------------------------------------------------------------------
                                ORCA  MP2 
------------------------------------------------------------------------------

Freezing NCore=104 chemical core electrons

----------
MP2 ENERGY (disk based algorithm)
----------

Dimension of the basis                    ...  918
Memory devoted to MP2                     ... 2000 MB   
Data format for buffers                   ... DOUBLE
Compression type for matrix containers    ... UNCOMPRESSED

-------------------------------
PARTIAL EXCHANGE TRANSFORMATION
-------------------------------

Transformation type                        ... one-operator
Generation of integrals (i,mue|j,nue)      ... ON
Generation of integrals (mue,kappa|nue,tau)... OFF
Generation of integrals (i,mue|a,nue)      ... OFF
Dimension of the basis                     ...  918
Number of internal MOs                     ...  127 (  52- 178)
Pair cutoff                                ... 2.500e-12 Eh
Number of AO pairs in the trafo            ... 421821
Total Number of distinct AO pairs          ... 421821
Memory devoted for trafo                   ... 2000.0 MB 
Max. Number of MO pairs treated together   ...  311      
Number Format for Storage                  ... Double (8 Byte)
Integral package used                      ... LIBINT

Starting integral evaluation:
    ... done with AO integral generation
Closing buffer AOK     (38.26 GB; CompressionRatio= 1.32)
Collecting buffer AOK 
Number of MO pairs included in the trafo   ... 8128
------------------------
SORTING OF (i,mue|j,nue)
------------------------

IBATCH = 1 of  2
IBATCH = 2 of  2
Closing buffer KAO     (51.03 GB; CompressionRatio= 1.00)
Collecting buffer KAO 
N(AO-Batches) Done                         ...  85305594 
N(AO-Batches) Skipped                      ...  82418632 
N(IJ)-pairs Skipped                        ...         0 
TOTAL TIME for half transformation         ...  2394.025 sec
AO-integral generation                     ...   209.019 sec
Half transformation                        ...   423.580 sec
K-integral sorting                         ...  1538.574 sec

Finished integral transformation - now doing MP2 part

OPERATOR COMBINATION   0   0: ij=( 52..178, 52..178)
Process  4:   Internal MO  84
Process 10:   Internal MO 132
Process 13:   Internal MO 156
Process  1:   Internal MO  60
Process  7:   Internal MO 108
Process  0:   Internal MO  54
Process  2:   Internal MO  69
Process  0:   Internal MO  57
Process  1:   Internal MO  63
Process  3:   Internal MO  78
Process  5:   Internal MO  93
Process  8:   Internal MO 117
Process  1:   Internal MO  66
Process  2:   Internal MO  72
Process  6:   Internal MO 102
Process 11:   Internal MO 141
Process 14:   Internal MO 165
Process  3:   Internal MO  81
Process  4:   Internal MO  87
Process  2:   Internal MO  75
Process  9:   Internal MO 126
Process  7:   Internal MO 111
Process 12:   Internal MO 150
Process  5:   Internal MO  96
Process 10:   Internal MO 135
Process  4:   Internal MO  90
Process  6:   Internal MO 105
Process  8:   Internal MO 120
Process 15:   Internal MO 174
Process  5:   Internal MO  99
Process  7:   Internal MO 114
Process  9:   Internal MO 129
Process 13:   Internal MO 159
Process 11:   Internal MO 144
Process 14:   Internal MO 168
Process 12:   Internal MO 153
Process  8:   Internal MO 123
Process 10:   Internal MO 138
Process 15:   Internal MO 177
Process 11:   Internal MO 147
Process 13:   Internal MO 162
Process 14:   Internal MO 171
-----------------------------------------------
 MP2 CORRELATION ENERGY   :     -7.289861376 Eh
-----------------------------------------------


-------
TIMINGS
-------
Total time                : 2677.306 sec
Integral trafo            : 2396.783 sec ( 89.5%)
K(i,j)                    :    7.176 sec (  0.3%)
T(i,j)                    :    0.102 sec (  0.0%)

---------------------------------------
MP2 TOTAL ENERGY:    -2130.913527876 Eh
---------------------------------------

Maximum memory used throughout the entire MP2-calculation: 2275.2 MB

-------------------------   --------------------
FINAL SINGLE POINT ENERGY     -2130.913527876339
-------------------------   --------------------


                            ***************************************
                            *     ORCA property calculations      *
                            ***************************************


  WARNING: The energy has been calculated at the MP2 level but the densities
           used in the property calculations are still SCF densities
           MP2 response densities have not been calculated 
           use %mp2 Density relaxed end
           or  %mp2 Density unrelaxed end

                                    ---------------------
                                    Active property flags
                                    ---------------------
   (+) Dipole Moment


------------------------------------------------------------------------------
                       ORCA ELECTRIC PROPERTIES CALCULATION
------------------------------------------------------------------------------

Dipole Moment Calculation                       ... on
Quadrupole Moment Calculation                   ... off
Polarizability Calculation                      ... off
GBWName                                         ... /scratch/allen/tmpyp4_amber_gaff2/conf1/conf1/Conf236.orca.gbw
Electron density                                ... /scratch/allen/tmpyp4_amber_gaff2/conf1/conf1/Conf236.orca.scfp
The origin for moment calculation is the CENTER OF MASS  = ( 0.001713, -0.002890 -0.001619)

-------------
DIPOLE MOMENT
-------------
                                X             Y             Z
Electronic contribution:      0.16318      -1.42698      -0.11898
Nuclear contribution   :      0.07839       0.24109       0.12996
                        -----------------------------------------
Total Dipole Moment    :      0.24157      -1.18589       0.01098
                        -----------------------------------------
Magnitude (a.u.)       :      1.21030
Magnitude (Debye)      :      3.07633



--------------------
Rotational spectrum 
--------------------
 
Rotational constants in cm-1:     0.001499     0.001475     0.000762 
Rotational constants in MHz :    44.932591    44.221597    22.837983 

 Dipole components along the rotational axes: 
x,y,z [a.u.] :     0.611400    -1.044477     0.008656 
x,y,z [Debye]:     1.554056    -2.654849     0.022002 

 

Timings for individual modules:

Sum of individual times         ...     4302.577 sec (=  71.710 min)
GTO integral calculation        ...        3.490 sec (=   0.058 min)   0.1 %
SCF iterations                  ...     1602.059 sec (=  26.701 min)  37.2 %
MP2 module                      ...     2697.028 sec (=  44.950 min)  62.7 %
                             ****ORCA TERMINATED NORMALLY****
TOTAL RUN TIME: 0 days 1 hours 11 minutes 46 seconds 53 msec
# of primitive gaussian functions

