
                                 *****************
                                 * O   R   C   A *
                                 *****************

                                            #,                                       
                                            ###                                      
                                            ####                                     
                                            #####                                    
                                            ######                                   
                                           ########,                                 
                                     ,,################,,,,,                         
                               ,,#################################,,                 
                          ,,##########################################,,             
                       ,#########################################, ''#####,          
                    ,#############################################,,   '####,        
                  ,##################################################,,,,####,       
                ,###########''''           ''''###############################       
              ,#####''   ,,,,##########,,,,          '''####'''          '####       
            ,##' ,,,,###########################,,,                        '##       
           ' ,,###''''                  '''############,,,                           
         ,,##''                                '''############,,,,        ,,,,,,###''
      ,#''                                            '''#######################'''  
     '                                                          ''''####''''         
             ,#######,   #######,   ,#######,      ##                                
            ,#'     '#,  ##    ##  ,#'     '#,    #''#        ######   ,####,        
            ##       ##  ##   ,#'  ##            #'  '#       #        #'  '#        
            ##       ##  #######   ##           ,######,      #####,   #    #        
            '#,     ,#'  ##    ##  '#,     ,#' ,#      #,         ##   #,  ,#        
             '#######'   ##     ##  '#######'  #'      '#     #####' # '####'        



                  #######################################################
                  #                        -***-                        #
                  #          Department of theory and spectroscopy      #
                  #    Directorship and core code : Frank Neese         #
                  #        Max Planck Institute fuer Kohlenforschung    #
                  #                Kaiser Wilhelm Platz 1               #
                  #                 D-45470 Muelheim/Ruhr               #
                  #                      Germany                        #
                  #                                                     #
                  #                  All rights reserved                #
                  #                        -***-                        #
                  #######################################################


                         Program Version 5.0.4 -  RELEASE  -


 With contributions from (in alphabetic order):
   Daniel Aravena         : Magnetic Suceptibility
   Michael Atanasov       : Ab Initio Ligand Field Theory (pilot matlab implementation)
   Alexander A. Auer      : GIAO ZORA, VPT2 properties, NMR spectrum
   Ute Becker             : Parallelization
   Giovanni Bistoni       : ED, misc. LED, open-shell LED, HFLD
   Martin Brehm           : Molecular dynamics
   Dmytro Bykov           : SCF Hessian
   Vijay G. Chilkuri      : MRCI spin determinant printing, contributions to CSF-ICE
   Dipayan Datta          : RHF DLPNO-CCSD density
   Achintya Kumar Dutta   : EOM-CC, STEOM-CC
   Dmitry Ganyushin       : Spin-Orbit,Spin-Spin,Magnetic field MRCI
   Miquel Garcia          : C-PCM and meta-GGA Hessian, CC/C-PCM, Gaussian charge scheme
   Yang Guo               : DLPNO-NEVPT2, F12-NEVPT2, CIM, IAO-localization
   Andreas Hansen         : Spin unrestricted coupled pair/coupled cluster methods
   Benjamin Helmich-Paris : MC-RPA, TRAH-SCF, COSX integrals
   Lee Huntington         : MR-EOM, pCC
   Robert Izsak           : Overlap fitted RIJCOSX, COSX-SCS-MP3, EOM
   Marcus Kettner         : VPT2
   Christian Kollmar      : KDIIS, OOCD, Brueckner-CCSD(T), CCSD density, CASPT2, CASPT2-K
   Simone Kossmann        : Meta GGA functionals, TD-DFT gradient, OOMP2, MP2 Hessian
   Martin Krupicka        : Initial AUTO-CI
   Lucas Lang             : DCDCAS
   Marvin Lechner         : AUTO-CI (C++ implementation), FIC-MRCC
   Dagmar Lenk            : GEPOL surface, SMD
   Dimitrios Liakos       : Extrapolation schemes; Compound Job, initial MDCI parallelization
   Dimitrios Manganas     : Further ROCIS development; embedding schemes
   Dimitrios Pantazis     : SARC Basis sets
   Anastasios Papadopoulos: AUTO-CI, single reference methods and gradients
   Taras Petrenko         : DFT Hessian,TD-DFT gradient, ASA, ECA, R-Raman, ABS, FL, XAS/XES, NRVS
   Peter Pinski           : DLPNO-MP2, DLPNO-MP2 Gradient
   Christoph Reimann      : Effective Core Potentials
   Marius Retegan         : Local ZFS, SOC
   Christoph Riplinger    : Optimizer, TS searches, QM/MM, DLPNO-CCSD(T), (RO)-DLPNO pert. Triples
   Tobias Risthaus        : Range-separated hybrids, TD-DFT gradient, RPA, STAB
   Michael Roemelt        : Original ROCIS implementation
   Masaaki Saitow         : Open-shell DLPNO-CCSD energy and density
   Barbara Sandhoefer     : DKH picture change effects
   Avijit Sen             : IP-ROCIS
   Kantharuban Sivalingam : CASSCF convergence, NEVPT2, FIC-MRCI
   Bernardo de Souza      : ESD, SOC TD-DFT
   Georgi Stoychev        : AutoAux, RI-MP2 NMR, DLPNO-MP2 response
   Willem Van den Heuvel  : Paramagnetic NMR
   Boris Wezisla          : Elementary symmetry handling
   Frank Wennmohs         : Technical directorship


 We gratefully acknowledge several colleagues who have allowed us to
 interface, adapt or use parts of their codes:
   Stefan Grimme, W. Hujo, H. Kruse, P. Pracht,  : VdW corrections, initial TS optimization,
                  C. Bannwarth, S. Ehlert          DFT functionals, gCP, sTDA/sTD-DF
   Ed Valeev, F. Pavosevic, A. Kumar             : LibInt (2-el integral package), F12 methods
   Garnet Chan, S. Sharma, J. Yang, R. Olivares  : DMRG
   Ulf Ekstrom                                   : XCFun DFT Library
   Mihaly Kallay                                 : mrcc  (arbitrary order and MRCC methods)
   Jiri Pittner, Ondrej Demel                    : Mk-CCSD
   Frank Weinhold                                : gennbo (NPA and NBO analysis)
   Christopher J. Cramer and Donald G. Truhlar   : smd solvation model
   Lars Goerigk                                  : TD-DFT with DH, B97 family of functionals
   V. Asgeirsson, H. Jonsson                     : NEB implementation
   FAccTs GmbH                                   : IRC, NEB, NEB-TS, DLPNO-Multilevel, CI-OPT
                                                   MM, QMMM, 2- and 3-layer-ONIOM, Crystal-QMMM,
                                                   LR-CPCM, SF, NACMEs, symmetry and pop. for TD-DFT,
                                                   nearIR, NL-DFT gradient (VV10), updates on ESD,
                                                   ML-optimized integration grids
   S Lehtola, MJT Oliveira, MAL Marques          : LibXC Library
   Liviu Ungur et al                             : ANISO software


 Your calculation uses the libint2 library for the computation of 2-el integrals
 For citations please refer to: http://libint.valeyev.net

 Your ORCA version has been built with support for libXC version: 5.1.0
 For citations please refer to: https://tddft.org/programs/libxc/

 This ORCA versions uses:
   CBLAS   interface :  Fast vector & matrix operations
   LAPACKE interface :  Fast linear algebra routines
   SCALAPACK package :  Parallel linear algebra routines
   Shared memory     :  Shared parallel matrices
   BLAS/LAPACK       :  OpenBLAS 0.3.15  USE64BITINT DYNAMIC_ARCH NO_AFFINITY Sandybridge SINGLE_THREADED
        Core in use  :  Sandybridge
   Copyright (c) 2011-2014, The OpenBLAS Project


================================================================================

----- Orbital basis set information -----
Your calculation utilizes the basis: cc-pVDZ 
       H, B-Ne : Obtained from the ccRepo (grant-hill.group.shef.ac.uk/ccrepo) Feb. 2017
                 T. H. Dunning, Jr., J. Chem. Phys. 90, 1007 (1989)
            He : Obtained from the ccRepo (grant-hill.group.shef.ac.uk/ccrepo) Feb. 2017
                 D. E. Woon, T. H. Dunning, Jr., J. Chem. Phys. 100, 2975 (1994)
  Li-Be, Na-Mg : Obtained from the ccRepo (grant-hill.group.shef.ac.uk/ccrepo) Feb. 2017
                 B. P. Prascher, D. E. Woon, K. A. Peterson, T. H. Dunning, Jr., A. K. Wilson, Theor. Chem. Acc. 128, 69 (2011)
         Al-Ar : Obtained from the ccRepo (grant-hill.group.shef.ac.uk/ccrepo) Feb. 2017
                 D. E. Woon, T. H. Dunning, Jr., J. Chem. Phys. 98, 1358 (1993)
            Ca : Obtained from the Peterson Research Group Website (tyr0.chem.wsu.edu/~kipeters) Feb. 2017
                 J. Koput, K. A. Peterson, J. Phys. Chem. 106, 9595 (2002)
         Sc-Zn : Obtained from the ccRepo (grant-hill.group.shef.ac.uk/ccrepo) Feb. 2017
                 N. B. Balabanov, K. A. Peterson, J. Chem. Phys. 123, 064107 (2005)
                 N. B. Balabanov, K. A. Peterson, J. Chem. Phys. 125, 074110 (2006)
         Ga-Kr : Obtained from the ccRepo (grant-hill.group.shef.ac.uk/ccrepo) Feb. 2017
                 A. K. Wilson, D. E. Woon, K. A. Peterson, T. H. Dunning, Jr., J. Chem. Phys. 110, 7667 (1999)

================================================================================
                                        WARNINGS
                       Please study these warnings very carefully!
================================================================================


WARNING: No MP2 level density has been requested!
         To caclulate MP2 level properties use
         %mp2 Density relaxed end
         or
         %mp2 Density unrelaxed end

WARNING: Post HF methods need fully converged wavefunctions
  ===> : Setting SCFConvForced true
         You can overwrite this default with %scf ConvForced false 


INFO   : the flag for use of the SHARK integral package has been found!

================================================================================
                                       INPUT FILE
================================================================================
NAME = /scratch/allen/tmpyp4_amber_gaff2/2.Mdgx/conf11/conf11/Conf25.orca
|  1> ! PAL2
|  2> ! mp2 cc-pvdz TightSCF  NoKeepInts
|  3> 
|  4> %scf
|  5>   MaxCore 2000
|  6> end
|  7> %mp2
|  8>   MaxCore 2000
|  9> end
| 10> * xyz 0 1
| 11>    C       -3.11100         6.45100        -0.36000
| 12>    C        1.47400         4.04100         0.05700
| 13>    C       -2.80200         4.09300         0.04900
| 14>    C       -4.11800         4.05700         0.53600
| 15>    C       -4.88100         5.20800         0.55600
| 16>    C       -5.23100         7.59000         0.11600
| 17>    C        0.13200         4.30700         0.06100
| 18>    C       -0.56900         3.05600         0.04700
| 19>    C        1.64900         2.61800         0.02300
| 20>    C       -2.31000         5.32600        -0.40600
| 21>    N       -4.37500         6.38300         0.11600
| 22>    N        0.38800         2.06700         0.02500
| 23>    N       -2.01000         0.39500        -0.07500
| 24>    N       -0.38800        -2.07400        -0.02700
| 25>    N        2.01000        -0.40100         0.06500
| 26>    C       -1.96000         2.86100         0.02400
| 27>    C       -2.62300         1.61500        -0.01800
| 28>    C       -5.57300        -4.32900         1.06600
| 29>    C       -4.07300         1.47100         0.05600
| 30>    C       -4.10600        -2.75600        -0.02600
| 31>    C       -4.99500        -2.75700        -1.11100
| 32>    C       -6.13200        -3.54200        -1.07600
| 33>    C       -7.65100        -5.11300         0.04000
| 34>    C       -4.32400         0.14100         0.03700
| 35>    C       -3.02500        -0.52000        -0.04800
| 36>    C       -4.42200        -3.56600         1.07500
| 37>    N       -6.40700        -4.31300         0.00100
| 38>    C       -2.86700        -1.92200        -0.04000
| 39>    C       -1.65000        -2.62400        -0.02700
| 40>    C        3.56800        -6.14200        -1.04000
| 41>    C       -1.47600        -4.04900        -0.03400
| 42>    C        2.80300        -4.09900        -0.00800
| 43>    C        3.65700        -4.38400         1.06900
| 44>    C        4.42700        -5.53000         1.05900
| 45>    C        5.24500        -7.58800         0.01400
| 46>    C       -0.13400        -4.31500        -0.02200
| 47>    C        0.56800        -3.06400        -0.02700
| 48>    C        2.77500        -5.01200        -1.07400
| 49>    N        4.37600        -6.39100         0.01700
| 50>    C        1.95900        -2.86900        -0.00900
| 51>    C        2.62100        -1.62200         0.00900
| 52>    C        5.54300         4.33900        -1.13000
| 53>    C        4.07000        -1.47900        -0.09400
| 54>    C        4.10400         2.75100        -0.02100
| 55>    C        5.02700         2.72900         1.03600
| 56>    C        6.16600         3.50900         0.97800
| 57>    C        7.61900         5.15300        -0.11500
| 58>    C        4.32100        -0.14800        -0.09200
| 59>    C        3.02500         0.51400         0.01500
| 60>    C        4.38700         3.58200        -1.11500
| 61>    C        2.86600         1.91600         0.01300
| 62>    N        6.41300         4.29600        -0.09500
| 63>    H       -2.76900         7.42500        -0.68800
| 64>    H        2.27400         4.76600         0.08100
| 65>    H       -4.55700         3.13300         0.89200
| 66>    H       -5.90200         5.22800         0.91400
| 67>    H       -5.81200         7.61400        -0.80800
| 68>    H       -5.89800         7.54700         0.97700
| 69>    H       -4.59400         8.47100         0.18100
| 70>    H       -0.33200         5.28200         0.06900
| 71>    H       -1.29800         5.42200        -0.78000
| 72>    H        0.18200         1.07200         0.00500
| 73>    H       -0.18300        -1.08000        -0.02100
| 74>    H       -5.86400        -4.96200         1.89500
| 75>    H       -4.79400         2.27200         0.13900
| 76>    H       -4.80000        -2.16000        -1.99400
| 77>    H       -6.84100        -3.58200        -1.89300
| 78>    H       -8.42800        -4.53600         0.54600
| 79>    H       -7.95600        -5.33700        -0.98100
| 80>    H       -7.45600        -6.03700         0.58400
| 81>    H       -5.28700        -0.34400         0.10000
| 82>    H       -3.78000        -3.60100         1.94700
| 83>    H        3.58700        -6.86800        -1.84300
| 84>    H       -2.27600        -4.77400        -0.05000
| 85>    H        3.71400        -3.72400         1.92600
| 86>    H        5.09200        -5.79500         1.87100
| 87>    H        6.20500        -7.32900        -0.43900
| 88>    H        5.39300        -7.91700         1.04200
| 89>    H        4.75900        -8.37300        -0.56400
| 90>    H        0.32900        -5.29000        -0.00800
| 91>    H        2.14600        -4.84200        -1.94000
| 92>    H        5.80800         4.98600        -1.95600
| 93>    H        4.78800        -2.28100        -0.18500
| 94>    H        4.86000         2.11400         1.91200
| 95>    H        6.90100         3.53100         1.77200
| 96>    H        7.38300         6.10900         0.35600
| 97>    H        8.41400         4.65200         0.43500
| 98>    H        7.92100         5.31000        -1.15000
| 99>    H        5.28300         0.33600        -0.17900
|100>    H        3.72000         3.63200        -1.96700
|101> *
|102> 
|103>                          ****END OF INPUT****
================================================================================

                       ****************************
                       * Single Point Calculation *
                       ****************************

---------------------------------
CARTESIAN COORDINATES (ANGSTROEM)
---------------------------------
  C     -3.111000    6.451000   -0.360000
  C      1.474000    4.041000    0.057000
  C     -2.802000    4.093000    0.049000
  C     -4.118000    4.057000    0.536000
  C     -4.881000    5.208000    0.556000
  C     -5.231000    7.590000    0.116000
  C      0.132000    4.307000    0.061000
  C     -0.569000    3.056000    0.047000
  C      1.649000    2.618000    0.023000
  C     -2.310000    5.326000   -0.406000
  N     -4.375000    6.383000    0.116000
  N      0.388000    2.067000    0.025000
  N     -2.010000    0.395000   -0.075000
  N     -0.388000   -2.074000   -0.027000
  N      2.010000   -0.401000    0.065000
  C     -1.960000    2.861000    0.024000
  C     -2.623000    1.615000   -0.018000
  C     -5.573000   -4.329000    1.066000
  C     -4.073000    1.471000    0.056000
  C     -4.106000   -2.756000   -0.026000
  C     -4.995000   -2.757000   -1.111000
  C     -6.132000   -3.542000   -1.076000
  C     -7.651000   -5.113000    0.040000
  C     -4.324000    0.141000    0.037000
  C     -3.025000   -0.520000   -0.048000
  C     -4.422000   -3.566000    1.075000
  N     -6.407000   -4.313000    0.001000
  C     -2.867000   -1.922000   -0.040000
  C     -1.650000   -2.624000   -0.027000
  C      3.568000   -6.142000   -1.040000
  C     -1.476000   -4.049000   -0.034000
  C      2.803000   -4.099000   -0.008000
  C      3.657000   -4.384000    1.069000
  C      4.427000   -5.530000    1.059000
  C      5.245000   -7.588000    0.014000
  C     -0.134000   -4.315000   -0.022000
  C      0.568000   -3.064000   -0.027000
  C      2.775000   -5.012000   -1.074000
  N      4.376000   -6.391000    0.017000
  C      1.959000   -2.869000   -0.009000
  C      2.621000   -1.622000    0.009000
  C      5.543000    4.339000   -1.130000
  C      4.070000   -1.479000   -0.094000
  C      4.104000    2.751000   -0.021000
  C      5.027000    2.729000    1.036000
  C      6.166000    3.509000    0.978000
  C      7.619000    5.153000   -0.115000
  C      4.321000   -0.148000   -0.092000
  C      3.025000    0.514000    0.015000
  C      4.387000    3.582000   -1.115000
  C      2.866000    1.916000    0.013000
  N      6.413000    4.296000   -0.095000
  H     -2.769000    7.425000   -0.688000
  H      2.274000    4.766000    0.081000
  H     -4.557000    3.133000    0.892000
  H     -5.902000    5.228000    0.914000
  H     -5.812000    7.614000   -0.808000
  H     -5.898000    7.547000    0.977000
  H     -4.594000    8.471000    0.181000
  H     -0.332000    5.282000    0.069000
  H     -1.298000    5.422000   -0.780000
  H      0.182000    1.072000    0.005000
  H     -0.183000   -1.080000   -0.021000
  H     -5.864000   -4.962000    1.895000
  H     -4.794000    2.272000    0.139000
  H     -4.800000   -2.160000   -1.994000
  H     -6.841000   -3.582000   -1.893000
  H     -8.428000   -4.536000    0.546000
  H     -7.956000   -5.337000   -0.981000
  H     -7.456000   -6.037000    0.584000
  H     -5.287000   -0.344000    0.100000
  H     -3.780000   -3.601000    1.947000
  H      3.587000   -6.868000   -1.843000
  H     -2.276000   -4.774000   -0.050000
  H      3.714000   -3.724000    1.926000
  H      5.092000   -5.795000    1.871000
  H      6.205000   -7.329000   -0.439000
  H      5.393000   -7.917000    1.042000
  H      4.759000   -8.373000   -0.564000
  H      0.329000   -5.290000   -0.008000
  H      2.146000   -4.842000   -1.940000
  H      5.808000    4.986000   -1.956000
  H      4.788000   -2.281000   -0.185000
  H      4.860000    2.114000    1.912000
  H      6.901000    3.531000    1.772000
  H      7.383000    6.109000    0.356000
  H      8.414000    4.652000    0.435000
  H      7.921000    5.310000   -1.150000
  H      5.283000    0.336000   -0.179000
  H      3.720000    3.632000   -1.967000

----------------------------
CARTESIAN COORDINATES (A.U.)
----------------------------
  NO LB      ZA    FRAG     MASS         X           Y           Z
   0 C     6.0000    0    12.011   -5.878938   12.190623   -0.680301
   1 C     6.0000    0    12.011    2.785456    7.636383    0.107714
   2 C     6.0000    0    12.011   -5.295013    7.734649    0.092597
   3 C     6.0000    0    12.011   -7.781892    7.666619    1.012893
   4 C     6.0000    0    12.011   -9.223753    9.841694    1.050688
   5 C     6.0000    0    12.011   -9.885157   14.343021    0.219208
   6 C     6.0000    0    12.011    0.249444    8.139050    0.115273
   7 C     6.0000    0    12.011   -1.075254    5.775003    0.088817
   8 C     6.0000    0    12.011    3.116158    4.947303    0.043464
   9 C     6.0000    0    12.011   -4.365267   10.064681   -0.767229
  10 N     7.0000    0    14.007   -8.267552   12.062122    0.219208
  11 N     7.0000    0    14.007    0.733214    3.906064    0.047243
  12 N     7.0000    0    14.007   -3.798350    0.746442   -0.141729
  13 N     7.0000    0    14.007   -0.733214   -3.919292   -0.051023
  14 N     7.0000    0    14.007    3.798350   -0.757780    0.122832
  15 C     6.0000    0    12.011   -3.703863    5.406506    0.045353
  16 C     6.0000    0    12.011   -4.956752    3.051908   -0.034015
  17 C     6.0000    0    12.011  -10.531444   -8.180624    2.014448
  18 C     6.0000    0    12.011   -7.696855    2.779787    0.105825
  19 C     6.0000    0    12.011   -7.759216   -5.208085   -0.049133
  20 C     6.0000    0    12.011   -9.439182   -5.209975   -2.099486
  21 C     6.0000    0    12.011  -11.587801   -6.693410   -2.033345
  22 C     6.0000    0    12.011  -14.458295   -9.662170    0.075589
  23 C     6.0000    0    12.011   -8.171176    0.266451    0.069920
  24 C     6.0000    0    12.011   -5.716422   -0.982658   -0.090707
  25 C     6.0000    0    12.011   -8.356369   -6.738763    2.031456
  26 N     7.0000    0    14.007  -12.107475   -8.150389    0.001890
  27 C     6.0000    0    12.011   -5.417845   -3.632054   -0.075589
  28 C     6.0000    0    12.011   -3.118048   -4.958641   -0.051023
  29 C     6.0000    0    12.011    6.742543  -11.606698   -1.965315
  30 C     6.0000    0    12.011   -2.789236   -7.651501   -0.064251
  31 C     6.0000    0    12.011    5.296902   -7.745987   -0.015118
  32 C     6.0000    0    12.011    6.910728   -8.284559    2.020117
  33 C     6.0000    0    12.011    8.365818  -10.450186    2.001220
  34 C     6.0000    0    12.011    9.911614  -14.339242    0.026456
  35 C     6.0000    0    12.011   -0.253223   -8.154168   -0.041574
  36 C     6.0000    0    12.011    1.073364   -5.790121   -0.051023
  37 C     6.0000    0    12.011    5.243990   -9.471307   -2.029566
  38 N     7.0000    0    14.007    8.269442  -12.077240    0.032125
  39 C     6.0000    0    12.011    3.701973   -5.421624   -0.017008
  40 C     6.0000    0    12.011    4.952972   -3.065136    0.017008
  41 C     6.0000    0    12.011   10.474752    8.199522   -2.135391
  42 C     6.0000    0    12.011    7.691185   -2.794905   -0.177634
  43 C     6.0000    0    12.011    7.755436    5.198637   -0.039684
  44 C     6.0000    0    12.011    9.499653    5.157063    1.957756
  45 C     6.0000    0    12.011   11.652051    6.631049    1.848152
  46 C     6.0000    0    12.011   14.397823    9.737759   -0.217319
  47 C     6.0000    0    12.011    8.165507   -0.279679   -0.173855
  48 C     6.0000    0    12.011    5.716422    0.971319    0.028346
  49 C     6.0000    0    12.011    8.290229    6.768999   -2.107045
  50 C     6.0000    0    12.011    5.415955    3.620715    0.024566
  51 N     7.0000    0    14.007   12.118814    8.118263   -0.179524
  52 H     1.0000    0     1.008   -5.232652   14.031217   -1.300132
  53 H     1.0000    0     1.008    4.297237    9.006435    0.153068
  54 H     1.0000    0     1.008   -8.611482    5.920512    1.685636
  55 H     1.0000    0     1.008  -11.153164    9.879488    1.727210
  56 H     1.0000    0     1.008  -10.983088   14.388375   -1.526899
  57 H     1.0000    0     1.008  -11.145605   14.261763    1.846262
  58 H     1.0000    0     1.008   -8.681402   16.007870    0.342040
  59 H     1.0000    0     1.008   -0.627389    9.981533    0.130391
  60 H     1.0000    0     1.008   -2.452865   10.246095   -1.473986
  61 H     1.0000    0     1.008    0.343930    2.025786    0.009449
  62 H     1.0000    0     1.008   -0.345820   -2.040904   -0.039684
  63 H     1.0000    0     1.008  -11.081354   -9.376821    3.581031
  64 H     1.0000    0     1.008   -9.059347    4.293458    0.262672
  65 H     1.0000    0     1.008   -9.070685   -4.081808   -3.768114
  66 H     1.0000    0     1.008  -12.927616   -6.768999   -3.577252
  67 H     1.0000    0     1.008  -15.926612   -8.571798    1.031790
  68 H     1.0000    0     1.008  -15.034661  -10.085468   -1.853821
  69 H     1.0000    0     1.008  -14.089798  -11.408277    1.103600
  70 H     1.0000    0     1.008   -9.990982   -0.650066    0.188973
  71 H     1.0000    0     1.008   -7.143165   -6.804904    3.679297
  72 H     1.0000    0     1.008    6.778448  -12.978639   -3.482765
  73 H     1.0000    0     1.008   -4.301017   -9.021553   -0.094486
  74 H     1.0000    0     1.008    7.018443   -7.037340    3.639613
  75 H     1.0000    0     1.008    9.622485  -10.950963    3.535678
  76 H     1.0000    0     1.008   11.725751  -13.849803   -0.829590
  77 H     1.0000    0     1.008   10.191293  -14.960962    1.969095
  78 H     1.0000    0     1.008    8.993207  -15.822677   -1.065806
  79 H     1.0000    0     1.008    0.621720   -9.996651   -0.015118
  80 H     1.0000    0     1.008    4.055352   -9.150054   -3.666069
  81 H     1.0000    0     1.008   10.975529    9.422175   -3.696304
  82 H     1.0000    0     1.008    9.048009   -4.310465   -0.349599
  83 H     1.0000    0     1.008    9.184069    3.994881    3.613156
  84 H     1.0000    0     1.008   13.041000    6.672623    3.348595
  85 H     1.0000    0     1.008   13.951848   11.544337    0.672743
  86 H     1.0000    0     1.008   15.900156    8.791006    0.822031
  87 H     1.0000    0     1.008   14.968521   10.034446   -2.173185
  88 H     1.0000    0     1.008    9.983423    0.634948   -0.338261
  89 H     1.0000    0     1.008    7.029781    6.863485   -3.717091

--------------------------------
INTERNAL COORDINATES (ANGSTROEM)
--------------------------------
 C      0   0   0     0.000000000000     0.00000000     0.00000000
 C      1   0   0     5.196557899225     0.00000000     0.00000000
 C      1   2   0     2.413073973172    54.56580920     0.00000000
 C      3   1   2     1.403681231619    87.92617001   160.27807344
 C      4   3   1     1.381075667731   120.10643303     0.14087638
 C      5   4   3     2.447452553166   152.56362968     1.59343114
 C      2   1   3     1.368114030335    17.17474567   353.02010774
 C      7   2   1     1.434084376876   108.05010202   163.02436312
 C      2   1   3     1.434123425651   124.46718256    13.53363352
 C      1   2   3     1.381789419557    27.57889415   338.21376937
 N      1   2   3     1.352366814145   140.63295823    32.19839269
 N      9   2   1     1.376127174356   106.58526707   352.98333617
 N     12   9   2     2.925062050624   168.53581413   171.12065651
 N     13  12   9     2.954513327098    91.55032014    11.12112580
 N     14  13  12     2.925371258490    88.43092389   359.84326247
 C      8   7   2     1.404790019896   127.24786865   181.11170171
 C     13  12   9     1.366535034311    81.72106996   188.00453233
 C     14  13  12     5.758810554272    80.56209567   166.76250791
 C     17  13  12     1.459010623676   111.08861209   183.82872609
 C     18  14  13     2.412235892279    27.27532823    36.33507194
 C     20  18  14     1.402692767501    87.95206320   148.94598259
 C     21  20  18     1.382106725257   120.14573887   359.70382047
 C     18  14  13     2.446510985056   144.15733107    82.80075377
 C     19  17  13     1.353610726908   106.29293361   359.75308708
 C     13  12   9     1.366813447402   172.21332906    33.46711076
 C     18  14  13     1.380960173213    15.08449437   309.23336894
 N     22  21  20     1.352773077792   120.73759875     0.27865223
 C     25  13  17     1.410897586645   125.60330303   182.37774668
 C     14  13  12     1.376642291955    80.24689249   177.85461986
 C     14  13  12     5.764089607215   164.51507311   312.20821879
 C     29  14  13     1.435600919476   106.58649366   178.76395472
 C     30  14  13     2.413316804732    27.10625047    82.12560436
 C     32  30  14     1.403734305344    87.90059683   149.76154742
 C     33  32  30     1.380694028378   120.14881443   359.74174632
 C     34  33  32     2.448777858443   152.49203239     2.45173620
 C     31  29  14     1.368160809262   108.16950133     0.70383075
 C     14  13  12     1.376239804685   169.26375223   353.09862627
 C     30  14  13     1.380907310430    14.68948582   353.70041132
 N     34  33  32     1.352658863128   120.85575621     0.19603406
 C     37  14  29     1.404717053360   126.01551127   180.90772073
 C     15  14  13     1.366491126938    81.61824056   183.09049352
 C      2   1   3     4.249062720177   142.18386367   154.59601966
 C     41  15  14     1.459677704153   111.05201287   175.08990246
 C     42   2   1     2.412953791518    41.78584867   187.61417558
 C     44  42   2     1.403446472082    87.95153797   233.97558675
 C     45  44  42     1.381696421071   120.11137308     0.19721020
 C     42   2   1     2.450019795838   135.97209175    97.92902468
 C     43  41  15     1.354461516618   106.26758155     0.30894352
 C     15  14  13     1.367461151185   171.87382904   332.35056460
 C     42   2   1     1.381886391857    32.59078432   236.46945477
 C      9   2   1     1.404988612053   126.98745415   173.98767370
 N     42   2   1     1.352765315936   113.57249190   125.66561388
 H      1   2   3     1.083154651931    99.36633564   188.42630435
 H      2   1   3     1.079907866440   110.12399899   188.37910763
 H      4   3   1     1.083158806455   121.05677968   179.53719717
 H      5   4   3     1.082129844335   122.78259480   179.47289731
 H      6   5   4     1.091747681472   104.45709067   100.13330620
 H      6   5   4     1.089981192498    84.66977786   209.55319741
 H      6   5   4     1.089107432717   133.86130776   322.36294036
 H      7   2   1     1.079807853278   126.66122480   343.26277691
 H     10   1   2     1.083160191292   118.74652659   324.20710207
 H     12   9   2     1.016297692608   125.29023241   180.00180175
 H     14  13  12     1.014936943854    44.97226959   359.42596618
 H     18  14  13     1.082871645210   128.03556573   234.20482432
 H     19  17  13     1.080893611786   126.41830519   178.11313280
 H     21  20  18     1.083569563987   121.05669627   180.67006309
 H     22  21  20     1.082483256222   122.73097286   180.59748951
 H     23  18  14     1.092105306278   103.92715769   234.93429879
 H     23  18  14     1.088871893291   134.19244188    12.25587044
 H     23  18  14     1.089833473518    84.85857450   125.45241208
 H     24  19  17     1.080075460327   127.28078426   178.44613241
 H     26  18  14     1.083408048706   118.76995697   244.94906660
 H     30  14  13     1.082703098730   127.99711412   279.66882698
 H     31  29  14     1.079759695488   125.22293469   180.92530585
 H     33  32  30     1.083188810873   121.01964473   180.74284758
 H     34  33  32     1.082494341787   122.70821597   180.59516895
 H     35  34  33     1.092652735319   105.73575241    97.19771933
 H     35  34  33     1.089462711615    84.05943581   206.43036958
 H     35  34  33     1.089268102902   133.08365142   318.50306270
 H     36  31  29     1.079439669458   126.61599965   178.98859863
 H     38  30  73     1.083742127999   118.77264435   359.90091293
 H     42   2   1     1.082178358682   119.31790784   342.29714433
 H     43  41  15     1.080281907652   126.36969097   182.06329380
 H     45  44  42     1.083277434455   121.10105945   179.58025624
 H     46  45  44     1.082194529648   122.72144639   179.46906377
 H     47  42   2     1.091546151109   106.65128841   315.16475048
 H     47  42   2     1.088818625851   132.46019523    94.52397119
 H     47  42   2     1.089531091801    83.63838232   206.04504406
 H     48  43  41     1.080402239909   127.23657387   181.62955349
 H     50  42   2     1.083186502870   118.77001737    94.71359229

---------------------------
INTERNAL COORDINATES (A.U.)
---------------------------
 C      0   0   0     0.000000000000     0.00000000     0.00000000
 C      1   0   0     9.820071268601     0.00000000     0.00000000
 C      1   2   0     4.560048950188    54.56580920     0.00000000
 C      3   1   2     2.652573107086    87.92617001   160.27807344
 C      4   3   1     2.609854782235   120.10643303     0.14087638
 C      5   4   3     4.625015051251   152.56362968     1.59343114
 C      2   1   3     2.585360837309    17.17474567   353.02010774
 C      7   2   1     2.710026725231   108.05010202   163.02436312
 C      2   1   3     2.710100516721   124.46718256    13.53363352
 C      1   2   3     2.611203577713    27.57889415   338.21376937
 N      1   2   3     2.555602911337   140.63295823    32.19839269
 N      9   2   1     2.600503484979   106.58526707   352.98333617
 N     12   9   2     5.527566200405   168.53581413   171.12065651
 N     13  12   9     5.583221047236    91.55032014    11.12112580
 N     14  13  12     5.528150518591    88.43092389   359.84326247
 C      8   7   2     2.654668413270   127.24786865   181.11170171
 C     13  12   9     2.582376967257    81.72106996   188.00453233
 C     14  13  12    10.882574804710    80.56209567   166.76250791
 C     17  13  12     2.757130505230   111.08861209   183.82872609
 C     18  14  13     4.558465206823    27.27532823    36.33507194
 C     20  18  14     2.650705180609    87.95206320   148.94598259
 C     21  20  18     2.611803198586   120.14573887   359.70382047
 C     18  14  13     4.623235745386   144.15733107    82.80075377
 C     19  17  13     2.557953565794   106.29293361   359.75308708
 C     13  12   9     2.582903091751   172.21332906    33.46711076
 C     18  14  13     2.609636529225    15.08449437   309.23336894
 N     22  21  20     2.556370638369   120.73759875     0.27865223
 C     25  13  17     2.666210041769   125.60330303   182.37774668
 C     14  13  12     2.601476916169    80.24689249   177.85461986
 C     14  13  12    10.892550769017   164.51507311   312.20821879
 C     29  14  13     2.712892575415   106.58649366   178.76395472
 C     30  14  13     4.560507835333    27.10625047    82.12560436
 C     32  30  14     2.652673401891    87.90059683   149.76154742
 C     33  32  30     2.609133588376   120.14881443   359.74174632
 C     34  33  32     4.627519515267   152.49203239     2.45173620
 C     31  29  14     2.585449236669   108.16950133     0.70383075
 C     14  13  12     2.600716325456   169.26375223   353.09862627
 C     30  14  13     2.609536633043    14.68948582   353.70041132
 N     34  33  32     2.556154803934   120.85575621     0.19603406
 C     37  14  29     2.654530526499   126.01551127   180.90772073
 C     15  14  13     2.582293994346    81.61824056   183.09049352
 C      2   1   3     8.029564866989   142.18386367   154.59601966
 C     41  15  14     2.758391104639   111.05201287   175.08990246
 C     42   2   1     4.559821839776    41.78584867   187.61417558
 C     44  42   2     2.652129475853    87.95153797   233.97558675
 C     45  44  42     2.611027836043   120.11137308     0.19721020
 C     42   2   1     4.629866436820   135.97209175    97.92902468
 C     43  41  15     2.559561325344   106.26758155     0.30894352
 C     15  14  13     2.584127074516   171.87382904   332.35056460
 C     42   2   1     2.611386828803    32.59078432   236.46945477
 C      9   2   1     2.655043698059   126.98745415   173.98767370
 N     42   2   1     2.556355970587   113.57249190   125.66561388
 H      1   2   3     2.046865652833    99.36633564   188.42630435
 H      2   1   3     2.040730117440   110.12399899   188.37910763
 H      4   3   1     2.046873503744   121.05677968   179.53719717
 H      5   4   3     2.044929047136   122.78259480   179.47289731
 H      6   5   4     2.063104125326   104.45709067   100.13330620
 H      6   5   4     2.059765944947    84.66977786   209.55319741
 H      6   5   4     2.058114778254   133.86130776   322.36294036
 H      7   2   1     2.040541119952   126.66122480   343.26277691
 H     10   1   2     2.046876120708   118.74652659   324.20710207
 H     12   9   2     1.920524309565   125.29023241   180.00180175
 H     14  13  12     1.917952867083    44.97226959   359.42596618
 H     18  14  13     2.046330847636   128.03556573   234.20482432
 H     19  17  13     2.042592906181   126.41830519   178.11313280
 H     21  20  18     2.047649722989   121.05669627   180.67006309
 H     22  21  20     2.045596898814   122.73097286   180.59748951
 H     23  18  14     2.063779938267   103.92715769   234.93429879
 H     23  18  14     2.057669673245   134.19244188    12.25587044
 H     23  18  14     2.059486796529    84.85857450   125.45241208
 H     24  19  17     2.041046823986   127.28078426   178.44613241
 H     26  18  14     2.047344503340   118.76995697   244.94906660
 H     30  14  13     2.046012340948   127.99711412   279.66882698
 H     31  29  14     2.040450114918   125.22293469   180.92530585
 H     33  32  30     2.046930203877   121.01964473   180.74284758
 H     34  33  32     2.045617847496   122.70821597   180.59516895
 H     35  34  33     2.064814429233   105.73575241    97.19771933
 H     35  34  33     2.058786158072    84.05943581   206.43036958
 H     35  34  33     2.058418400901   133.08365142   318.50306270
 H     36  31  29     2.039845353366   126.61599965   178.98859863
 H     38  30  73     2.047975821711   118.77264435   359.90091293
 H     42   2   1     2.045020725966   119.31790784   342.29714433
 H     43  41  15     2.041436952892   126.36969097   182.06329380
 H     45  44  42     2.047097678177   121.10105945   179.58025624
 H     46  45  44     2.045051284662   122.72144639   179.46906377
 H     47  42   2     2.062723288131   106.65128841   315.16475048
 H     47  42   2     2.057569012371   132.46019523    94.52397119
 H     47  42   2     2.058915377895    83.63838232   206.04504406
 H     48  43  41     2.041664347903   127.23657387   181.62955349
 H     50  42   2     2.046925842384   118.77001737    94.71359229

---------------------
BASIS SET INFORMATION
---------------------
There are 3 groups of distinct atoms

 Group   1 Type C   : 17s4p1d contracted to 3s2p1d pattern {881/31/1}
 Group   2 Type N   : 17s4p1d contracted to 3s2p1d pattern {881/31/1}
 Group   3 Type H   : 4s1p contracted to 2s1p pattern {31/1}

Atom   0C    basis set group =>   1
Atom   1N    basis set group =>   2
Atom   2C    basis set group =>   1
Atom   3N    basis set group =>   2
Atom   4C    basis set group =>   1
Atom   5N    basis set group =>   2
Atom   6C    basis set group =>   1
Atom   7N    basis set group =>   2
Atom   8C    basis set group =>   1
Atom   9N    basis set group =>   2
Atom  10C    basis set group =>   1
Atom  11N    basis set group =>   2
Atom  12C    basis set group =>   1
Atom  13N    basis set group =>   2
Atom  14C    basis set group =>   1
Atom  15N    basis set group =>   2
Atom  16C    basis set group =>   1
Atom  17C    basis set group =>   1
Atom  18C    basis set group =>   1
Atom  19C    basis set group =>   1
Atom  20C    basis set group =>   1
Atom  21C    basis set group =>   1
Atom  22C    basis set group =>   1
Atom  23C    basis set group =>   1
Atom  24C    basis set group =>   1
Atom  25C    basis set group =>   1
Atom  26C    basis set group =>   1
Atom  27C    basis set group =>   1
Atom  28C    basis set group =>   1
Atom  29C    basis set group =>   1
Atom  30C    basis set group =>   1
Atom  31C    basis set group =>   1
Atom  32C    basis set group =>   1
Atom  33C    basis set group =>   1
Atom  34C    basis set group =>   1
Atom  35C    basis set group =>   1
Atom  36C    basis set group =>   1
Atom  37C    basis set group =>   1
Atom  38C    basis set group =>   1
Atom  39C    basis set group =>   1
Atom  40C    basis set group =>   1
Atom  41C    basis set group =>   1
Atom  42C    basis set group =>   1
Atom  43C    basis set group =>   1
Atom  44C    basis set group =>   1
Atom  45C    basis set group =>   1
Atom  46C    basis set group =>   1
Atom  47C    basis set group =>   1
Atom  48C    basis set group =>   1
Atom  49C    basis set group =>   1
Atom  50C    basis set group =>   1
Atom  51C    basis set group =>   1
Atom  52H    basis set group =>   3
Atom  53H    basis set group =>   3
Atom  54H    basis set group =>   3
Atom  55H    basis set group =>   3
Atom  56H    basis set group =>   3
Atom  57H    basis set group =>   3
Atom  58H    basis set group =>   3
Atom  59H    basis set group =>   3
Atom  60H    basis set group =>   3
Atom  61H    basis set group =>   3
Atom  62H    basis set group =>   3
Atom  63H    basis set group =>   3
Atom  64H    basis set group =>   3
Atom  65H    basis set group =>   3
Atom  66H    basis set group =>   3
Atom  67H    basis set group =>   3
Atom  68H    basis set group =>   3
Atom  69H    basis set group =>   3
Atom  70H    basis set group =>   3
Atom  71H    basis set group =>   3
Atom  72H    basis set group =>   3
Atom  73H    basis set group =>   3
Atom  74H    basis set group =>   3
Atom  75H    basis set group =>   3
Atom  76H    basis set group =>   3
Atom  77H    basis set group =>   3
Atom  78H    basis set group =>   3
Atom  79H    basis set group =>   3
Atom  80H    basis set group =>   3
Atom  81H    basis set group =>   3
Atom  82H    basis set group =>   3
Atom  83H    basis set group =>   3
Atom  84H    basis set group =>   3
Atom  85H    basis set group =>   3
Atom  86H    basis set group =>   3
Atom  87H    basis set group =>   3
Atom  88H    basis set group =>   3
Atom  89H    basis set group =>   3


           ************************************************************
           *        Program running with 16 parallel MPI-processes    *
           *              working on a common directory               *
           ************************************************************
------------------------------------------------------------------------------
                           ORCA GTO INTEGRAL CALCULATION
------------------------------------------------------------------------------
------------------------------------------------------------------------------
                   ___                                                        
                  /   \      - P O W E R E D   B Y -                         
                 /     \                                                     
                 |  |  |   _    _      __       _____    __    __             
                 |  |  |  | |  | |    /  \     |  _  \  |  |  /  |          
                  \  \/   | |  | |   /    \    | | | |  |  | /  /          
                 / \  \   | |__| |  /  /\  \   | |_| |  |  |/  /          
                |  |  |   |  __  | /  /__\  \  |    /   |      \           
                |  |  |   | |  | | |   __   |  |    \   |  |\   \          
                \     /   | |  | | |  |  |  |  | |\  \  |  | \   \       
                 \___/    |_|  |_| |__|  |__|  |_| \__\ |__|  \__/        
                                                                              
                      - O R C A' S   B I G   F R I E N D -                    
                                      &                                       
                       - I N T E G R A L  F E E D E R -                       
                                                                              
 v1 FN, 2020, v2 2021                                                         
------------------------------------------------------------------------------


Reading SHARK input file /scratch/allen/tmpyp4_amber_gaff2/conf1/conf1/Conf25.orca.SHARKINP.tmp ... ok
----------------------
SHARK INTEGRAL PACKAGE
----------------------

Number of atoms                             ...     90
Number of basis functions                   ...   1230
Number of shells                            ...    738
Maximum angular momentum                    ...      2
Integral batch strategy                     ... SHARK/LIBINT Hybrid
RI-J (if used) integral strategy            ... SPLIT-RIJ (Revised 2003 algorithm where possible)
Printlevel                                  ...      1
Contraction scheme used                     ... PARTIAL GENERAL contraction
Coulomb Range Separation                    ... NOT USED
Exchange Range Separation                   ... NOT USED
Finite Nucleus Model                        ... NOT USED
Auxiliary Coulomb fitting basis             ... NOT available
Auxiliary J/K fitting basis                 ... NOT available
Auxiliary Correlation fitting basis         ... NOT available
Auxiliary 'external' fitting basis          ... NOT available
Integral threshold                          ...     2.500000e-11
Primitive cut-off                           ...     2.500000e-12
Primitive pair pre-selection threshold      ...     2.500000e-12

Calculating pre-screening integrals         ... done (  0.1 sec) Dimension = 738
Calculating pre-screening integrals (ORCA)  ... done (  0.3 sec) Dimension = 426
Organizing shell pair data                  ... done (  0.8 sec)
Shell pair information
Total number of shell pairs                 ...    272691
Shell pairs after pre-screening             ...     71698
Total number of primitive shell pairs       ...    422091
Primitive shell pairs kept                  ...     92573
          la=0 lb=0:  29434 shell pairs
          la=1 lb=0:  26017 shell pairs
          la=1 lb=1:   4703 shell pairs
          la=2 lb=0:   7891 shell pairs
          la=2 lb=1:   3124 shell pairs
          la=2 lb=2:    529 shell pairs

Calculating one electron integrals          ... done (  0.3 sec)
Calculating Nuclear repulsion               ... done (  0.0 sec) ENN=   6233.042658294361 Eh

SHARK setup successfully completed in   2.2 seconds

Maximum memory used throughout the entire GTOINT-calculation: 99.1 MB


           ************************************************************
           *        Program running with 16 parallel MPI-processes    *
           *              working on a common directory               *
           ************************************************************
-------------------------------------------------------------------------------
                                 ORCA SCF
-------------------------------------------------------------------------------

------------
SCF SETTINGS
------------
Hamiltonian:
 Ab initio Hamiltonian  Method          .... Hartree-Fock(GTOs)


General Settings:
 Integral files         IntName         .... /scratch/allen/tmpyp4_amber_gaff2/conf1/conf1/Conf25.orca
 Hartree-Fock type      HFTyp           .... RHF
 Total Charge           Charge          ....    0
 Multiplicity           Mult            ....    1
 Number of Electrons    NEL             ....  358
 Basis Dimension        Dim             ....  918
 Nuclear Repulsion      ENuc            ....   6233.0426582944 Eh

Convergence Acceleration:
 DIIS                   CNVDIIS         .... on
   Start iteration      DIISMaxIt       ....    12
   Startup error        DIISStart       ....  0.200000
   # of expansion vecs  DIISMaxEq       ....     5
   Bias factor          DIISBfac        ....   1.050
   Max. coefficient     DIISMaxC        ....  10.000
 Trust-Rad. Augm. Hess. CNVTRAH         .... auto
   Auto Start mean grad. ratio tolernc. ....  1.125000
   Auto Start start iteration           ....    20
   Auto Start num. interpolation iter.  ....    10
   Max. Number of Micro iterations      ....    16
   Max. Number of Macro iterations      .... Maxiter - #DIIS iter
   Number of Davidson start vectors     ....     2
   Converg. threshold I  (grad. norm)   ....   1.000e-05
   Converg. threshold II (energy diff.) ....   1.000e-08
   Grad. Scal. Fac. for Micro threshold ....   0.100
   Minimum threshold for Micro iter.    ....   0.010
   NR start threshold (gradient norm)   ....   0.001
   Initial trust radius                 ....   0.400
   Minimum AH scaling param. (alpha)    ....   1.000
   Maximum AH scaling param. (alpha)    .... 1000.000
   Orbital update algorithm             .... Taylor
   White noise on init. David. guess    .... on
   Maximum white noise                  ....   0.010
   Quad. conv. algorithm                .... NR
 SOSCF                  CNVSOSCF        .... on
   Start iteration      SOSCFMaxIt      ....   150
   Startup grad/error   SOSCFStart      ....  0.003300
 Level Shifting         CNVShift        .... on
   Level shift para.    LevelShift      ....    0.2500
   Turn off err/grad.   ShiftErr        ....    0.0010
 Zerner damping         CNVZerner       .... off
 Static damping         CNVDamp         .... on
   Fraction old density DampFac         ....    0.7000
   Max. Damping (<1)    DampMax         ....    0.9800
   Min. Damping (>=0)   DampMin         ....    0.0000
   Turn off err/grad.   DampErr         ....    0.1000
 Fernandez-Rico         CNVRico         .... off

SCF Procedure:
 Maximum # iterations   MaxIter         ....   125
 SCF integral mode      SCFMode         .... Direct
   Integral package                     .... SHARK and LIBINT hybrid scheme
 Reset frequency        DirectResetFreq ....    20
 Integral Threshold     Thresh          ....  2.500e-11 Eh
 Primitive CutOff       TCut            ....  2.500e-12 Eh

Convergence Tolerance:
 Convergence Check Mode ConvCheckMode   .... Total+1el-Energy
 Convergence forced     ConvForced      .... 1
 Energy Change          TolE            ....  1.000e-08 Eh
 1-El. energy change                    ....  1.000e-05 Eh
 Orbital Gradient       TolG            ....  1.000e-05
 Orbital Rotation angle TolX            ....  1.000e-05
 DIIS Error             TolErr          ....  5.000e-07


Diagonalization of the overlap matrix:
Smallest eigenvalue                        ... 2.113e-04
Time for diagonalization                   ...    0.362 sec
Threshold for overlap eigenvalues          ... 1.000e-08
Number of eigenvalues below threshold      ... 0
Time for construction of square roots      ...    0.247 sec
Total time needed                          ...    0.615 sec

Time for model grid setup =    1.048 sec

------------------------------
INITIAL GUESS: MODEL POTENTIAL
------------------------------
Loading Hartree-Fock densities                     ... done
Calculating cut-offs                               ... done
Initializing the effective Hamiltonian             ... done
Setting up the integral package (SHARK)            ... done
Starting the Coulomb interaction                   ... done (   1.2 sec)
Reading the grid                                   ... done
Mapping shells                                     ... done
Starting the XC term evaluation                    ... done (   0.2 sec)
Transforming the Hamiltonian                       ... done (   0.2 sec)
Diagonalizing the Hamiltonian                      ... done (   0.3 sec)
Back transforming the eigenvectors                 ... done (   0.1 sec)
Now organizing SCF variables                       ... done
                      ------------------
                      INITIAL GUESS DONE (   3.1 sec)
                      ------------------
--------------
SCF ITERATIONS
--------------
ITER       Energy         Delta-E        Max-DP      RMS-DP      [F,P]     Damp
               ***  Starting incremental Fock matrix formation  ***
  0  -2121.6586370017   0.000000000000 0.07486764  0.00123555  0.2316989 0.7000
  1  -2122.3078323404  -0.649195338667 0.05669548  0.00100646  0.1436462 0.7000
                               ***Turning on DIIS***
  2  -2122.7120138139  -0.404181473532 0.13246490  0.00228251  0.0802637 0.0000
  3  -2117.9804145426   4.731599271319 0.05171386  0.00068562  0.0436738 0.0000
  4  -2123.3952703971  -5.414855854498 0.01517337  0.00022767  0.0087921 0.0000
  5  -2123.5428374316  -0.147567034570 0.00718251  0.00013296  0.0049055 0.0000
  6  -2123.5271414164   0.015696015238 0.00421844  0.00008532  0.0021250 0.0000
  7  -2123.6220773400  -0.094935923571 0.00306675  0.00006732  0.0015918 0.0000
  8  -2123.6311767112  -0.009099371211 0.00326421  0.00006407  0.0014879 0.0000
  9  -2123.6025038357   0.028672875509 0.00261087  0.00004520  0.0011936 0.0000
 10  -2123.6111092451  -0.008605409441 0.00523371  0.00009438  0.0009285 0.0000
                      *** Initiating the SOSCF procedure ***
                           *** Shutting down DIIS ***
                      *** Re-Reading the Fockian *** 
                      *** Removing any level shift *** 
ITER      Energy       Delta-E        Grad      Rot      Max-DP    RMS-DP
 11  -2123.50335632   0.1077529261  0.000181  0.000181  0.000240  0.000005
               *** Restarting incremental Fock matrix formation ***
 12  -2123.56959261  -0.0662362947  0.000888  0.006178  0.001412  0.000035
 13  -2123.56970095  -0.0001083388  0.001105  0.030712  0.006465  0.000136
 14  -2123.56988559  -0.0001846340  0.000358  0.001513  0.000644  0.000012
 15  -2123.56990112  -0.0000155290  0.000184  0.002588  0.000631  0.000016
 16  -2123.56990959  -0.0000084793  0.000148  0.002513  0.000448  0.000010
 17  -2123.56991250  -0.0000029036  0.000139  0.001880  0.000320  0.000007
 18  -2123.56991404  -0.0000015377  0.000067  0.001054  0.000265  0.000004
 19  -2123.56991484  -0.0000008046  0.000045  0.001188  0.000217  0.000004
 20  -2123.56991523  -0.0000003886  0.000027  0.000813  0.000126  0.000003
 21  -2123.56991544  -0.0000002102  0.000025  0.001002  0.000157  0.000003
 22  -2123.56991563  -0.0000001889  0.000022  0.000871  0.000140  0.000003
 23  -2123.56991574  -0.0000001138  0.000015  0.000491  0.000080  0.000002
 24  -2123.56991580  -0.0000000557  0.000009  0.000354  0.000055  0.000001
 25  -2123.56991583  -0.0000000355  0.000009  0.000166  0.000041  0.000001
 26  -2123.56991585  -0.0000000163  0.000006  0.000119  0.000033  0.000001
 27  -2123.56991585  -0.0000000046  0.000003  0.000088  0.000023  0.000000
                  ***Gradient check signals convergence***
              ***Rediagonalizing the Fockian in SOSCF/NRSCF***

               *****************************************************
               *                     SUCCESS                       *
               *           SCF CONVERGED AFTER  28 CYCLES          *
               *****************************************************


----------------
TOTAL SCF ENERGY
----------------

Total Energy       :        -2123.56991585 Eh          -57785.27516 eV

Components:
Nuclear Repulsion  :         6233.04265829 Eh          169609.71352 eV
Electronic Energy  :        -8356.61257415 Eh         -227394.98868 eV
One Electron Energy:       -15306.75407783 Eh         -416517.95382 eV
Two Electron Energy:         6950.14150368 Eh          189122.96514 eV

Virial components:
Potential Energy   :        -4245.89516425 Eh         -115536.68119 eV
Kinetic Energy     :         2122.32524840 Eh           57751.40603 eV
Virial Ratio       :            2.00058646


---------------
SCF CONVERGENCE
---------------

  Last Energy change         ...    1.8517e-09  Tolerance :   1.0000e-08
  Last MAX-Density change    ...    1.1095e-05  Tolerance :   1.0000e-07
  Last RMS-Density change    ...    2.2334e-07  Tolerance :   5.0000e-09
  Last Orbital Gradient      ...    2.2032e-06  Tolerance :   1.0000e-05
  Last Orbital Rotation      ...    5.2861e-05  Tolerance :   1.0000e-05

             **** THE GBW FILE WAS UPDATED (/scratch/allen/tmpyp4_amber_gaff2/conf1/conf1/Conf25.orca.gbw) ****
             **** DENSITY /scratch/allen/tmpyp4_amber_gaff2/conf1/conf1/Conf25.orca.scfp WAS UPDATED ****
             **** ENERGY FILE WAS UPDATED (/scratch/allen/tmpyp4_amber_gaff2/conf1/conf1/Conf25.orca.en.tmp) ****
             **** THE GBW FILE WAS UPDATED (/scratch/allen/tmpyp4_amber_gaff2/conf1/conf1/Conf25.orca.gbw) ****
             **** DENSITY /scratch/allen/tmpyp4_amber_gaff2/conf1/conf1/Conf25.orca.scfp WAS UPDATED ****
----------------
ORBITAL ENERGIES
----------------

  NO   OCC          E(Eh)            E(eV) 
   0   2.0000     -15.676615      -426.5824 
   1   2.0000     -15.633634      -425.4128 
   2   2.0000     -15.631840      -425.3640 
   3   2.0000     -15.589833      -424.2209 
   4   2.0000     -15.524778      -422.4507 
   5   2.0000     -15.515983      -422.2114 
   6   2.0000     -15.453350      -420.5070 
   7   2.0000     -15.440419      -420.1551 
   8   2.0000     -11.326799      -308.2179 
   9   2.0000     -11.325975      -308.1954 
  10   2.0000     -11.325690      -308.1877 
  11   2.0000     -11.299115      -307.4645 
  12   2.0000     -11.298356      -307.4439 
  13   2.0000     -11.292568      -307.2864 
  14   2.0000     -11.291020      -307.2443 
  15   2.0000     -11.286737      -307.1277 
  16   2.0000     -11.286424      -307.1192 
  17   2.0000     -11.279074      -306.9192 
  18   2.0000     -11.271747      -306.7198 
  19   2.0000     -11.261168      -306.4320 
  20   2.0000     -11.260187      -306.4053 
  21   2.0000     -11.254714      -306.2563 
  22   2.0000     -11.251973      -306.1817 
  23   2.0000     -11.237366      -305.7843 
  24   2.0000     -11.236599      -305.7634 
  25   2.0000     -11.230924      -305.6090 
  26   2.0000     -11.230118      -305.5870 
  27   2.0000     -11.229765      -305.5774 
  28   2.0000     -11.229647      -305.5742 
  29   2.0000     -11.210201      -305.0451 
  30   2.0000     -11.208939      -305.0107 
  31   2.0000     -11.197375      -304.6961 
  32   2.0000     -11.190574      -304.5110 
  33   2.0000     -11.190210      -304.5011 
  34   2.0000     -11.188837      -304.4637 
  35   2.0000     -11.187425      -304.4253 
  36   2.0000     -11.187162      -304.4182 
  37   2.0000     -11.186154      -304.3907 
  38   2.0000     -11.183466      -304.3176 
  39   2.0000     -11.173499      -304.0464 
  40   2.0000     -11.171955      -304.0044 
  41   2.0000     -11.170806      -303.9731 
  42   2.0000     -11.167547      -303.8844 
  43   2.0000     -11.160738      -303.6991 
  44   2.0000     -11.160410      -303.6902 
  45   2.0000     -11.157575      -303.6130 
  46   2.0000     -11.155836      -303.5657 
  47   2.0000     -11.155505      -303.5567 
  48   2.0000     -11.147723      -303.3450 
  49   2.0000     -11.137630      -303.0703 
  50   2.0000     -11.130554      -302.8778 
  51   2.0000     -11.119233      -302.5697 
  52   2.0000      -1.357686       -36.9445 
  53   2.0000      -1.320932       -35.9444 
  54   2.0000      -1.319620       -35.9087 
  55   2.0000      -1.283329       -34.9212 
  56   2.0000      -1.225575       -33.3496 
  57   2.0000      -1.210475       -32.9387 
  58   2.0000      -1.172681       -31.9103 
  59   2.0000      -1.151147       -31.3243 
  60   2.0000      -1.141423       -31.0597 
  61   2.0000      -1.110139       -30.2084 
  62   2.0000      -1.108822       -30.1726 
  63   2.0000      -1.079580       -29.3769 
  64   2.0000      -1.079250       -29.3679 
  65   2.0000      -1.045130       -28.4394 
  66   2.0000      -1.044291       -28.4166 
  67   2.0000      -1.039619       -28.2895 
  68   2.0000      -1.014657       -27.6102 
  69   2.0000      -1.013190       -27.5703 
  70   2.0000      -1.009424       -27.4678 
  71   2.0000      -0.992955       -27.0197 
  72   2.0000      -0.986431       -26.8421 
  73   2.0000      -0.980664       -26.6852 
  74   2.0000      -0.972407       -26.4605 
  75   2.0000      -0.961537       -26.1648 
  76   2.0000      -0.953962       -25.9586 
  77   2.0000      -0.946045       -25.7432 
  78   2.0000      -0.935471       -25.4555 
  79   2.0000      -0.918410       -24.9912 
  80   2.0000      -0.908248       -24.7147 
  81   2.0000      -0.894925       -24.3522 
  82   2.0000      -0.875278       -23.8175 
  83   2.0000      -0.871756       -23.7217 
  84   2.0000      -0.869907       -23.6714 
  85   2.0000      -0.857830       -23.3427 
  86   2.0000      -0.841713       -22.9042 
  87   2.0000      -0.835541       -22.7362 
  88   2.0000      -0.825232       -22.4557 
  89   2.0000      -0.797370       -21.6975 
  90   2.0000      -0.790562       -21.5123 
  91   2.0000      -0.752544       -20.4778 
  92   2.0000      -0.747499       -20.3405 
  93   2.0000      -0.733048       -19.9473 
  94   2.0000      -0.725179       -19.7331 
  95   2.0000      -0.722215       -19.6525 
  96   2.0000      -0.716934       -19.5088 
  97   2.0000      -0.713485       -19.4149 
  98   2.0000      -0.709260       -19.2999 
  99   2.0000      -0.697294       -18.9743 
 100   2.0000      -0.696359       -18.9489 
 101   2.0000      -0.686694       -18.6859 
 102   2.0000      -0.682959       -18.5843 
 103   2.0000      -0.682234       -18.5645 
 104   2.0000      -0.678270       -18.4567 
 105   2.0000      -0.673941       -18.3389 
 106   2.0000      -0.670839       -18.2544 
 107   2.0000      -0.660365       -17.9695 
 108   2.0000      -0.657262       -17.8850 
 109   2.0000      -0.652852       -17.7650 
 110   2.0000      -0.651567       -17.7300 
 111   2.0000      -0.644118       -17.5273 
 112   2.0000      -0.643785       -17.5183 
 113   2.0000      -0.638521       -17.3750 
 114   2.0000      -0.637472       -17.3465 
 115   2.0000      -0.628078       -17.0909 
 116   2.0000      -0.623492       -16.9661 
 117   2.0000      -0.620565       -16.8864 
 118   2.0000      -0.612653       -16.6711 
 119   2.0000      -0.612076       -16.6554 
 120   2.0000      -0.611483       -16.6393 
 121   2.0000      -0.609293       -16.5797 
 122   2.0000      -0.600780       -16.3481 
 123   2.0000      -0.586810       -15.9679 
 124   2.0000      -0.581466       -15.8225 
 125   2.0000      -0.580714       -15.8020 
 126   2.0000      -0.579646       -15.7730 
 127   2.0000      -0.572671       -15.5832 
 128   2.0000      -0.568607       -15.4726 
 129   2.0000      -0.559497       -15.2247 
 130   2.0000      -0.551896       -15.0178 
 131   2.0000      -0.547530       -14.8991 
 132   2.0000      -0.542067       -14.7504 
 133   2.0000      -0.541806       -14.7433 
 134   2.0000      -0.538169       -14.6443 
 135   2.0000      -0.535989       -14.5850 
 136   2.0000      -0.529530       -14.4092 
 137   2.0000      -0.521106       -14.1800 
 138   2.0000      -0.516678       -14.0595 
 139   2.0000      -0.514377       -13.9969 
 140   2.0000      -0.512495       -13.9457 
 141   2.0000      -0.511184       -13.9100 
 142   2.0000      -0.508928       -13.8486 
 143   2.0000      -0.504355       -13.7242 
 144   2.0000      -0.502046       -13.6614 
 145   2.0000      -0.496553       -13.5119 
 146   2.0000      -0.491252       -13.3676 
 147   2.0000      -0.482815       -13.1381 
 148   2.0000      -0.479021       -13.0348 
 149   2.0000      -0.466870       -12.7042 
 150   2.0000      -0.466401       -12.6914 
 151   2.0000      -0.457194       -12.4409 
 152   2.0000      -0.451150       -12.2764 
 153   2.0000      -0.444895       -12.1062 
 154   2.0000      -0.440339       -11.9822 
 155   2.0000      -0.428154       -11.6507 
 156   2.0000      -0.421964       -11.4822 
 157   2.0000      -0.408017       -11.1027 
 158   2.0000      -0.401031       -10.9126 
 159   2.0000      -0.388356       -10.5677 
 160   2.0000      -0.385595       -10.4926 
 161   2.0000      -0.378490       -10.2992 
 162   2.0000      -0.370057       -10.0698 
 163   2.0000      -0.356458        -9.6997 
 164   2.0000      -0.355829        -9.6826 
 165   2.0000      -0.341337        -9.2882 
 166   2.0000      -0.337595        -9.1864 
 167   2.0000      -0.325263        -8.8509 
 168   2.0000      -0.322858        -8.7854 
 169   2.0000      -0.304572        -8.2878 
 170   2.0000      -0.299634        -8.1534 
 171   2.0000      -0.285596        -7.7715 
 172   2.0000      -0.280586        -7.6351 
 173   2.0000      -0.263425        -7.1682 
 174   2.0000      -0.241890        -6.5822 
 175   2.0000      -0.189906        -5.1676 
 176   2.0000      -0.180480        -4.9111 
 177   2.0000      -0.077297        -2.1033 
 178   2.0000      -0.058968        -1.6046 
 179   0.0000       0.028388         0.7725 
 180   0.0000       0.065835         1.7915 
 181   0.0000       0.090803         2.4709 
 182   0.0000       0.108287         2.9466 
 183   0.0000       0.112241         3.0542 
 184   0.0000       0.137135         3.7316 
 185   0.0000       0.139465         3.7950 
 186   0.0000       0.142585         3.8799 
 187   0.0000       0.163647         4.4531 
 188   0.0000       0.165262         4.4970 
 189   0.0000       0.165671         4.5082 
 190   0.0000       0.170904         4.6505 
 191   0.0000       0.182036         4.9535 
 192   0.0000       0.185434         5.0459 
 193   0.0000       0.187845         5.1115 
 194   0.0000       0.205022         5.5789 
 195   0.0000       0.205614         5.5950 
 196   0.0000       0.208419         5.6714 
 197   0.0000       0.208611         5.6766 
 198   0.0000       0.218074         5.9341 
 199   0.0000       0.227688         6.1957 
 200   0.0000       0.232303         6.3213 
 201   0.0000       0.235297         6.4028 
 202   0.0000       0.239175         6.5083 
 203   0.0000       0.239815         6.5257 
 204   0.0000       0.247275         6.7287 
 205   0.0000       0.256110         6.9691 
 206   0.0000       0.256726         6.9859 
 207   0.0000       0.257260         7.0004 
 208   0.0000       0.258751         7.0410 
 209   0.0000       0.261251         7.1090 
 210   0.0000       0.263004         7.1567 
 211   0.0000       0.266941         7.2638 
 212   0.0000       0.270026         7.3478 
 213   0.0000       0.271788         7.3957 
 214   0.0000       0.272767         7.4224 
 215   0.0000       0.275857         7.5065 
 216   0.0000       0.277963         7.5638 
 217   0.0000       0.282360         7.6834 
 218   0.0000       0.286463         7.7951 
 219   0.0000       0.287750         7.8301 
 220   0.0000       0.289873         7.8878 
 221   0.0000       0.292109         7.9487 
 222   0.0000       0.295184         8.0324 
 223   0.0000       0.296451         8.0668 
 224   0.0000       0.297281         8.0894 
 225   0.0000       0.299393         8.1469 
 226   0.0000       0.305187         8.3046 
 227   0.0000       0.308737         8.4012 
 228   0.0000       0.310073         8.4375 
 229   0.0000       0.324744         8.8367 
 230   0.0000       0.327353         8.9077 
 231   0.0000       0.332590         9.0502 
 232   0.0000       0.340212         9.2576 
 233   0.0000       0.347243         9.4490 
 234   0.0000       0.354479         9.6459 
 235   0.0000       0.359576         9.7846 
 236   0.0000       0.376281        10.2391 
 237   0.0000       0.387497        10.5443 
 238   0.0000       0.393861        10.7175 
 239   0.0000       0.396869        10.7994 
 240   0.0000       0.401409        10.9229 
 241   0.0000       0.409774        11.1505 
 242   0.0000       0.413141        11.2421 
 243   0.0000       0.419436        11.4134 
 244   0.0000       0.429310        11.6821 
 245   0.0000       0.433997        11.8097 
 246   0.0000       0.436490        11.8775 
 247   0.0000       0.440973        11.9995 
 248   0.0000       0.441956        12.0262 
 249   0.0000       0.448398        12.2015 
 250   0.0000       0.457686        12.4543 
 251   0.0000       0.464311        12.6345 
 252   0.0000       0.469298        12.7703 
 253   0.0000       0.470476        12.8023 
 254   0.0000       0.472241        12.8503 
 255   0.0000       0.474415        12.9095 
 256   0.0000       0.476577        12.9683 
 257   0.0000       0.480176        13.0663 
 258   0.0000       0.487429        13.2636 
 259   0.0000       0.496926        13.5220 
 260   0.0000       0.503832        13.7100 
 261   0.0000       0.505446        13.7539 
 262   0.0000       0.506500        13.7826 
 263   0.0000       0.510186        13.8829 
 264   0.0000       0.515007        14.0140 
 265   0.0000       0.519538        14.1373 
 266   0.0000       0.524371        14.2688 
 267   0.0000       0.529661        14.4128 
 268   0.0000       0.532766        14.4973 
 269   0.0000       0.536710        14.6046 
 270   0.0000       0.542029        14.7494 
 271   0.0000       0.545171        14.8348 
 272   0.0000       0.556610        15.1461 
 273   0.0000       0.559260        15.2182 
 274   0.0000       0.561554        15.2807 
 275   0.0000       0.565511        15.3883 
 276   0.0000       0.570081        15.5127 
 277   0.0000       0.573327        15.6010 
 278   0.0000       0.578024        15.7288 
 279   0.0000       0.586643        15.9634 
 280   0.0000       0.590446        16.0669 
 281   0.0000       0.593071        16.1383 
 282   0.0000       0.594438        16.1755 
 283   0.0000       0.595330        16.1998 
 284   0.0000       0.597996        16.2723 
 285   0.0000       0.600024        16.3275 
 286   0.0000       0.606771        16.5111 
 287   0.0000       0.611805        16.6481 
 288   0.0000       0.616847        16.7853 
 289   0.0000       0.623276        16.9602 
 290   0.0000       0.626482        17.0475 
 291   0.0000       0.628866        17.1123 
 292   0.0000       0.634804        17.2739 
 293   0.0000       0.639039        17.3891 
 294   0.0000       0.644530        17.5386 
 295   0.0000       0.647761        17.6265 
 296   0.0000       0.652778        17.7630 
 297   0.0000       0.655663        17.8415 
 298   0.0000       0.661991        18.0137 
 299   0.0000       0.667013        18.1503 
 300   0.0000       0.672352        18.2956 
 301   0.0000       0.675044        18.3689 
 302   0.0000       0.676924        18.4200 
 303   0.0000       0.679297        18.4846 
 304   0.0000       0.681095        18.5335 
 305   0.0000       0.684797        18.6343 
 306   0.0000       0.688278        18.7290 
 307   0.0000       0.690923        18.8010 
 308   0.0000       0.695612        18.9286 
 309   0.0000       0.698234        18.9999 
 310   0.0000       0.702498        19.1159 
 311   0.0000       0.703742        19.1498 
 312   0.0000       0.706806        19.2332 
 313   0.0000       0.711464        19.3599 
 314   0.0000       0.712514        19.3885 
 315   0.0000       0.715806        19.4781 
 316   0.0000       0.717400        19.5214 
 317   0.0000       0.717906        19.5352 
 318   0.0000       0.722337        19.6558 
 319   0.0000       0.723361        19.6836 
 320   0.0000       0.726737        19.7755 
 321   0.0000       0.730108        19.8672 
 322   0.0000       0.731860        19.9149 
 323   0.0000       0.733168        19.9505 
 324   0.0000       0.734618        19.9900 
 325   0.0000       0.740122        20.1398 
 326   0.0000       0.743860        20.2415 
 327   0.0000       0.749554        20.3964 
 328   0.0000       0.752975        20.4895 
 329   0.0000       0.753298        20.4983 
 330   0.0000       0.755581        20.5604 
 331   0.0000       0.759563        20.6687 
 332   0.0000       0.760666        20.6988 
 333   0.0000       0.766972        20.8704 
 334   0.0000       0.767986        20.8980 
 335   0.0000       0.772302        21.0154 
 336   0.0000       0.775332        21.0979 
 337   0.0000       0.781703        21.2712 
 338   0.0000       0.781912        21.2769 
 339   0.0000       0.788860        21.4660 
 340   0.0000       0.793252        21.5855 
 341   0.0000       0.794256        21.6128 
 342   0.0000       0.797184        21.6925 
 343   0.0000       0.802974        21.8500 
 344   0.0000       0.805292        21.9131 
 345   0.0000       0.807734        21.9796 
 346   0.0000       0.808651        22.0045 
 347   0.0000       0.814146        22.1540 
 348   0.0000       0.815518        22.1914 
 349   0.0000       0.817763        22.2525 
 350   0.0000       0.819920        22.3112 
 351   0.0000       0.821651        22.3583 
 352   0.0000       0.823647        22.4126 
 353   0.0000       0.826445        22.4887 
 354   0.0000       0.827977        22.5304 
 355   0.0000       0.832601        22.6562 
 356   0.0000       0.833239        22.6736 
 357   0.0000       0.836253        22.7556 
 358   0.0000       0.837716        22.7954 
 359   0.0000       0.839642        22.8478 
 360   0.0000       0.840075        22.8596 
 361   0.0000       0.842821        22.9343 
 362   0.0000       0.844347        22.9759 
 363   0.0000       0.848781        23.0965 
 364   0.0000       0.849371        23.1126 
 365   0.0000       0.855008        23.2660 
 366   0.0000       0.857418        23.3315 
 367   0.0000       0.860956        23.4278 
 368   0.0000       0.864994        23.5377 
 369   0.0000       0.867727        23.6121 
 370   0.0000       0.871428        23.7128 
 371   0.0000       0.872310        23.7368 
 372   0.0000       0.874410        23.7939 
 373   0.0000       0.875681        23.8285 
 374   0.0000       0.878717        23.9111 
 375   0.0000       0.883858        24.0510 
 376   0.0000       0.886019        24.1098 
 377   0.0000       0.889811        24.2130 
 378   0.0000       0.891031        24.2462 
 379   0.0000       0.892096        24.2752 
 380   0.0000       0.897076        24.4107 
 381   0.0000       0.898773        24.4569 
 382   0.0000       0.899768        24.4839 
 383   0.0000       0.900963        24.5164 
 384   0.0000       0.905218        24.6322 
 385   0.0000       0.905663        24.6443 
 386   0.0000       0.908048        24.7092 
 387   0.0000       0.909470        24.7479 
 388   0.0000       0.912681        24.8353 
 389   0.0000       0.916378        24.9359 
 390   0.0000       0.920787        25.0559 
 391   0.0000       0.924667        25.1615 
 392   0.0000       0.926330        25.2067 
 393   0.0000       0.927511        25.2389 
 394   0.0000       0.928636        25.2695 
 395   0.0000       0.930262        25.3137 
 396   0.0000       0.934727        25.4352 
 397   0.0000       0.939862        25.5749 
 398   0.0000       0.942070        25.6350 
 399   0.0000       0.943899        25.6848 
 400   0.0000       0.946782        25.7632 
 401   0.0000       0.952395        25.9160 
 402   0.0000       0.953449        25.9447 
 403   0.0000       0.956223        26.0201 
 404   0.0000       0.959951        26.1216 
 405   0.0000       0.963141        26.2084 
 406   0.0000       0.969124        26.3712 
 407   0.0000       0.972547        26.4644 
 408   0.0000       0.979471        26.6527 
 409   0.0000       0.981152        26.6985 
 410   0.0000       0.984557        26.7912 
 411   0.0000       0.986919        26.8554 
 412   0.0000       0.993135        27.0246 
 413   0.0000       0.999324        27.1930 
 414   0.0000       1.002155        27.2700 
 415   0.0000       1.005689        27.3662 
 416   0.0000       1.012126        27.5413 
 417   0.0000       1.013058        27.5667 
 418   0.0000       1.023509        27.8511 
 419   0.0000       1.030133        28.0313 
 420   0.0000       1.032369        28.0922 
 421   0.0000       1.034698        28.1556 
 422   0.0000       1.040133        28.3035 
 423   0.0000       1.049013        28.5451 
 424   0.0000       1.056041        28.7363 
 425   0.0000       1.057435        28.7743 
 426   0.0000       1.063114        28.9288 
 427   0.0000       1.067686        29.0532 
 428   0.0000       1.077388        29.3172 
 429   0.0000       1.084222        29.5032 
 430   0.0000       1.085813        29.5465 
 431   0.0000       1.089350        29.6427 
 432   0.0000       1.093149        29.7461 
 433   0.0000       1.096695        29.8426 
 434   0.0000       1.101752        29.9802 
 435   0.0000       1.103919        30.0392 
 436   0.0000       1.108059        30.1518 
 437   0.0000       1.111304        30.2401 
 438   0.0000       1.115558        30.3559 
 439   0.0000       1.120427        30.4884 
 440   0.0000       1.120992        30.5037 
 441   0.0000       1.123783        30.5797 
 442   0.0000       1.125249        30.6196 
 443   0.0000       1.128395        30.7052 
 444   0.0000       1.134971        30.8841 
 445   0.0000       1.136563        30.9274 
 446   0.0000       1.140217        31.0269 
 447   0.0000       1.146124        31.1876 
 448   0.0000       1.149125        31.2693 
 449   0.0000       1.150045        31.2943 
 450   0.0000       1.154002        31.4020 
 451   0.0000       1.159402        31.5489 
 452   0.0000       1.164689        31.6928 
 453   0.0000       1.166942        31.7541 
 454   0.0000       1.169374        31.8203 
 455   0.0000       1.171514        31.8785 
 456   0.0000       1.176413        32.0118 
 457   0.0000       1.181263        32.1438 
 458   0.0000       1.184736        32.2383 
 459   0.0000       1.193161        32.4676 
 460   0.0000       1.197362        32.5819 
 461   0.0000       1.199552        32.6415 
 462   0.0000       1.200134        32.6573 
 463   0.0000       1.205710        32.8090 
 464   0.0000       1.208664        32.8894 
 465   0.0000       1.213134        33.0111 
 466   0.0000       1.217067        33.1181 
 467   0.0000       1.219990        33.1976 
 468   0.0000       1.224385        33.3172 
 469   0.0000       1.226315        33.3697 
 470   0.0000       1.229369        33.4528 
 471   0.0000       1.233456        33.5641 
 472   0.0000       1.235943        33.6317 
 473   0.0000       1.238735        33.7077 
 474   0.0000       1.243090        33.8262 
 475   0.0000       1.243463        33.8363 
 476   0.0000       1.249637        34.0044 
 477   0.0000       1.250586        34.0302 
 478   0.0000       1.251933        34.0668 
 479   0.0000       1.255816        34.1725 
 480   0.0000       1.259975        34.2857 
 481   0.0000       1.263580        34.3838 
 482   0.0000       1.264571        34.4107 
 483   0.0000       1.271625        34.6027 
 484   0.0000       1.276157        34.7260 
 485   0.0000       1.280226        34.8367 
 486   0.0000       1.282580        34.9008 
 487   0.0000       1.286242        35.0004 
 488   0.0000       1.288988        35.0751 
 489   0.0000       1.292677        35.1755 
 490   0.0000       1.295033        35.2396 
 491   0.0000       1.298955        35.3464 
 492   0.0000       1.300993        35.4018 
 493   0.0000       1.310855        35.6702 
 494   0.0000       1.311264        35.6813 
 495   0.0000       1.318350        35.8741 
 496   0.0000       1.320000        35.9190 
 497   0.0000       1.320675        35.9374 
 498   0.0000       1.326526        36.0966 
 499   0.0000       1.329193        36.1692 
 500   0.0000       1.332477        36.2586 
 501   0.0000       1.340215        36.4691 
 502   0.0000       1.341312        36.4990 
 503   0.0000       1.345735        36.6193 
 504   0.0000       1.347354        36.6634 
 505   0.0000       1.350192        36.7406 
 506   0.0000       1.351796        36.7843 
 507   0.0000       1.355278        36.8790 
 508   0.0000       1.358413        36.9643 
 509   0.0000       1.360956        37.0335 
[...]
      pz      :     0.022110  p :     0.079765
      px      :     0.043589
      py      :     0.014066
 77 H s       :     0.884837  s :     0.884837
      pz      :     0.047953  p :     0.079263
      px      :     0.015023
      py      :     0.016288
 78 H s       :     0.885176  s :     0.885176
      pz      :     0.025871  p :     0.079233
      px      :     0.020462
      py      :     0.032899
 79 H s       :     0.910649  s :     0.910649
      pz      :     0.021813  p :     0.086327
      px      :     0.021667
      py      :     0.042847
 80 H s       :     0.864838  s :     0.864838
      pz      :     0.039355  p :     0.084775
      px      :     0.030255
      py      :     0.015166
 81 H s       :     0.886809  s :     0.886809
      pz      :     0.037820  p :     0.084113
      px      :     0.016177
      py      :     0.030115
 82 H s       :     0.915897  s :     0.915897
      pz      :     0.021955  p :     0.086737
      px      :     0.031637
      py      :     0.033145
 83 H s       :     0.873269  s :     0.873269
      pz      :     0.039285  p :     0.084096
      px      :     0.015271
      py      :     0.029540
 84 H s       :     0.886615  s :     0.886615
      pz      :     0.035778  p :     0.083454
      px      :     0.031701
      py      :     0.015975
 85 H s       :     0.892795  s :     0.892795
      pz      :     0.022493  p :     0.079789
      px      :     0.014067
      py      :     0.043229
 86 H s       :     0.890922  s :     0.890922
      pz      :     0.024732  p :     0.078835
      px      :     0.032985
      py      :     0.021118
 87 H s       :     0.889848  s :     0.889848
      pz      :     0.048014  p :     0.078741
      px      :     0.015588
      py      :     0.015139
 88 H s       :     0.910729  s :     0.910729
      pz      :     0.021635  p :     0.087008
      px      :     0.042921
      py      :     0.022452
 89 H s       :     0.871344  s :     0.871344
      pz      :     0.037946  p :     0.083842
      px      :     0.030484
      py      :     0.015411


                      *****************************
                      * MAYER POPULATION ANALYSIS *
                      *****************************

  NA   - Mulliken gross atomic population
  ZA   - Total nuclear charge
  QA   - Mulliken gross atomic charge
  VA   - Mayer's total valence
  BVA  - Mayer's bonded valence
  FA   - Mayer's free valence

  ATOM       NA         ZA         QA         VA         BVA        FA
  0 C      5.7884     6.0000     0.2116     3.8443     3.8443     0.0000
  1 N      7.4554     7.0000    -0.4554     3.3360     3.3360     0.0000
  2 C      6.0687     6.0000    -0.0687     3.9218     3.9218     0.0000
  3 N      7.3386     7.0000    -0.3386     3.4568     3.4568    -0.0000
  4 C      6.0496     6.0000    -0.0496     4.0511     4.0511    -0.0000
  5 N      7.5659     7.0000    -0.5659     3.0947     3.0947    -0.0000
  6 C      6.1101     6.0000    -0.1101     3.9689     3.9689    -0.0000
  7 N      7.3405     7.0000    -0.3405     3.4335     3.4335    -0.0000
  8 C      5.7921     6.0000     0.2079     3.8445     3.8445    -0.0000
  9 N      7.5622     7.0000    -0.5622     3.0774     3.0774    -0.0000
 10 C      5.8806     6.0000     0.1194     3.9090     3.9090    -0.0000
 11 N      7.4385     7.0000    -0.4385     3.3777     3.3777    -0.0000
 12 C      6.0767     6.0000    -0.0767     3.8854     3.8854     0.0000
 13 N      7.4301     7.0000    -0.4301     3.4249     3.4249    -0.0000
 14 C      5.7707     6.0000     0.2293     3.7876     3.7876    -0.0000
 15 N      7.4409     7.0000    -0.4409     3.3726     3.3726    -0.0000
 16 C      5.7712     6.0000     0.2288     3.7774     3.7774    -0.0000
 17 C      6.1213     6.0000    -0.1213     3.9818     3.9818    -0.0000
 18 C      6.1901     6.0000    -0.1901     3.7657     3.7657    -0.0000
 19 C      5.7785     6.0000     0.2215     3.8647     3.8647    -0.0000
 20 C      5.7870     6.0000     0.2130     3.8291     3.8291     0.0000
 21 C      6.0848     6.0000    -0.0848     3.8650     3.8650    -0.0000
 22 C      6.0912     6.0000    -0.0912     3.9829     3.9829    -0.0000
 23 C      6.0400     6.0000    -0.0400     3.9926     3.9926     0.0000
 24 C      5.8060     6.0000     0.1940     3.8214     3.8214    -0.0000
 25 C      5.8854     6.0000     0.1146     3.8917     3.8917    -0.0000
 26 C      6.0861     6.0000    -0.0861     3.9108     3.9108     0.0000
 27 C      5.7864     6.0000     0.2136     3.8627     3.8627     0.0000
 28 C      6.0613     6.0000    -0.0613     3.9887     3.9887     0.0000
 29 C      6.1809     6.0000    -0.1809     3.7451     3.7451    -0.0000
 30 C      5.7543     6.0000     0.2457     3.8005     3.8005     0.0000
 31 C      5.7712     6.0000     0.2288     3.8179     3.8179    -0.0000
 32 C      6.0620     6.0000    -0.0620     3.9227     3.9227    -0.0000
 33 C      6.0617     6.0000    -0.0617     3.9725     3.9725     0.0000
 34 C      6.0512     6.0000    -0.0512     3.9841     3.9841    -0.0000
 35 C      5.7731     6.0000     0.2269     3.8172     3.8172    -0.0000
 36 C      5.8914     6.0000     0.1086     3.8759     3.8759     0.0000
 37 C      6.0644     6.0000    -0.0644     3.9177     3.9177     0.0000
 38 C      5.7687     6.0000     0.2313     3.8002     3.8002    -0.0000
 39 C      6.0578     6.0000    -0.0578     3.9837     3.9837     0.0000
 40 C      6.1818     6.0000    -0.1818     3.7281     3.7281    -0.0000
 41 C      5.7741     6.0000     0.2259     3.8867     3.8867    -0.0000
 42 C      5.8022     6.0000     0.1978     3.8258     3.8258     0.0000
 43 C      6.0723     6.0000    -0.0723     3.9001     3.9001    -0.0000
 44 C      6.0894     6.0000    -0.0894     3.9849     3.9849     0.0000
 45 C      6.0609     6.0000    -0.0609     3.9922     3.9922     0.0000
 46 C      5.7887     6.0000     0.2113     3.8283     3.8283     0.0000
 47 C      5.8847     6.0000     0.1153     3.8928     3.8928    -0.0000
 48 C      6.0672     6.0000    -0.0672     3.9093     3.9093    -0.0000
 49 C      5.7617     6.0000     0.2383     3.8933     3.8933    -0.0000
 50 C      6.0467     6.0000    -0.0467     3.9904     3.9904    -0.0000
 51 C      6.1922     6.0000    -0.1922     3.7363     3.7363     0.0000
 52 H      0.9619     1.0000     0.0381     0.9859     0.9859     0.0000
 53 H      1.0172     1.0000    -0.0172     0.9985     0.9985     0.0000
 54 H      0.9491     1.0000     0.0509     1.0192     1.0192    -0.0000
 55 H      0.9630     1.0000     0.0370     0.9867     0.9867    -0.0000
 56 H      0.9505     1.0000     0.0495     0.9696     0.9696     0.0000
 57 H      0.9521     1.0000     0.0479     0.9828     0.9828     0.0000
 58 H      0.9528     1.0000     0.0472     0.9848     0.9848     0.0000
 59 H      1.0005     1.0000    -0.0005     1.0014     1.0014     0.0000
 60 H      0.9533     1.0000     0.0467     1.0166     1.0166    -0.0000
 61 H      0.8288     1.0000     0.1712     1.0421     1.0421    -0.0000
 62 H      0.8247     1.0000     0.1753     1.0436     1.0436     0.0000
 63 H      0.9449     1.0000     0.0551     0.9853     0.9853     0.0000
 64 H      1.0127     1.0000    -0.0127     0.9946     0.9946    -0.0000
 65 H      0.9528     1.0000     0.0472     1.0097     1.0097     0.0000
 66 H      0.9444     1.0000     0.0556     0.9855     0.9855    -0.0000
 67 H      0.9378     1.0000     0.0622     0.9719     0.9719     0.0000
 68 H      0.9428     1.0000     0.0572     0.9868     0.9868    -0.0000
 69 H      0.9437     1.0000     0.0563     0.9828     0.9828     0.0000
 70 H      1.0300     1.0000    -0.0300     0.9938     0.9938    -0.0000
 71 H      0.9554     1.0000     0.0446     1.0059     1.0059     0.0000
 72 H      0.9296     1.0000     0.0704     0.9837     0.9837     0.0000
 73 H      1.0082     1.0000    -0.0082     1.0009     1.0009    -0.0000
 74 H      0.9405     1.0000     0.0595     1.0100     1.0100    -0.0000
 75 H      0.9302     1.0000     0.0698     0.9839     0.9839    -0.0000
 76 H      0.9259     1.0000     0.0741     0.9721     0.9721    -0.0000
 77 H      0.9326     1.0000     0.0674     0.9854     0.9854    -0.0000
 78 H      0.9333     1.0000     0.0667     0.9854     0.9854    -0.0000
 79 H      1.0165     1.0000    -0.0165     0.9976     0.9976     0.0000
 80 H      0.9395     1.0000     0.0605     1.0072     1.0072    -0.0000
 81 H      0.9457     1.0000     0.0543     0.9856     0.9856    -0.0000
 82 H      1.0247     1.0000    -0.0247     0.9935     0.9935     0.0000
 83 H      0.9578     1.0000     0.0422     1.0083     1.0083     0.0000
 84 H      0.9457     1.0000     0.0543     0.9852     0.9852    -0.0000
 85 H      0.9391     1.0000     0.0609     0.9716     0.9716     0.0000
 86 H      0.9443     1.0000     0.0557     0.9839     0.9839    -0.0000
 87 H      0.9428     1.0000     0.0572     0.9856     0.9856    -0.0000
 88 H      1.0147     1.0000    -0.0147     0.9966     0.9966    -0.0000
 89 H      0.9536     1.0000     0.0464     1.0075     1.0075     0.0000

  Mayer bond orders larger than 0.100000
B(  0-C ,  1-N ) :   1.0964 B(  0-C , 17-C ) :   1.7046 B(  0-C , 52-H ) :   0.9659 
B(  1-N ,  8-C ) :   1.0881 B(  1-N , 10-C ) :   0.9773 B(  2-C , 12-C ) :   1.5018 
B(  2-C , 16-C ) :   1.3609 B(  2-C , 53-H ) :   0.9744 B(  3-N , 14-C ) :   1.2199 
B(  3-N , 16-C ) :   1.1867 B(  3-N , 61-H ) :   0.8990 B(  4-C ,  6-C ) :   1.2117 
B(  4-C , 17-C ) :   1.2135 B(  4-C , 18-C ) :   1.4495 B(  5-N , 19-C ) :   1.4537 
B(  5-N , 27-C ) :   1.3766 B(  6-C ,  8-C ) :   1.7127 B(  6-C , 54-H ) :   0.9333 
B(  7-N , 30-C ) :   1.1959 B(  7-N , 38-C ) :   1.1901 B(  7-N , 62-H ) :   0.8969 
B(  8-C , 55-H ) :   0.9657 B(  9-N , 41-C ) :   1.3951 B(  9-N , 49-C ) :   1.4247 
B( 10-C , 56-H ) :   0.9773 B( 10-C , 57-H ) :   0.9822 B( 10-C , 58-H ) :   0.9843 
B( 11-N , 20-C ) :   1.1302 B( 11-N , 24-C ) :   1.1071 B( 11-N , 25-C ) :   0.9604 
B( 12-C , 14-C ) :   1.3562 B( 12-C , 59-H ) :   0.9664 B( 13-N , 31-C ) :   1.1587 
B( 13-N , 35-C ) :   1.1574 B( 13-N , 36-C ) :   0.9426 B( 14-C , 18-C ) :   1.1266 
B( 15-N , 42-C ) :   1.1083 B( 15-N , 46-C ) :   1.1239 B( 15-N , 47-C ) :   0.9612 
B( 16-C , 51-C ) :   1.1705 B( 17-C , 60-H ) :   0.9444 B( 18-C , 19-C ) :   1.1288 
B( 19-C , 21-C ) :   1.2491 B( 20-C , 28-C ) :   1.6290 B( 20-C , 63-H ) :   0.9703 
B( 21-C , 26-C ) :   1.5953 B( 21-C , 64-H ) :   0.9553 B( 22-C , 23-C ) :   1.2885 
B( 22-C , 28-C ) :   1.2638 B( 22-C , 29-C ) :   1.2258 B( 23-C , 24-C ) :   1.6208 
B( 23-C , 65-H ) :   0.9703 B( 24-C , 66-H ) :   0.9695 B( 25-C , 67-H ) :   0.9760 
B( 25-C , 68-H ) :   0.9828 B( 25-C , 69-H ) :   0.9823 B( 26-C , 27-C ) :   1.2501 
B( 26-C , 70-H ) :   0.9697 B( 27-C , 29-C ) :   1.2091 B( 28-C , 71-H ) :   0.9720 
B( 29-C , 30-C ) :   1.2432 B( 30-C , 32-C ) :   1.2818 B( 31-C , 39-C ) :   1.5906 
B( 31-C , 72-H ) :   0.9682 B( 32-C , 37-C ) :   1.5769 B( 32-C , 73-H ) :   0.9786 
B( 33-C , 34-C ) :   1.3048 B( 33-C , 39-C ) :   1.3018 B( 33-C , 40-C ) :   1.1809 
B( 34-C , 35-C ) :   1.5882 B( 34-C , 74-H ) :   0.9697 B( 35-C , 75-H ) :   0.9682 
B( 36-C , 76-H ) :   0.9767 B( 36-C , 77-H ) :   0.9816 B( 36-C , 78-H ) :   0.9824 
B( 37-C , 38-C ) :   1.2873 B( 37-C , 79-H ) :   0.9765 B( 38-C , 40-C ) :   1.2317 
B( 39-C , 80-H ) :   0.9706 B( 40-C , 41-C ) :   1.2490 B( 41-C , 43-C ) :   1.1857 
B( 42-C , 50-C ) :   1.6328 B( 42-C , 81-H ) :   0.9697 B( 43-C , 48-C ) :   1.6670 
B( 43-C , 82-H ) :   0.9722 B( 44-C , 45-C ) :   1.2642 B( 44-C , 50-C ) :   1.2724 
B( 44-C , 51-C ) :   1.2596 B( 45-C , 46-C ) :   1.6343 B( 45-C , 83-H ) :   0.9718 
B( 46-C , 84-H ) :   0.9700 B( 47-C , 85-H ) :   0.9762 B( 47-C , 86-H ) :   0.9829 
B( 47-C , 87-H ) :   0.9824 B( 48-C , 49-C ) :   1.1892 B( 48-C , 88-H ) :   0.9748 
B( 49-C , 51-C ) :   1.2428 B( 50-C , 89-H ) :   0.9709 

-------
TIMINGS
-------

Total SCF time: 0 days 0 hours 30 min 25 sec 

Total time                  ....    1825.186 sec
Sum of individual times     ....    1820.625 sec  ( 99.8%)

Fock matrix formation       ....    1797.539 sec  ( 98.5%)
Diagonalization             ....       6.882 sec  (  0.4%)
Density matrix formation    ....       0.658 sec  (  0.0%)
Population analysis         ....       0.525 sec  (  0.0%)
Initial guess               ....       2.049 sec  (  0.1%)
Orbital Transformation      ....       0.000 sec  (  0.0%)
Orbital Orthonormalization  ....       0.000 sec  (  0.0%)
DIIS solution               ....       3.474 sec  (  0.2%)
SOSCF solution              ....       8.452 sec  (  0.5%)

Maximum memory used throughout the entire SCF-calculation: 302.6 MB


           ************************************************************
           *        Program running with 16 parallel MPI-processes    *
           *              working on a common directory               *
           ************************************************************

------------------------------------------------------------------------------
                                ORCA  MP2 
------------------------------------------------------------------------------

Freezing NCore=104 chemical core electrons

----------
MP2 ENERGY (disk based algorithm)
----------

Dimension of the basis                    ...  918
Memory devoted to MP2                     ... 2000 MB   
Data format for buffers                   ... DOUBLE
Compression type for matrix containers    ... UNCOMPRESSED

-------------------------------
PARTIAL EXCHANGE TRANSFORMATION
-------------------------------

Transformation type                        ... one-operator
Generation of integrals (i,mue|j,nue)      ... ON
Generation of integrals (mue,kappa|nue,tau)... OFF
Generation of integrals (i,mue|a,nue)      ... OFF
Dimension of the basis                     ...  918
Number of internal MOs                     ...  127 (  52- 178)
Pair cutoff                                ... 2.500e-12 Eh
Number of AO pairs in the trafo            ... 421821
Total Number of distinct AO pairs          ... 421821
Memory devoted for trafo                   ... 2000.0 MB 
Max. Number of MO pairs treated together   ...  311      
Number Format for Storage                  ... Double (8 Byte)
Integral package used                      ... LIBINT

Starting integral evaluation:
    ... done with AO integral generation
Closing buffer AOK     (38.34 GB; CompressionRatio= 1.32)
Collecting buffer AOK 
Number of MO pairs included in the trafo   ... 8128
------------------------
SORTING OF (i,mue|j,nue)
------------------------

IBATCH = 1 of  2
IBATCH = 2 of  2
Closing buffer KAO     (51.03 GB; CompressionRatio= 1.00)
Collecting buffer KAO 
N(AO-Batches) Done                         ...  85922981 
N(AO-Batches) Skipped                      ...  82470649 
N(IJ)-pairs Skipped                        ...         0 
TOTAL TIME for half transformation         ...  3319.079 sec
AO-integral generation                     ...   210.940 sec
Half transformation                        ...   370.700 sec
K-integral sorting                         ...  2544.415 sec
Process 10:   Internal MO 132
Process 13:   Internal MO 156

Finished integral transformation - now doing MP2 part

OPERATOR COMBINATION   0   0: ij=( 52..178, 52..178)
Process  4:   Internal MO  84
Process  1:   Internal MO  60
Process  7:   Internal MO 108
Process  0:   Internal MO  54
Process  0:   Internal MO  57
Process  2:   Internal MO  69
Process  5:   Internal MO  93
Process  3:   Internal MO  78
Process  8:   Internal MO 117
Process  2:   Internal MO  72
Process  6:   Internal MO 102
Process 11:   Internal MO 141
Process  4:   Internal MO  87
Process 14:   Internal MO 165
Process  2:   Internal MO  75
Process  3:   Internal MO  81
Process  9:   Internal MO 126
Process  5:   Internal MO  96
Process 12:   Internal MO 150
Process  7:   Internal MO 111
Process  4:   Internal MO  90
Process 10:   Internal MO 135
Process  1:   Internal MO  63
Process  6:   Internal MO 105
Process 15:   Internal MO 174
Process  8:   Internal MO 120
Process  1:   Internal MO  66
Process 13:   Internal MO 159
Process  5:   Internal MO  99
Process 11:   Internal MO 144
Process  7:   Internal MO 114
Process  9:   Internal MO 129
Process  8:   Internal MO 123
Process 14:   Internal MO 168
Process 10:   Internal MO 138
Process 12:   Internal MO 153
Process 15:   Internal MO 177
Process 13:   Internal MO 162
Process 11:   Internal MO 147
Process 14:   Internal MO 171
-----------------------------------------------
 MP2 CORRELATION ENERGY   :     -7.284947989 Eh
-----------------------------------------------


-------
TIMINGS
-------
Total time                : 3877.612 sec
Integral trafo            : 3321.302 sec ( 85.7%)
K(i,j)                    :    6.426 sec (  0.2%)
T(i,j)                    :    0.323 sec (  0.0%)

---------------------------------------
MP2 TOTAL ENERGY:    -2130.854863842 Eh
---------------------------------------

Maximum memory used throughout the entire MP2-calculation: 2275.3 MB

-------------------------   --------------------
FINAL SINGLE POINT ENERGY     -2130.854863842008
-------------------------   --------------------


                            ***************************************
                            *     ORCA property calculations      *
                            ***************************************


  WARNING: The energy has been calculated at the MP2 level but the densities
           used in the property calculations are still SCF densities
           MP2 response densities have not been calculated 
           use %mp2 Density relaxed end
           or  %mp2 Density unrelaxed end

                                    ---------------------
                                    Active property flags
                                    ---------------------
   (+) Dipole Moment


------------------------------------------------------------------------------
                       ORCA ELECTRIC PROPERTIES CALCULATION
------------------------------------------------------------------------------

Dipole Moment Calculation                       ... on
Quadrupole Moment Calculation                   ... off
Polarizability Calculation                      ... off
GBWName                                         ... /scratch/allen/tmpyp4_amber_gaff2/conf1/conf1/Conf25.orca.gbw
Electron density                                ... /scratch/allen/tmpyp4_amber_gaff2/conf1/conf1/Conf25.orca.scfp
The origin for moment calculation is the CENTER OF MASS  = (-0.000821, -0.004696  0.003046)

-------------
DIPOLE MOMENT
-------------
                                X             Y             Z
Electronic contribution:      2.69313      -4.01513      -0.10993
Nuclear contribution   :     -0.04826       0.15416       0.12837
                        -----------------------------------------
Total Dipole Moment    :      2.64487      -3.86097       0.01844
                        -----------------------------------------
Magnitude (a.u.)       :      4.68004
Magnitude (Debye)      :     11.89573



--------------------
Rotational spectrum 
--------------------
 
Rotational constants in cm-1:     0.001502     0.001477     0.000760 
Rotational constants in MHz :    45.042579    44.282081    22.793594 

 Dipole components along the rotational axes: 
x,y,z [a.u.] :     3.374755     3.242427     0.022537 
x,y,z [Debye]:     8.577945     8.241593     0.057285 

 

Timings for individual modules:

Sum of individual times         ...     5722.498 sec (=  95.375 min)
GTO integral calculation        ...        3.518 sec (=   0.059 min)   0.1 %
SCF iterations                  ...     1826.299 sec (=  30.438 min)  31.9 %
MP2 module                      ...     3892.681 sec (=  64.878 min)  68.0 %
                             ****ORCA TERMINATED NORMALLY****
TOTAL RUN TIME: 0 days 1 hours 35 minutes 25 seconds 935 msec
# of primitive gaussian functions

