
                                 *****************
                                 * O   R   C   A *
                                 *****************

                                            #,                                       
                                            ###                                      
                                            ####                                     
                                            #####                                    
                                            ######                                   
                                           ########,                                 
                                     ,,################,,,,,                         
                               ,,#################################,,                 
                          ,,##########################################,,             
                       ,#########################################, ''#####,          
                    ,#############################################,,   '####,        
                  ,##################################################,,,,####,       
                ,###########''''           ''''###############################       
              ,#####''   ,,,,##########,,,,          '''####'''          '####       
            ,##' ,,,,###########################,,,                        '##       
           ' ,,###''''                  '''############,,,                           
         ,,##''                                '''############,,,,        ,,,,,,###''
      ,#''                                            '''#######################'''  
     '                                                          ''''####''''         
             ,#######,   #######,   ,#######,      ##                                
            ,#'     '#,  ##    ##  ,#'     '#,    #''#        ######   ,####,        
            ##       ##  ##   ,#'  ##            #'  '#       #        #'  '#        
            ##       ##  #######   ##           ,######,      #####,   #    #        
            '#,     ,#'  ##    ##  '#,     ,#' ,#      #,         ##   #,  ,#        
             '#######'   ##     ##  '#######'  #'      '#     #####' # '####'        



                  #######################################################
                  #                        -***-                        #
                  #          Department of theory and spectroscopy      #
                  #    Directorship and core code : Frank Neese         #
                  #        Max Planck Institute fuer Kohlenforschung    #
                  #                Kaiser Wilhelm Platz 1               #
                  #                 D-45470 Muelheim/Ruhr               #
                  #                      Germany                        #
                  #                                                     #
                  #                  All rights reserved                #
                  #                        -***-                        #
                  #######################################################


                         Program Version 5.0.4 -  RELEASE  -


 With contributions from (in alphabetic order):
   Daniel Aravena         : Magnetic Suceptibility
   Michael Atanasov       : Ab Initio Ligand Field Theory (pilot matlab implementation)
   Alexander A. Auer      : GIAO ZORA, VPT2 properties, NMR spectrum
   Ute Becker             : Parallelization
   Giovanni Bistoni       : ED, misc. LED, open-shell LED, HFLD
   Martin Brehm           : Molecular dynamics
   Dmytro Bykov           : SCF Hessian
   Vijay G. Chilkuri      : MRCI spin determinant printing, contributions to CSF-ICE
   Dipayan Datta          : RHF DLPNO-CCSD density
   Achintya Kumar Dutta   : EOM-CC, STEOM-CC
   Dmitry Ganyushin       : Spin-Orbit,Spin-Spin,Magnetic field MRCI
   Miquel Garcia          : C-PCM and meta-GGA Hessian, CC/C-PCM, Gaussian charge scheme
   Yang Guo               : DLPNO-NEVPT2, F12-NEVPT2, CIM, IAO-localization
   Andreas Hansen         : Spin unrestricted coupled pair/coupled cluster methods
   Benjamin Helmich-Paris : MC-RPA, TRAH-SCF, COSX integrals
   Lee Huntington         : MR-EOM, pCC
   Robert Izsak           : Overlap fitted RIJCOSX, COSX-SCS-MP3, EOM
   Marcus Kettner         : VPT2
   Christian Kollmar      : KDIIS, OOCD, Brueckner-CCSD(T), CCSD density, CASPT2, CASPT2-K
   Simone Kossmann        : Meta GGA functionals, TD-DFT gradient, OOMP2, MP2 Hessian
   Martin Krupicka        : Initial AUTO-CI
   Lucas Lang             : DCDCAS
   Marvin Lechner         : AUTO-CI (C++ implementation), FIC-MRCC
   Dagmar Lenk            : GEPOL surface, SMD
   Dimitrios Liakos       : Extrapolation schemes; Compound Job, initial MDCI parallelization
   Dimitrios Manganas     : Further ROCIS development; embedding schemes
   Dimitrios Pantazis     : SARC Basis sets
   Anastasios Papadopoulos: AUTO-CI, single reference methods and gradients
   Taras Petrenko         : DFT Hessian,TD-DFT gradient, ASA, ECA, R-Raman, ABS, FL, XAS/XES, NRVS
   Peter Pinski           : DLPNO-MP2, DLPNO-MP2 Gradient
   Christoph Reimann      : Effective Core Potentials
   Marius Retegan         : Local ZFS, SOC
   Christoph Riplinger    : Optimizer, TS searches, QM/MM, DLPNO-CCSD(T), (RO)-DLPNO pert. Triples
   Tobias Risthaus        : Range-separated hybrids, TD-DFT gradient, RPA, STAB
   Michael Roemelt        : Original ROCIS implementation
   Masaaki Saitow         : Open-shell DLPNO-CCSD energy and density
   Barbara Sandhoefer     : DKH picture change effects
   Avijit Sen             : IP-ROCIS
   Kantharuban Sivalingam : CASSCF convergence, NEVPT2, FIC-MRCI
   Bernardo de Souza      : ESD, SOC TD-DFT
   Georgi Stoychev        : AutoAux, RI-MP2 NMR, DLPNO-MP2 response
   Willem Van den Heuvel  : Paramagnetic NMR
   Boris Wezisla          : Elementary symmetry handling
   Frank Wennmohs         : Technical directorship


 We gratefully acknowledge several colleagues who have allowed us to
 interface, adapt or use parts of their codes:
   Stefan Grimme, W. Hujo, H. Kruse, P. Pracht,  : VdW corrections, initial TS optimization,
                  C. Bannwarth, S. Ehlert          DFT functionals, gCP, sTDA/sTD-DF
   Ed Valeev, F. Pavosevic, A. Kumar             : LibInt (2-el integral package), F12 methods
   Garnet Chan, S. Sharma, J. Yang, R. Olivares  : DMRG
   Ulf Ekstrom                                   : XCFun DFT Library
   Mihaly Kallay                                 : mrcc  (arbitrary order and MRCC methods)
   Jiri Pittner, Ondrej Demel                    : Mk-CCSD
   Frank Weinhold                                : gennbo (NPA and NBO analysis)
   Christopher J. Cramer and Donald G. Truhlar   : smd solvation model
   Lars Goerigk                                  : TD-DFT with DH, B97 family of functionals
   V. Asgeirsson, H. Jonsson                     : NEB implementation
   FAccTs GmbH                                   : IRC, NEB, NEB-TS, DLPNO-Multilevel, CI-OPT
                                                   MM, QMMM, 2- and 3-layer-ONIOM, Crystal-QMMM,
                                                   LR-CPCM, SF, NACMEs, symmetry and pop. for TD-DFT,
                                                   nearIR, NL-DFT gradient (VV10), updates on ESD,
                                                   ML-optimized integration grids
   S Lehtola, MJT Oliveira, MAL Marques          : LibXC Library
   Liviu Ungur et al                             : ANISO software


 Your calculation uses the libint2 library for the computation of 2-el integrals
 For citations please refer to: http://libint.valeyev.net

 Your ORCA version has been built with support for libXC version: 5.1.0
 For citations please refer to: https://tddft.org/programs/libxc/

 This ORCA versions uses:
   CBLAS   interface :  Fast vector & matrix operations
   LAPACKE interface :  Fast linear algebra routines
   SCALAPACK package :  Parallel linear algebra routines
   Shared memory     :  Shared parallel matrices
   BLAS/LAPACK       :  OpenBLAS 0.3.15  USE64BITINT DYNAMIC_ARCH NO_AFFINITY Sandybridge SINGLE_THREADED
        Core in use  :  Sandybridge
   Copyright (c) 2011-2014, The OpenBLAS Project


================================================================================

----- Orbital basis set information -----
Your calculation utilizes the basis: cc-pVDZ 
       H, B-Ne : Obtained from the ccRepo (grant-hill.group.shef.ac.uk/ccrepo) Feb. 2017
                 T. H. Dunning, Jr., J. Chem. Phys. 90, 1007 (1989)
            He : Obtained from the ccRepo (grant-hill.group.shef.ac.uk/ccrepo) Feb. 2017
                 D. E. Woon, T. H. Dunning, Jr., J. Chem. Phys. 100, 2975 (1994)
  Li-Be, Na-Mg : Obtained from the ccRepo (grant-hill.group.shef.ac.uk/ccrepo) Feb. 2017
                 B. P. Prascher, D. E. Woon, K. A. Peterson, T. H. Dunning, Jr., A. K. Wilson, Theor. Chem. Acc. 128, 69 (2011)
         Al-Ar : Obtained from the ccRepo (grant-hill.group.shef.ac.uk/ccrepo) Feb. 2017
                 D. E. Woon, T. H. Dunning, Jr., J. Chem. Phys. 98, 1358 (1993)
            Ca : Obtained from the Peterson Research Group Website (tyr0.chem.wsu.edu/~kipeters) Feb. 2017
                 J. Koput, K. A. Peterson, J. Phys. Chem. 106, 9595 (2002)
         Sc-Zn : Obtained from the ccRepo (grant-hill.group.shef.ac.uk/ccrepo) Feb. 2017
                 N. B. Balabanov, K. A. Peterson, J. Chem. Phys. 123, 064107 (2005)
                 N. B. Balabanov, K. A. Peterson, J. Chem. Phys. 125, 074110 (2006)
         Ga-Kr : Obtained from the ccRepo (grant-hill.group.shef.ac.uk/ccrepo) Feb. 2017
                 A. K. Wilson, D. E. Woon, K. A. Peterson, T. H. Dunning, Jr., J. Chem. Phys. 110, 7667 (1999)

================================================================================
                                        WARNINGS
                       Please study these warnings very carefully!
================================================================================


WARNING: No MP2 level density has been requested!
         To caclulate MP2 level properties use
         %mp2 Density relaxed end
         or
         %mp2 Density unrelaxed end

WARNING: Post HF methods need fully converged wavefunctions
  ===> : Setting SCFConvForced true
         You can overwrite this default with %scf ConvForced false 


INFO   : the flag for use of the SHARK integral package has been found!

================================================================================
                                       INPUT FILE
================================================================================
NAME = /scratch/allen/tmpyp4_amber_gaff2/2.Mdgx/conf11/conf11/Conf161.orca
|  1> ! PAL2
|  2> ! mp2 cc-pvdz TightSCF  NoKeepInts
|  3> 
|  4> %scf
|  5>   MaxCore 2000
|  6> end
|  7> %mp2
|  8>   MaxCore 2000
|  9> end
| 10> * xyz 0 1
| 11>    C       -4.89300         5.23300        -0.34200
| 12>    C        1.47400         4.04100         0.05700
| 13>    C       -2.80200         4.09300         0.04900
| 14>    C       -2.27500         5.31800         0.48600
| 15>    C       -3.06600         6.44900         0.49800
| 16>    C       -5.18700         7.61900         0.14600
| 17>    C        0.13200         4.30700         0.06100
| 18>    C       -0.56900         3.05600         0.04700
| 19>    C        1.64900         2.61800         0.02300
| 20>    C       -4.14200         4.07300        -0.36600
| 21>    N       -4.35400         6.39800         0.08500
| 22>    N        0.38800         2.06700         0.02500
| 23>    N       -2.01000         0.39500        -0.07500
| 24>    N       -0.38800        -2.07400        -0.02700
| 25>    N        2.01000        -0.40100         0.06500
| 26>    C       -1.96000         2.86100         0.02400
| 27>    C       -2.62300         1.61500        -0.01800
| 28>    C       -5.57300        -4.32900         1.06600
| 29>    C       -4.07300         1.47100         0.05600
| 30>    C       -4.10600        -2.75600        -0.02600
| 31>    C       -4.99500        -2.75700        -1.11100
| 32>    C       -6.13200        -3.54200        -1.07600
| 33>    C       -7.65100        -5.11300         0.04000
| 34>    C       -4.32400         0.14100         0.03700
| 35>    C       -3.02500        -0.52000        -0.04800
| 36>    C       -4.42200        -3.56600         1.07500
| 37>    N       -6.40700        -4.31300         0.00100
| 38>    C       -2.86700        -1.92200        -0.04000
| 39>    C       -1.65000        -2.62400        -0.02700
| 40>    C        3.56800        -6.14200        -1.04000
| 41>    C       -1.47600        -4.04900        -0.03400
| 42>    C        2.80300        -4.09900        -0.00800
| 43>    C        3.65700        -4.38400         1.06900
| 44>    C        4.42700        -5.53000         1.05900
| 45>    C        5.24500        -7.58800         0.01400
| 46>    C       -0.13400        -4.31500        -0.02200
| 47>    C        0.56800        -3.06400        -0.02700
| 48>    C        2.77500        -5.01200        -1.07400
| 49>    N        4.37600        -6.39100         0.01700
| 50>    C        1.95900        -2.86900        -0.00900
| 51>    C        2.62100        -1.62200         0.00900
| 52>    C        5.54300         4.33900        -1.13000
| 53>    C        4.07000        -1.47900        -0.09400
| 54>    C        4.10400         2.75100        -0.02100
| 55>    C        5.02700         2.72900         1.03600
| 56>    C        6.16600         3.50900         0.97800
| 57>    C        7.61900         5.15300        -0.11500
| 58>    C        4.32100        -0.14800        -0.09200
| 59>    C        3.02500         0.51400         0.01500
| 60>    C        4.38700         3.58200        -1.11500
| 61>    C        2.86600         1.91600         0.01300
| 62>    N        6.41300         4.29600        -0.09500
| 63>    H       -5.92600         5.26700        -0.66400
| 64>    H        2.27400         4.76600         0.08100
| 65>    H       -1.25000         5.39500         0.82800
| 66>    H       -2.70700         7.41300         0.83400
| 67>    H       -5.62000         7.70500         1.14500
| 68>    H       -4.55800         8.48400        -0.06600
| 69>    H       -5.97800         7.54100        -0.60000
| 70>    H       -0.33200         5.28200         0.06900
| 71>    H       -4.60300         3.16100        -0.72800
| 72>    H        0.18200         1.07200         0.00500
| 73>    H       -0.18300        -1.08000        -0.02100
| 74>    H       -5.86400        -4.96200         1.89500
| 75>    H       -4.79400         2.27200         0.13900
| 76>    H       -4.80000        -2.16000        -1.99400
| 77>    H       -6.84100        -3.58200        -1.89300
| 78>    H       -8.42800        -4.53600         0.54600
| 79>    H       -7.95600        -5.33700        -0.98100
| 80>    H       -7.45600        -6.03700         0.58400
| 81>    H       -5.28700        -0.34400         0.10000
| 82>    H       -3.78000        -3.60100         1.94700
| 83>    H        3.58700        -6.86800        -1.84300
| 84>    H       -2.27600        -4.77400        -0.05000
| 85>    H        3.71400        -3.72400         1.92600
| 86>    H        5.09200        -5.79500         1.87100
| 87>    H        6.20500        -7.32900        -0.43900
| 88>    H        5.39300        -7.91700         1.04200
| 89>    H        4.75900        -8.37300        -0.56400
| 90>    H        0.32900        -5.29000        -0.00800
| 91>    H        2.14600        -4.84200        -1.94000
| 92>    H        5.80800         4.98600        -1.95600
| 93>    H        4.78800        -2.28100        -0.18500
| 94>    H        4.86000         2.11400         1.91200
| 95>    H        6.90100         3.53100         1.77200
| 96>    H        7.38300         6.10900         0.35600
| 97>    H        8.41400         4.65200         0.43500
| 98>    H        7.92100         5.31000        -1.15000
| 99>    H        5.28300         0.33600        -0.17900
|100>    H        3.72000         3.63200        -1.96700
|101> *
|102> 
|103>                          ****END OF INPUT****
================================================================================

                       ****************************
                       * Single Point Calculation *
                       ****************************

---------------------------------
CARTESIAN COORDINATES (ANGSTROEM)
---------------------------------
  C     -4.893000    5.233000   -0.342000
  C      1.474000    4.041000    0.057000
  C     -2.802000    4.093000    0.049000
  C     -2.275000    5.318000    0.486000
  C     -3.066000    6.449000    0.498000
  C     -5.187000    7.619000    0.146000
  C      0.132000    4.307000    0.061000
  C     -0.569000    3.056000    0.047000
  C      1.649000    2.618000    0.023000
  C     -4.142000    4.073000   -0.366000
  N     -4.354000    6.398000    0.085000
  N      0.388000    2.067000    0.025000
  N     -2.010000    0.395000   -0.075000
  N     -0.388000   -2.074000   -0.027000
  N      2.010000   -0.401000    0.065000
  C     -1.960000    2.861000    0.024000
  C     -2.623000    1.615000   -0.018000
  C     -5.573000   -4.329000    1.066000
  C     -4.073000    1.471000    0.056000
  C     -4.106000   -2.756000   -0.026000
  C     -4.995000   -2.757000   -1.111000
  C     -6.132000   -3.542000   -1.076000
  C     -7.651000   -5.113000    0.040000
  C     -4.324000    0.141000    0.037000
  C     -3.025000   -0.520000   -0.048000
  C     -4.422000   -3.566000    1.075000
  N     -6.407000   -4.313000    0.001000
  C     -2.867000   -1.922000   -0.040000
  C     -1.650000   -2.624000   -0.027000
  C      3.568000   -6.142000   -1.040000
  C     -1.476000   -4.049000   -0.034000
  C      2.803000   -4.099000   -0.008000
  C      3.657000   -4.384000    1.069000
  C      4.427000   -5.530000    1.059000
  C      5.245000   -7.588000    0.014000
  C     -0.134000   -4.315000   -0.022000
  C      0.568000   -3.064000   -0.027000
  C      2.775000   -5.012000   -1.074000
  N      4.376000   -6.391000    0.017000
  C      1.959000   -2.869000   -0.009000
  C      2.621000   -1.622000    0.009000
  C      5.543000    4.339000   -1.130000
  C      4.070000   -1.479000   -0.094000
  C      4.104000    2.751000   -0.021000
  C      5.027000    2.729000    1.036000
  C      6.166000    3.509000    0.978000
  C      7.619000    5.153000   -0.115000
  C      4.321000   -0.148000   -0.092000
  C      3.025000    0.514000    0.015000
  C      4.387000    3.582000   -1.115000
  C      2.866000    1.916000    0.013000
  N      6.413000    4.296000   -0.095000
  H     -5.926000    5.267000   -0.664000
  H      2.274000    4.766000    0.081000
  H     -1.250000    5.395000    0.828000
  H     -2.707000    7.413000    0.834000
  H     -5.620000    7.705000    1.145000
  H     -4.558000    8.484000   -0.066000
  H     -5.978000    7.541000   -0.600000
  H     -0.332000    5.282000    0.069000
  H     -4.603000    3.161000   -0.728000
  H      0.182000    1.072000    0.005000
  H     -0.183000   -1.080000   -0.021000
  H     -5.864000   -4.962000    1.895000
  H     -4.794000    2.272000    0.139000
  H     -4.800000   -2.160000   -1.994000
  H     -6.841000   -3.582000   -1.893000
  H     -8.428000   -4.536000    0.546000
  H     -7.956000   -5.337000   -0.981000
  H     -7.456000   -6.037000    0.584000
  H     -5.287000   -0.344000    0.100000
  H     -3.780000   -3.601000    1.947000
  H      3.587000   -6.868000   -1.843000
  H     -2.276000   -4.774000   -0.050000
  H      3.714000   -3.724000    1.926000
  H      5.092000   -5.795000    1.871000
  H      6.205000   -7.329000   -0.439000
  H      5.393000   -7.917000    1.042000
  H      4.759000   -8.373000   -0.564000
  H      0.329000   -5.290000   -0.008000
  H      2.146000   -4.842000   -1.940000
  H      5.808000    4.986000   -1.956000
  H      4.788000   -2.281000   -0.185000
  H      4.860000    2.114000    1.912000
  H      6.901000    3.531000    1.772000
  H      7.383000    6.109000    0.356000
  H      8.414000    4.652000    0.435000
  H      7.921000    5.310000   -1.150000
  H      5.283000    0.336000   -0.179000
  H      3.720000    3.632000   -1.967000

----------------------------
CARTESIAN COORDINATES (A.U.)
----------------------------
  NO LB      ZA    FRAG     MASS         X           Y           Z
   0 C     6.0000    0    12.011   -9.246430    9.888937   -0.646286
   1 C     6.0000    0    12.011    2.785456    7.636383    0.107714
   2 C     6.0000    0    12.011   -5.295013    7.734649    0.092597
   3 C     6.0000    0    12.011   -4.299127   10.049564    0.918407
   4 C     6.0000    0    12.011   -5.793900   12.186844    0.941084
   5 C     6.0000    0    12.011   -9.802009   14.397823    0.275900
   6 C     6.0000    0    12.011    0.249444    8.139050    0.115273
   7 C     6.0000    0    12.011   -1.075254    5.775003    0.088817
   8 C     6.0000    0    12.011    3.116158    4.947303    0.043464
   9 C     6.0000    0    12.011   -7.827246    7.696855   -0.691640
  10 N     7.0000    0    14.007   -8.227868   12.090468    0.160627
  11 N     7.0000    0    14.007    0.733214    3.906064    0.047243
  12 N     7.0000    0    14.007   -3.798350    0.746442   -0.141729
  13 N     7.0000    0    14.007   -0.733214   -3.919292   -0.051023
  14 N     7.0000    0    14.007    3.798350   -0.757780    0.122832
  15 C     6.0000    0    12.011   -3.703863    5.406506    0.045353
  16 C     6.0000    0    12.011   -4.956752    3.051908   -0.034015
  17 C     6.0000    0    12.011  -10.531444   -8.180624    2.014448
  18 C     6.0000    0    12.011   -7.696855    2.779787    0.105825
  19 C     6.0000    0    12.011   -7.759216   -5.208085   -0.049133
  20 C     6.0000    0    12.011   -9.439182   -5.209975   -2.099486
  21 C     6.0000    0    12.011  -11.587801   -6.693410   -2.033345
  22 C     6.0000    0    12.011  -14.458295   -9.662170    0.075589
  23 C     6.0000    0    12.011   -8.171176    0.266451    0.069920
  24 C     6.0000    0    12.011   -5.716422   -0.982658   -0.090707
  25 C     6.0000    0    12.011   -8.356369   -6.738763    2.031456
  26 N     7.0000    0    14.007  -12.107475   -8.150389    0.001890
  27 C     6.0000    0    12.011   -5.417845   -3.632054   -0.075589
  28 C     6.0000    0    12.011   -3.118048   -4.958641   -0.051023
  29 C     6.0000    0    12.011    6.742543  -11.606698   -1.965315
  30 C     6.0000    0    12.011   -2.789236   -7.651501   -0.064251
  31 C     6.0000    0    12.011    5.296902   -7.745987   -0.015118
  32 C     6.0000    0    12.011    6.910728   -8.284559    2.020117
  33 C     6.0000    0    12.011    8.365818  -10.450186    2.001220
  34 C     6.0000    0    12.011    9.911614  -14.339242    0.026456
  35 C     6.0000    0    12.011   -0.253223   -8.154168   -0.041574
  36 C     6.0000    0    12.011    1.073364   -5.790121   -0.051023
  37 C     6.0000    0    12.011    5.243990   -9.471307   -2.029566
  38 N     7.0000    0    14.007    8.269442  -12.077240    0.032125
  39 C     6.0000    0    12.011    3.701973   -5.421624   -0.017008
  40 C     6.0000    0    12.011    4.952972   -3.065136    0.017008
  41 C     6.0000    0    12.011   10.474752    8.199522   -2.135391
  42 C     6.0000    0    12.011    7.691185   -2.794905   -0.177634
  43 C     6.0000    0    12.011    7.755436    5.198637   -0.039684
  44 C     6.0000    0    12.011    9.499653    5.157063    1.957756
  45 C     6.0000    0    12.011   11.652051    6.631049    1.848152
  46 C     6.0000    0    12.011   14.397823    9.737759   -0.217319
  47 C     6.0000    0    12.011    8.165507   -0.279679   -0.173855
  48 C     6.0000    0    12.011    5.716422    0.971319    0.028346
  49 C     6.0000    0    12.011    8.290229    6.768999   -2.107045
  50 C     6.0000    0    12.011    5.415955    3.620715    0.024566
  51 N     7.0000    0    14.007   12.118814    8.118263   -0.179524
  52 H     1.0000    0     1.008  -11.198517    9.953188   -1.254778
  53 H     1.0000    0     1.008    4.297237    9.006435    0.153068
  54 H     1.0000    0     1.008   -2.362158   10.195072    1.564693
  55 H     1.0000    0     1.008   -5.115489   14.008540    1.576032
  56 H     1.0000    0     1.008  -10.620261   14.560340    2.163736
  57 H     1.0000    0     1.008   -8.613372   16.032437   -0.124722
  58 H     1.0000    0     1.008  -11.296783   14.250425   -1.133836
  59 H     1.0000    0     1.008   -0.627389    9.981533    0.130391
  60 H     1.0000    0     1.008   -8.698409    5.973424   -1.375721
  61 H     1.0000    0     1.008    0.343930    2.025786    0.009449
  62 H     1.0000    0     1.008   -0.345820   -2.040904   -0.039684
  63 H     1.0000    0     1.008  -11.081354   -9.376821    3.581031
  64 H     1.0000    0     1.008   -9.059347    4.293458    0.262672
  65 H     1.0000    0     1.008   -9.070685   -4.081808   -3.768114
  66 H     1.0000    0     1.008  -12.927616   -6.768999   -3.577252
  67 H     1.0000    0     1.008  -15.926612   -8.571798    1.031790
  68 H     1.0000    0     1.008  -15.034661  -10.085468   -1.853821
  69 H     1.0000    0     1.008  -14.089798  -11.408277    1.103600
  70 H     1.0000    0     1.008   -9.990982   -0.650066    0.188973
  71 H     1.0000    0     1.008   -7.143165   -6.804904    3.679297
  72 H     1.0000    0     1.008    6.778448  -12.978639   -3.482765
  73 H     1.0000    0     1.008   -4.301017   -9.021553   -0.094486
  74 H     1.0000    0     1.008    7.018443   -7.037340    3.639613
  75 H     1.0000    0     1.008    9.622485  -10.950963    3.535678
  76 H     1.0000    0     1.008   11.725751  -13.849803   -0.829590
  77 H     1.0000    0     1.008   10.191293  -14.960962    1.969095
  78 H     1.0000    0     1.008    8.993207  -15.822677   -1.065806
  79 H     1.0000    0     1.008    0.621720   -9.996651   -0.015118
  80 H     1.0000    0     1.008    4.055352   -9.150054   -3.666069
  81 H     1.0000    0     1.008   10.975529    9.422175   -3.696304
  82 H     1.0000    0     1.008    9.048009   -4.310465   -0.349599
  83 H     1.0000    0     1.008    9.184069    3.994881    3.613156
  84 H     1.0000    0     1.008   13.041000    6.672623    3.348595
  85 H     1.0000    0     1.008   13.951848   11.544337    0.672743
  86 H     1.0000    0     1.008   15.900156    8.791006    0.822031
  87 H     1.0000    0     1.008   14.968521   10.034446   -2.173185
  88 H     1.0000    0     1.008    9.983423    0.634948   -0.338261
  89 H     1.0000    0     1.008    7.029781    6.863485   -3.717091

--------------------------------
INTERNAL COORDINATES (ANGSTROEM)
--------------------------------
 C      0   0   0     0.000000000000     0.00000000     0.00000000
 C      1   0   0     6.489896301175     0.00000000     0.00000000
 C      1   2   0     2.413454370814    18.79030725     0.00000000
 C      3   1   2     1.403325692774    87.90729959    35.57541788
 C      4   3   1     1.380212302510   120.18524972     0.14836972
 C      5   4   3     2.447742837800   152.50276811     1.64768007
 C      2   1   3     1.368114030335     3.74187498   279.48769585
 C      7   2   4     1.434084376876   108.05010202   217.91989089
 C      2   1   3     1.434123425651   107.48781521    21.37688125
 C      1   2   7     1.382091530978    46.67169915   255.94577834
 N      1   2   7     1.352802646361    75.39696024    62.54615921
 N      9   2   1     1.376127174356   106.58526707   355.38245603
 N     12   9   2     2.925062050624   168.53581413   171.12065651
 N     13  12   9     2.954513327098    91.55032014    11.12112580
 N     14  13  12     2.925371258490    88.43092389   359.84326247
 C      8   7   2     1.404790019896   127.24786865   181.11170171
 C     13  12   9     1.366535034311    81.72106996   188.00453233
 C     14  13  12     5.758810554272    80.56209567   166.76250791
 C     17  13  12     1.459010623676   111.08861209   183.82872609
 C     18  14  13     2.412235892279    27.27532823    36.33507194
 C     20  18  14     1.402692767501    87.95206320   148.94598259
 C     21  20  18     1.382106725257   120.14573887   359.70382047
 C     18  14  13     2.446510985056   144.15733107    82.80075377
 C     19  17  13     1.353610726908   106.29293361   359.75308708
 C     13  12   9     1.366813447402   172.21332906    33.46711076
 C     18  14  13     1.380960173213    15.08449437   309.23336894
 N     22  21  20     1.352773077792   120.73759875     0.27865223
 C     25  13  17     1.410897586645   125.60330303   182.37774668
 C     14  13  12     1.376642291955    80.24689249   177.85461986
 C     14  13  12     5.764089607215   164.51507311   312.20821879
 C     29  14  13     1.435600919476   106.58649366   178.76395472
 C     30  14  13     2.413316804732    27.10625047    82.12560436
 C     32  30  14     1.403734305344    87.90059683   149.76154742
 C     33  32  30     1.380694028378   120.14881443   359.74174632
 C     34  33  32     2.448777858443   152.49203239     2.45173620
 C     31  29  14     1.368160809262   108.16950133     0.70383075
 C     14  13  12     1.376239804685   169.26375223   353.09862627
 C     30  14  13     1.380907310430    14.68948582   353.70041132
 N     34  33  32     1.352658863128   120.85575621     0.19603406
 C     37  14  29     1.404717053360   126.01551127   180.90772073
 C     15  14  13     1.366491126938    81.61824056   183.09049352
 C      2   1   3     4.249062720177   155.42706872   144.96067966
 C     41  15  14     1.459677704153   111.05201287   175.08990246
 C     42   2   1     2.412953791518    41.78584867   209.07995403
 C     44  42   2     1.403446472082    87.95153797   233.97558675
 C     45  44  42     1.381696421071   120.11137308     0.19721020
 C     42   2   1     2.450019795838   135.97209175   119.39480313
 C     43  41  15     1.354461516618   106.26758155     0.30894352
 C     15  14  13     1.367461151185   171.87382904   332.35056460
 C     42   2   1     1.381886391857    32.59078432   257.93523322
 C      9   2   1     1.404988612053   126.98745415   176.38679356
 N     42   2   1     1.352765315936   113.57249190   147.13139232
 H      1   2   7     1.082556695975   163.78247614   201.86161603
 H      2   1   3     1.079907866440   127.21692754   197.75869711
 H      4   3   1     1.083290358122   121.04346888   179.53647355
 H      5   4   3     1.082161263398   122.85683383   179.45912384
 H      6   5   4     1.092193206351   104.45566586   100.07994823
 H      6   5   4     1.090325639431    84.68031528   209.52300853
 H      6   5   4     1.090083024361   133.86658695   322.31337777
 H      7   2  54     1.079807853278   126.66122480     1.30600390
 H     10   1   2     1.084116691136   118.73727367   196.00724257
 H     12   9   2     1.016297692608   125.29023241   180.00180175
 H     14  13  12     1.014936943854    44.97226959   359.42596618
 H     18  14  13     1.082871645210   128.03556573   234.20482432
 H     19  17  13     1.080893611786   126.41830519   178.11313280
 H     21  20  18     1.083569563987   121.05669627   180.67006309
 H     22  21  20     1.082483256222   122.73097286   180.59748951
 H     23  18  14     1.092105306278   103.92715769   234.93429879
 H     23  18  14     1.088871893291   134.19244188    12.25587044
 H     23  18  14     1.089833473518    84.85857450   125.45241208
 H     24  19  17     1.080075460327   127.28078426   178.44613241
 H     26  18  14     1.083408048706   118.76995697   244.94906660
 H     30  14  13     1.082703098730   127.99711412   279.66882698
 H     31  29  14     1.079759695488   125.22293469   180.92530585
 H     33  32  30     1.083188810873   121.01964473   180.74284758
 H     34  33  32     1.082494341787   122.70821597   180.59516895
 H     35  34  33     1.092652735319   105.73575241    97.19771933
 H     35  34  33     1.089462711615    84.05943581   206.43036958
 H     35  34  33     1.089268102902   133.08365142   318.50306270
 H     36  31  29     1.079439669458   126.61599965   178.98859863
 H     38  30  73     1.083742127999   118.77264435   359.90091293
 H     42   2   1     1.082178358682   119.31790784     3.76292278
 H     43  41  15     1.080281907652   126.36969097   182.06329380
 H     45  44  42     1.083277434455   121.10105945   179.58025624
 H     46  45  44     1.082194529648   122.72144639   179.46906377
 H     47  42   2     1.091546151109   106.65128841   315.16475048
 H     47  42   2     1.088818625851   132.46019523    94.52397119
 H     47  42   2     1.089531091801    83.63838232   206.04504406
 H     48  43  41     1.080402239909   127.23657387   181.62955349
 H     50  42   2     1.083186502870   118.77001737    94.71359229

---------------------------
INTERNAL COORDINATES (A.U.)
---------------------------
 C      0   0   0     0.000000000000     0.00000000     0.00000000
 C      1   0   0    12.264126646769     0.00000000     0.00000000
 C      1   2   0     4.560767797553    18.79030725     0.00000000
 C      3   1   2     2.651901236038    87.90729959    35.57541788
 C      4   3   1     2.608223258413   120.18524972     0.14836972
 C      5   4   3     4.625563609709   152.50276811     1.64768007
 C      2   1   3     2.585360837309     3.74187498   279.48769585
 C      7   2   4     2.710026725231   108.05010202   217.91989089
 C      2   1   3     2.710100516721   107.48781521    21.37688125
 C      1   2   7     2.611774485560    46.67169915   255.94577834
 N      1   2   7     2.556426514865    75.39696024    62.54615921
 N      9   2   1     2.600503484979   106.58526707   355.38245603
 N     12   9   2     5.527566200405   168.53581413   171.12065651
 N     13  12   9     5.583221047236    91.55032014    11.12112580
 N     14  13  12     5.528150518591    88.43092389   359.84326247
 C      8   7   2     2.654668413270   127.24786865   181.11170171
 C     13  12   9     2.582376967257    81.72106996   188.00453233
 C     14  13  12    10.882574804710    80.56209567   166.76250791
 C     17  13  12     2.757130505230   111.08861209   183.82872609
 C     18  14  13     4.558465206823    27.27532823    36.33507194
 C     20  18  14     2.650705180609    87.95206320   148.94598259
 C     21  20  18     2.611803198586   120.14573887   359.70382047
 C     18  14  13     4.623235745386   144.15733107    82.80075377
 C     19  17  13     2.557953565794   106.29293361   359.75308708
 C     13  12   9     2.582903091751   172.21332906    33.46711076
 C     18  14  13     2.609636529225    15.08449437   309.23336894
 N     22  21  20     2.556370638369   120.73759875     0.27865223
 C     25  13  17     2.666210041769   125.60330303   182.37774668
 C     14  13  12     2.601476916169    80.24689249   177.85461986
 C     14  13  12    10.892550769017   164.51507311   312.20821879
 C     29  14  13     2.712892575415   106.58649366   178.76395472
 C     30  14  13     4.560507835333    27.10625047    82.12560436
 C     32  30  14     2.652673401891    87.90059683   149.76154742
 C     33  32  30     2.609133588376   120.14881443   359.74174632
 C     34  33  32     4.627519515267   152.49203239     2.45173620
 C     31  29  14     2.585449236669   108.16950133     0.70383075
 C     14  13  12     2.600716325456   169.26375223   353.09862627
 C     30  14  13     2.609536633043    14.68948582   353.70041132
 N     34  33  32     2.556154803934   120.85575621     0.19603406
 C     37  14  29     2.654530526499   126.01551127   180.90772073
 C     15  14  13     2.582293994346    81.61824056   183.09049352
 C      2   1   3     8.029564866989   155.42706872   144.96067966
 C     41  15  14     2.758391104639   111.05201287   175.08990246
 C     42   2   1     4.559821839776    41.78584867   209.07995403
 C     44  42   2     2.652129475853    87.95153797   233.97558675
 C     45  44  42     2.611027836043   120.11137308     0.19721020
 C     42   2   1     4.629866436820   135.97209175   119.39480313
 C     43  41  15     2.559561325344   106.26758155     0.30894352
 C     15  14  13     2.584127074516   171.87382904   332.35056460
 C     42   2   1     2.611386828803    32.59078432   257.93523322
 C      9   2   1     2.655043698059   126.98745415   176.38679356
 N     42   2   1     2.556355970587   113.57249190   147.13139232
 H      1   2   7     2.045735679835   163.78247614   201.86161603
 H      2   1   3     2.040730117440   127.21692754   197.75869711
 H      4   3   1     2.047122100368   121.04346888   179.53647355
 H      5   4   3     2.044988420561   122.85683383   179.45912384
 H      6   5   4     2.063946045333   104.45566586   100.07994823
 H      6   5   4     2.060416855317    84.68031528   209.52300853
 H      6   5   4     2.059958379279   133.86658695   322.31337777
 H      7   2  54     2.040541119952   126.66122480     1.30600390
 H     10   1   2     2.048683643460   118.73727367   196.00724257
 H     12   9   2     1.920524309565   125.29023241   180.00180175
 H     14  13  12     1.917952867083    44.97226959   359.42596618
 H     18  14  13     2.046330847636   128.03556573   234.20482432
 H     19  17  13     2.042592906181   126.41830519   178.11313280
 H     21  20  18     2.047649722989   121.05669627   180.67006309
 H     22  21  20     2.045596898814   122.73097286   180.59748951
 H     23  18  14     2.063779938267   103.92715769   234.93429879
 H     23  18  14     2.057669673245   134.19244188    12.25587044
 H     23  18  14     2.059486796529    84.85857450   125.45241208
 H     24  19  17     2.041046823986   127.28078426   178.44613241
 H     26  18  14     2.047344503340   118.76995697   244.94906660
 H     30  14  13     2.046012340948   127.99711412   279.66882698
 H     31  29  14     2.040450114918   125.22293469   180.92530585
 H     33  32  30     2.046930203877   121.01964473   180.74284758
 H     34  33  32     2.045617847496   122.70821597   180.59516895
 H     35  34  33     2.064814429233   105.73575241    97.19771933
 H     35  34  33     2.058786158072    84.05943581   206.43036958
 H     35  34  33     2.058418400901   133.08365142   318.50306270
 H     36  31  29     2.039845353366   126.61599965   178.98859863
 H     38  30  73     2.047975821711   118.77264435   359.90091293
 H     42   2   1     2.045020725966   119.31790784     3.76292278
 H     43  41  15     2.041436952892   126.36969097   182.06329380
 H     45  44  42     2.047097678177   121.10105945   179.58025624
 H     46  45  44     2.045051284662   122.72144639   179.46906377
 H     47  42   2     2.062723288131   106.65128841   315.16475048
 H     47  42   2     2.057569012371   132.46019523    94.52397119
 H     47  42   2     2.058915377895    83.63838232   206.04504406
 H     48  43  41     2.041664347903   127.23657387   181.62955349
 H     50  42   2     2.046925842384   118.77001737    94.71359229

---------------------
BASIS SET INFORMATION
---------------------
There are 3 groups of distinct atoms

 Group   1 Type C   : 17s4p1d contracted to 3s2p1d pattern {881/31/1}
 Group   2 Type N   : 17s4p1d contracted to 3s2p1d pattern {881/31/1}
 Group   3 Type H   : 4s1p contracted to 2s1p pattern {31/1}

Atom   0C    basis set group =>   1
Atom   1N    basis set group =>   2
Atom   2C    basis set group =>   1
Atom   3N    basis set group =>   2
Atom   4C    basis set group =>   1
Atom   5N    basis set group =>   2
Atom   6C    basis set group =>   1
Atom   7N    basis set group =>   2
Atom   8C    basis set group =>   1
Atom   9N    basis set group =>   2
Atom  10C    basis set group =>   1
Atom  11N    basis set group =>   2
Atom  12C    basis set group =>   1
Atom  13N    basis set group =>   2
Atom  14C    basis set group =>   1
Atom  15N    basis set group =>   2
Atom  16C    basis set group =>   1
Atom  17C    basis set group =>   1
Atom  18C    basis set group =>   1
Atom  19C    basis set group =>   1
Atom  20C    basis set group =>   1
Atom  21C    basis set group =>   1
Atom  22C    basis set group =>   1
Atom  23C    basis set group =>   1
Atom  24C    basis set group =>   1
Atom  25C    basis set group =>   1
Atom  26C    basis set group =>   1
Atom  27C    basis set group =>   1
Atom  28C    basis set group =>   1
Atom  29C    basis set group =>   1
Atom  30C    basis set group =>   1
Atom  31C    basis set group =>   1
Atom  32C    basis set group =>   1
Atom  33C    basis set group =>   1
Atom  34C    basis set group =>   1
Atom  35C    basis set group =>   1
Atom  36C    basis set group =>   1
Atom  37C    basis set group =>   1
Atom  38C    basis set group =>   1
Atom  39C    basis set group =>   1
Atom  40C    basis set group =>   1
Atom  41C    basis set group =>   1
Atom  42C    basis set group =>   1
Atom  43C    basis set group =>   1
Atom  44C    basis set group =>   1
Atom  45C    basis set group =>   1
Atom  46C    basis set group =>   1
Atom  47C    basis set group =>   1
Atom  48C    basis set group =>   1
Atom  49C    basis set group =>   1
Atom  50C    basis set group =>   1
Atom  51C    basis set group =>   1
Atom  52H    basis set group =>   3
Atom  53H    basis set group =>   3
Atom  54H    basis set group =>   3
Atom  55H    basis set group =>   3
Atom  56H    basis set group =>   3
Atom  57H    basis set group =>   3
Atom  58H    basis set group =>   3
Atom  59H    basis set group =>   3
Atom  60H    basis set group =>   3
Atom  61H    basis set group =>   3
Atom  62H    basis set group =>   3
Atom  63H    basis set group =>   3
Atom  64H    basis set group =>   3
Atom  65H    basis set group =>   3
Atom  66H    basis set group =>   3
Atom  67H    basis set group =>   3
Atom  68H    basis set group =>   3
Atom  69H    basis set group =>   3
Atom  70H    basis set group =>   3
Atom  71H    basis set group =>   3
Atom  72H    basis set group =>   3
Atom  73H    basis set group =>   3
Atom  74H    basis set group =>   3
Atom  75H    basis set group =>   3
Atom  76H    basis set group =>   3
Atom  77H    basis set group =>   3
Atom  78H    basis set group =>   3
Atom  79H    basis set group =>   3
Atom  80H    basis set group =>   3
Atom  81H    basis set group =>   3
Atom  82H    basis set group =>   3
Atom  83H    basis set group =>   3
Atom  84H    basis set group =>   3
Atom  85H    basis set group =>   3
Atom  86H    basis set group =>   3
Atom  87H    basis set group =>   3
Atom  88H    basis set group =>   3
Atom  89H    basis set group =>   3


           ************************************************************
           *        Program running with 16 parallel MPI-processes    *
           *              working on a common directory               *
           ************************************************************
------------------------------------------------------------------------------
                           ORCA GTO INTEGRAL CALCULATION
------------------------------------------------------------------------------
------------------------------------------------------------------------------
                   ___                                                        
                  /   \      - P O W E R E D   B Y -                         
                 /     \                                                     
                 |  |  |   _    _      __       _____    __    __             
                 |  |  |  | |  | |    /  \     |  _  \  |  |  /  |          
                  \  \/   | |  | |   /    \    | | | |  |  | /  /          
                 / \  \   | |__| |  /  /\  \   | |_| |  |  |/  /          
                |  |  |   |  __  | /  /__\  \  |    /   |      \           
                |  |  |   | |  | | |   __   |  |    \   |  |\   \          
                \     /   | |  | | |  |  |  |  | |\  \  |  | \   \       
                 \___/    |_|  |_| |__|  |__|  |_| \__\ |__|  \__/        
                                                                              
                      - O R C A' S   B I G   F R I E N D -                    
                                      &                                       
                       - I N T E G R A L  F E E D E R -                       
                                                                              
 v1 FN, 2020, v2 2021                                                         
------------------------------------------------------------------------------


Reading SHARK input file /scratch/allen/tmpyp4_amber_gaff2/conf1/conf1/Conf161.orca.SHARKINP.tmp ... ok
----------------------
SHARK INTEGRAL PACKAGE
----------------------

Number of atoms                             ...     90
Number of basis functions                   ...   1230
Number of shells                            ...    738
Maximum angular momentum                    ...      2
Integral batch strategy                     ... SHARK/LIBINT Hybrid
RI-J (if used) integral strategy            ... SPLIT-RIJ (Revised 2003 algorithm where possible)
Printlevel                                  ...      1
Contraction scheme used                     ... PARTIAL GENERAL contraction
Coulomb Range Separation                    ... NOT USED
Exchange Range Separation                   ... NOT USED
Finite Nucleus Model                        ... NOT USED
Auxiliary Coulomb fitting basis             ... NOT available
Auxiliary J/K fitting basis                 ... NOT available
Auxiliary Correlation fitting basis         ... NOT available
Auxiliary 'external' fitting basis          ... NOT available
Integral threshold                          ...     2.500000e-11
Primitive cut-off                           ...     2.500000e-12
Primitive pair pre-selection threshold      ...     2.500000e-12

Calculating pre-screening integrals         ... done (  0.1 sec) Dimension = 738
Calculating pre-screening integrals (ORCA)  ... done (  0.3 sec) Dimension = 426
Organizing shell pair data                  ... done (  0.7 sec)
Shell pair information
Total number of shell pairs                 ...    272691
Shell pairs after pre-screening             ...     71698
Total number of primitive shell pairs       ...    422091
Primitive shell pairs kept                  ...     92599
          la=0 lb=0:  29426 shell pairs
          la=1 lb=0:  26028 shell pairs
          la=1 lb=1:   4704 shell pairs
          la=2 lb=0:   7889 shell pairs
          la=2 lb=1:   3122 shell pairs
          la=2 lb=2:    529 shell pairs

Calculating one electron integrals          ... done (  0.2 sec)
Calculating Nuclear repulsion               ... done (  0.0 sec) ENN=   6233.461305611460 Eh

SHARK setup successfully completed in   2.2 seconds

Maximum memory used throughout the entire GTOINT-calculation: 99.1 MB


           ************************************************************
           *        Program running with 16 parallel MPI-processes    *
           *              working on a common directory               *
           ************************************************************
-------------------------------------------------------------------------------
                                 ORCA SCF
-------------------------------------------------------------------------------

------------
SCF SETTINGS
------------
Hamiltonian:
 Ab initio Hamiltonian  Method          .... Hartree-Fock(GTOs)


General Settings:
 Integral files         IntName         .... /scratch/allen/tmpyp4_amber_gaff2/conf1/conf1/Conf161.orca
 Hartree-Fock type      HFTyp           .... RHF
 Total Charge           Charge          ....    0
 Multiplicity           Mult            ....    1
 Number of Electrons    NEL             ....  358
 Basis Dimension        Dim             ....  918
 Nuclear Repulsion      ENuc            ....   6233.4613056115 Eh

Convergence Acceleration:
 DIIS                   CNVDIIS         .... on
   Start iteration      DIISMaxIt       ....    12
   Startup error        DIISStart       ....  0.200000
   # of expansion vecs  DIISMaxEq       ....     5
   Bias factor          DIISBfac        ....   1.050
   Max. coefficient     DIISMaxC        ....  10.000
 Trust-Rad. Augm. Hess. CNVTRAH         .... auto
   Auto Start mean grad. ratio tolernc. ....  1.125000
   Auto Start start iteration           ....    20
   Auto Start num. interpolation iter.  ....    10
   Max. Number of Micro iterations      ....    16
   Max. Number of Macro iterations      .... Maxiter - #DIIS iter
   Number of Davidson start vectors     ....     2
   Converg. threshold I  (grad. norm)   ....   1.000e-05
   Converg. threshold II (energy diff.) ....   1.000e-08
   Grad. Scal. Fac. for Micro threshold ....   0.100
   Minimum threshold for Micro iter.    ....   0.010
   NR start threshold (gradient norm)   ....   0.001
   Initial trust radius                 ....   0.400
   Minimum AH scaling param. (alpha)    ....   1.000
   Maximum AH scaling param. (alpha)    .... 1000.000
   Orbital update algorithm             .... Taylor
   White noise on init. David. guess    .... on
   Maximum white noise                  ....   0.010
   Quad. conv. algorithm                .... NR
 SOSCF                  CNVSOSCF        .... on
   Start iteration      SOSCFMaxIt      ....   150
   Startup grad/error   SOSCFStart      ....  0.003300
 Level Shifting         CNVShift        .... on
   Level shift para.    LevelShift      ....    0.2500
   Turn off err/grad.   ShiftErr        ....    0.0010
 Zerner damping         CNVZerner       .... off
 Static damping         CNVDamp         .... on
   Fraction old density DampFac         ....    0.7000
   Max. Damping (<1)    DampMax         ....    0.9800
   Min. Damping (>=0)   DampMin         ....    0.0000
   Turn off err/grad.   DampErr         ....    0.1000
 Fernandez-Rico         CNVRico         .... off

SCF Procedure:
 Maximum # iterations   MaxIter         ....   125
 SCF integral mode      SCFMode         .... Direct
   Integral package                     .... SHARK and LIBINT hybrid scheme
 Reset frequency        DirectResetFreq ....    20
 Integral Threshold     Thresh          ....  2.500e-11 Eh
 Primitive CutOff       TCut            ....  2.500e-12 Eh

Convergence Tolerance:
 Convergence Check Mode ConvCheckMode   .... Total+1el-Energy
 Convergence forced     ConvForced      .... 1
 Energy Change          TolE            ....  1.000e-08 Eh
 1-El. energy change                    ....  1.000e-05 Eh
 Orbital Gradient       TolG            ....  1.000e-05
 Orbital Rotation angle TolX            ....  1.000e-05
 DIIS Error             TolErr          ....  5.000e-07


Diagonalization of the overlap matrix:
Smallest eigenvalue                        ... 1.969e-04
Time for diagonalization                   ...    0.485 sec
Threshold for overlap eigenvalues          ... 1.000e-08
Number of eigenvalues below threshold      ... 0
Time for construction of square roots      ...    0.265 sec
Total time needed                          ...    0.757 sec

Time for model grid setup =    1.299 sec

------------------------------
INITIAL GUESS: MODEL POTENTIAL
------------------------------
Loading Hartree-Fock densities                     ... done
Calculating cut-offs                               ... done
Initializing the effective Hamiltonian             ... done
Setting up the integral package (SHARK)            ... done
Starting the Coulomb interaction                   ... done (   1.4 sec)
Reading the grid                                   ... done
Mapping shells                                     ... done
Starting the XC term evaluation                    ... done (   0.2 sec)
Transforming the Hamiltonian                       ... done (   0.3 sec)
Diagonalizing the Hamiltonian                      ... done (   0.4 sec)
Back transforming the eigenvectors                 ... done (   0.1 sec)
Now organizing SCF variables                       ... done
                      ------------------
                      INITIAL GUESS DONE (   3.8 sec)
                      ------------------
--------------
SCF ITERATIONS
--------------
ITER       Energy         Delta-E        Max-DP      RMS-DP      [F,P]     Damp
               ***  Starting incremental Fock matrix formation  ***
  0  -2121.6624772699   0.000000000000 0.08350647  0.00123951  0.2314953 0.7000
  1  -2122.3100430535  -0.647565783589 0.06297730  0.00100860  0.1435801 0.7000
                               ***Turning on DIIS***
  2  -2122.7134629264  -0.403419872862 0.14636654  0.00229271  0.0802846 0.0000
  3  -2118.0199685106   4.693494415773 0.04238741  0.00067698  0.0435774 0.0000
  4  -2123.4011957907  -5.381227280042 0.01313353  0.00022685  0.0089378 0.0000
  5  -2123.5440684761  -0.142872685459 0.00633168  0.00013232  0.0049019 0.0000
  6  -2123.5283715570   0.015696919118 0.00374824  0.00008486  0.0021516 0.0000
  7  -2123.6224515259  -0.094079968847 0.00316370  0.00006699  0.0016142 0.0000
  8  -2123.6306334133  -0.008181887450 0.00333780  0.00006389  0.0015073 0.0000
  9  -2123.6024944764   0.028138936908 0.00266894  0.00004531  0.0012109 0.0000
 10  -2123.6108306334  -0.008336157038 0.00537864  0.00009530  0.0009437 0.0000
                      *** Initiating the SOSCF procedure ***
                           *** Shutting down DIIS ***
                      *** Re-Reading the Fockian *** 
                      *** Removing any level shift *** 
ITER      Energy       Delta-E        Grad      Rot      Max-DP    RMS-DP
 11  -2123.50414073   0.1066899007  0.000177  0.000177  0.000237  0.000005
               *** Restarting incremental Fock matrix formation ***
 12  -2123.56987487  -0.0657341391  0.000875  0.006469  0.001472  0.000035
 13  -2123.56998569  -0.0001108218  0.001091  0.031953  0.006771  0.000139
 14  -2123.57017227  -0.0001865753  0.000373  0.001663  0.000577  0.000012
 15  -2123.57018733  -0.0000150606  0.000155  0.001814  0.000560  0.000014
 16  -2123.57019444  -0.0000071152  0.000147  0.002333  0.000471  0.000008
 17  -2123.57019685  -0.0000024058  0.000110  0.001707  0.000279  0.000006
 18  -2123.57019792  -0.0000010722  0.000057  0.000471  0.000226  0.000003
 19  -2123.57019844  -0.0000005150  0.000040  0.000655  0.000175  0.000003
 20  -2123.57019867  -0.0000002286  0.000019  0.000397  0.000090  0.000002
 21  -2123.57019876  -0.0000000949  0.000019  0.000528  0.000103  0.000002
 22  -2123.57019884  -0.0000000828  0.000016  0.000552  0.000097  0.000002
 23  -2123.57019890  -0.0000000562  0.000010  0.000350  0.000064  0.000001
 24  -2123.57019893  -0.0000000324  0.000005  0.000313  0.000048  0.000001
 25  -2123.57019896  -0.0000000249  0.000006  0.000158  0.000028  0.000001
 26  -2123.57019897  -0.0000000155  0.000004  0.000127  0.000025  0.000001
 27  -2123.57019898  -0.0000000103  0.000003  0.000104  0.000020  0.000000
                 **** Energy Check signals convergence ****
              ***Rediagonalizing the Fockian in SOSCF/NRSCF***

               *****************************************************
               *                     SUCCESS                       *
               *           SCF CONVERGED AFTER  28 CYCLES          *
               *****************************************************


----------------
TOTAL SCF ENERGY
----------------

Total Energy       :        -2123.57019899 Eh          -57785.28286 eV

Components:
Nuclear Repulsion  :         6233.46130561 Eh          169621.10550 eV
Electronic Energy  :        -8357.03150460 Eh         -227406.38836 eV
One Electron Energy:       -15307.58212080 Eh         -416540.48602 eV
Two Electron Energy:         6950.55061620 Eh          189134.09766 eV

Virial components:
Potential Energy   :        -4245.90853320 Eh         -115537.04498 eV
Kinetic Energy     :         2122.33833421 Eh           57751.76212 eV
Virial Ratio       :            2.00058043


---------------
SCF CONVERGENCE
---------------

  Last Energy change         ...   -4.4638e-09  Tolerance :   1.0000e-08
  Last MAX-Density change    ...    1.1259e-05  Tolerance :   1.0000e-07
  Last RMS-Density change    ...    2.3114e-07  Tolerance :   5.0000e-09
  Last Orbital Gradient      ...    1.9064e-06  Tolerance :   1.0000e-05
  Last Orbital Rotation      ...    6.5188e-05  Tolerance :   1.0000e-05

             **** THE GBW FILE WAS UPDATED (/scratch/allen/tmpyp4_amber_gaff2/conf1/conf1/Conf161.orca.gbw) ****
             **** DENSITY /scratch/allen/tmpyp4_amber_gaff2/conf1/conf1/Conf161.orca.scfp WAS UPDATED ****
             **** ENERGY FILE WAS UPDATED (/scratch/allen/tmpyp4_amber_gaff2/conf1/conf1/Conf161.orca.en.tmp) ****
             **** THE GBW FILE WAS UPDATED (/scratch/allen/tmpyp4_amber_gaff2/conf1/conf1/Conf161.orca.gbw) ****
             **** DENSITY /scratch/allen/tmpyp4_amber_gaff2/conf1/conf1/Conf161.orca.scfp WAS UPDATED ****
----------------
ORBITAL ENERGIES
----------------

  NO   OCC          E(Eh)            E(eV) 
   0   2.0000     -15.678298      -426.6282 
   1   2.0000     -15.636236      -425.4836 
   2   2.0000     -15.629695      -425.3056 
   3   2.0000     -15.587550      -424.1588 
   4   2.0000     -15.525672      -422.4750 
   5   2.0000     -15.515560      -422.1999 
   6   2.0000     -15.453054      -420.4990 
   7   2.0000     -15.441306      -420.1793 
   8   2.0000     -11.328486      -308.2638 
   9   2.0000     -11.327007      -308.2235 
  10   2.0000     -11.326775      -308.2172 
  11   2.0000     -11.300733      -307.5086 
  12   2.0000     -11.297022      -307.4076 
  13   2.0000     -11.294807      -307.3473 
  14   2.0000     -11.289301      -307.1975 
  15   2.0000     -11.288691      -307.1809 
  16   2.0000     -11.284811      -307.0753 
  17   2.0000     -11.280671      -306.9627 
  18   2.0000     -11.270399      -306.6831 
  19   2.0000     -11.262356      -306.4643 
  20   2.0000     -11.261387      -306.4379 
  21   2.0000     -11.252141      -306.1863 
  22   2.0000     -11.250645      -306.1456 
  23   2.0000     -11.239943      -305.8544 
  24   2.0000     -11.234550      -305.7076 
  25   2.0000     -11.232888      -305.6624 
  26   2.0000     -11.232265      -305.6455 
  27   2.0000     -11.228165      -305.5339 
  28   2.0000     -11.227841      -305.5251 
  29   2.0000     -11.211756      -305.0874 
  30   2.0000     -11.210249      -305.0464 
  31   2.0000     -11.195150      -304.6355 
  32   2.0000     -11.190996      -304.5225 
  33   2.0000     -11.189929      -304.4934 
  34   2.0000     -11.188150      -304.4451 
  35   2.0000     -11.186932      -304.4119 
  36   2.0000     -11.185669      -304.3775 
  37   2.0000     -11.182411      -304.2889 
  38   2.0000     -11.182028      -304.2784 
  39   2.0000     -11.174984      -304.0868 
  40   2.0000     -11.173949      -304.0586 
  41   2.0000     -11.169412      -303.9351 
  42   2.0000     -11.169195      -303.9293 
  43   2.0000     -11.160508      -303.6929 
  44   2.0000     -11.160507      -303.6928 
  45   2.0000     -11.158144      -303.6285 
  46   2.0000     -11.155137      -303.5467 
  47   2.0000     -11.155040      -303.5441 
  48   2.0000     -11.146095      -303.3007 
  49   2.0000     -11.135843      -303.0217 
  50   2.0000     -11.131261      -302.8970 
  51   2.0000     -11.119931      -302.5887 
  52   2.0000      -1.359108       -36.9832 
  53   2.0000      -1.323181       -36.0056 
  54   2.0000      -1.317780       -35.8586 
  55   2.0000      -1.281100       -34.8605 
  56   2.0000      -1.226751       -33.3816 
  57   2.0000      -1.209919       -32.9236 
  58   2.0000      -1.172395       -31.9025 
  59   2.0000      -1.151706       -31.3395 
  60   2.0000      -1.142578       -31.0911 
  61   2.0000      -1.111811       -30.2539 
  62   2.0000      -1.107511       -30.1369 
  63   2.0000      -1.080903       -29.4129 
  64   2.0000      -1.077831       -29.3293 
  65   2.0000      -1.047294       -28.4983 
  66   2.0000      -1.042524       -28.3685 
  67   2.0000      -1.040510       -28.3137 
  68   2.0000      -1.015323       -27.6283 
  69   2.0000      -1.011956       -27.5367 
  70   2.0000      -1.008726       -27.4488 
  71   2.0000      -0.994095       -27.0507 
  72   2.0000      -0.985758       -26.8238 
  73   2.0000      -0.981527       -26.7087 
  74   2.0000      -0.972093       -26.4520 
  75   2.0000      -0.961112       -26.1532 
  76   2.0000      -0.953814       -25.9546 
  77   2.0000      -0.945649       -25.7324 
  78   2.0000      -0.935254       -25.4496 
  79   2.0000      -0.917700       -24.9719 
  80   2.0000      -0.909449       -24.7474 
  81   2.0000      -0.895535       -24.3687 
  82   2.0000      -0.875971       -23.8364 
  83   2.0000      -0.873625       -23.7726 
  84   2.0000      -0.868847       -23.6425 
  85   2.0000      -0.857767       -23.3410 
  86   2.0000      -0.839275       -22.8378 
  87   2.0000      -0.836586       -22.7647 
  88   2.0000      -0.825305       -22.4577 
  89   2.0000      -0.797108       -21.6904 
  90   2.0000      -0.789766       -21.4906 
  91   2.0000      -0.753608       -20.5067 
  92   2.0000      -0.748807       -20.3761 
  93   2.0000      -0.733913       -19.9708 
  94   2.0000      -0.725613       -19.7449 
  95   2.0000      -0.723004       -19.6739 
  96   2.0000      -0.717277       -19.5181 
  97   2.0000      -0.714523       -19.4432 
  98   2.0000      -0.708886       -19.2898 
  99   2.0000      -0.698105       -18.9964 
 100   2.0000      -0.696356       -18.9488 
 101   2.0000      -0.685685       -18.6584 
 102   2.0000      -0.683264       -18.5926 
 103   2.0000      -0.681743       -18.5512 
 104   2.0000      -0.679498       -18.4901 
 105   2.0000      -0.673199       -18.3187 
 106   2.0000      -0.671105       -18.2617 
 107   2.0000      -0.660711       -17.9789 
 108   2.0000      -0.655972       -17.8499 
 109   2.0000      -0.654359       -17.8060 
 110   2.0000      -0.650161       -17.6918 
 111   2.0000      -0.645066       -17.5532 
 112   2.0000      -0.644356       -17.5338 
 113   2.0000      -0.638240       -17.3674 
 114   2.0000      -0.636797       -17.3281 
 115   2.0000      -0.627077       -17.0636 
 116   2.0000      -0.621878       -16.9222 
 117   2.0000      -0.619816       -16.8661 
 118   2.0000      -0.614214       -16.7136 
 119   2.0000      -0.613267       -16.6879 
 120   2.0000      -0.610514       -16.6129 
 121   2.0000      -0.609782       -16.5930 
 122   2.0000      -0.599672       -16.3179 
 123   2.0000      -0.586896       -15.9703 
 124   2.0000      -0.582903       -15.8616 
 125   2.0000      -0.580536       -15.7972 
 126   2.0000      -0.579037       -15.7564 
 127   2.0000      -0.572736       -15.5849 
 128   2.0000      -0.569162       -15.4877 
 129   2.0000      -0.559284       -15.2189 
 130   2.0000      -0.551992       -15.0205 
 131   2.0000      -0.547766       -14.9055 
 132   2.0000      -0.543092       -14.7783 
 133   2.0000      -0.542418       -14.7599 
 134   2.0000      -0.539575       -14.6826 
 135   2.0000      -0.534766       -14.5517 
 136   2.0000      -0.529387       -14.4054 
 137   2.0000      -0.519672       -14.1410 
 138   2.0000      -0.518416       -14.1068 
 139   2.0000      -0.514293       -13.9946 
 140   2.0000      -0.511748       -13.9254 
 141   2.0000      -0.510748       -13.8982 
 142   2.0000      -0.510059       -13.8794 
 143   2.0000      -0.504309       -13.7229 
 144   2.0000      -0.500636       -13.6230 
 145   2.0000      -0.495732       -13.4895 
 146   2.0000      -0.492027       -13.3887 
 147   2.0000      -0.482106       -13.1188 
 148   2.0000      -0.477565       -12.9952 
 149   2.0000      -0.467329       -12.7167 
 150   2.0000      -0.466055       -12.6820 
 151   2.0000      -0.456899       -12.4328 
 152   2.0000      -0.450714       -12.2646 
 153   2.0000      -0.445664       -12.1271 
 154   2.0000      -0.440228       -11.9792 
 155   2.0000      -0.427784       -11.6406 
 156   2.0000      -0.414954       -11.2915 
 157   2.0000      -0.408227       -11.1084 
 158   2.0000      -0.406905       -11.0724 
 159   2.0000      -0.387218       -10.5367 
 160   2.0000      -0.386641       -10.5210 
 161   2.0000      -0.377951       -10.2846 
 162   2.0000      -0.371437       -10.1073 
 163   2.0000      -0.358228        -9.7479 
 164   2.0000      -0.354401        -9.6437 
 165   2.0000      -0.341016        -9.2795 
 166   2.0000      -0.337901        -9.1947 
 167   2.0000      -0.326012        -8.8712 
 168   2.0000      -0.321153        -8.7390 
 169   2.0000      -0.305938        -8.3250 
 170   2.0000      -0.299309        -8.1446 
 171   2.0000      -0.285046        -7.7565 
 172   2.0000      -0.279724        -7.6117 
 173   2.0000      -0.262872        -7.1531 
 174   2.0000      -0.242092        -6.5877 
 175   2.0000      -0.190120        -5.1734 
 176   2.0000      -0.180775        -4.9191 
 177   2.0000      -0.078612        -2.1391 
 178   2.0000      -0.059239        -1.6120 
 179   0.0000       0.028179         0.7668 
 180   0.0000       0.065354         1.7784 
 181   0.0000       0.090676         2.4674 
 182   0.0000       0.107157         2.9159 
 183   0.0000       0.113284         3.0826 
 184   0.0000       0.135639         3.6909 
 185   0.0000       0.140632         3.8268 
 186   0.0000       0.141720         3.8564 
 187   0.0000       0.163762         4.4562 
 188   0.0000       0.164603         4.4791 
 189   0.0000       0.166797         4.5388 
 190   0.0000       0.172793         4.7019 
 191   0.0000       0.181134         4.9289 
 192   0.0000       0.184559         5.0221 
 193   0.0000       0.188976         5.1423 
 194   0.0000       0.203595         5.5401 
 195   0.0000       0.206723         5.6252 
 196   0.0000       0.206962         5.6317 
 197   0.0000       0.209890         5.7114 
 198   0.0000       0.217242         5.9115 
 199   0.0000       0.228777         6.2253 
 200   0.0000       0.233654         6.3581 
 201   0.0000       0.234464         6.3801 
 202   0.0000       0.238162         6.4807 
 203   0.0000       0.240617         6.5475 
 204   0.0000       0.246438         6.7059 
 205   0.0000       0.255217         6.9448 
 206   0.0000       0.255895         6.9632 
 207   0.0000       0.257803         7.0152 
 208   0.0000       0.259739         7.0679 
 209   0.0000       0.260292         7.0829 
 210   0.0000       0.264039         7.1849 
 211   0.0000       0.266778         7.2594 
 212   0.0000       0.269559         7.3351 
 213   0.0000       0.271054         7.3758 
 214   0.0000       0.272601         7.4179 
 215   0.0000       0.276750         7.5307 
 216   0.0000       0.278637         7.5821 
 217   0.0000       0.280487         7.6324 
 218   0.0000       0.285286         7.7630 
 219   0.0000       0.288226         7.8430 
 220   0.0000       0.289158         7.8684 
 221   0.0000       0.292339         7.9549 
 222   0.0000       0.294217         8.0061 
 223   0.0000       0.295482         8.0405 
 224   0.0000       0.298672         8.1273 
 225   0.0000       0.300479         8.1765 
 226   0.0000       0.304431         8.2840 
 227   0.0000       0.309111         8.4113 
 228   0.0000       0.310834         8.4582 
 229   0.0000       0.324183         8.8215 
 230   0.0000       0.327724         8.9178 
 231   0.0000       0.333484         9.0746 
 232   0.0000       0.342109         9.3093 
 233   0.0000       0.349298         9.5049 
 234   0.0000       0.353344         9.6150 
 235   0.0000       0.358833         9.7643 
 236   0.0000       0.375721        10.2239 
 237   0.0000       0.389392        10.5959 
 238   0.0000       0.392697        10.6858 
 239   0.0000       0.396212        10.7815 
 240   0.0000       0.401864        10.9353 
 241   0.0000       0.408922        11.1273 
 242   0.0000       0.412187        11.2162 
 243   0.0000       0.419316        11.4102 
 244   0.0000       0.427860        11.6427 
 245   0.0000       0.434381        11.8201 
 246   0.0000       0.437057        11.8929 
 247   0.0000       0.439649        11.9635 
 248   0.0000       0.442539        12.0421 
 249   0.0000       0.448189        12.1958 
 250   0.0000       0.459095        12.4926 
 251   0.0000       0.465550        12.6683 
 252   0.0000       0.469727        12.7819 
 253   0.0000       0.470471        12.8022 
 254   0.0000       0.472544        12.8586 
 255   0.0000       0.475152        12.9295 
 256   0.0000       0.477778        13.0010 
 257   0.0000       0.479680        13.0528 
 258   0.0000       0.487806        13.2739 
 259   0.0000       0.496002        13.4969 
 260   0.0000       0.503926        13.7125 
 261   0.0000       0.504314        13.7231 
 262   0.0000       0.507402        13.8071 
 263   0.0000       0.510483        13.8909 
 264   0.0000       0.515502        14.0275 
 265   0.0000       0.518888        14.1197 
 266   0.0000       0.525165        14.2905 
 267   0.0000       0.527886        14.3645 
 268   0.0000       0.533804        14.5256 
 269   0.0000       0.537001        14.6125 
 270   0.0000       0.540928        14.7194 
 271   0.0000       0.545434        14.8420 
 272   0.0000       0.558006        15.1841 
 273   0.0000       0.558443        15.1960 
 274   0.0000       0.561027        15.2663 
 275   0.0000       0.565945        15.4002 
 276   0.0000       0.570134        15.5141 
 277   0.0000       0.572818        15.5872 
 278   0.0000       0.578412        15.7394 
 279   0.0000       0.586429        15.9575 
 280   0.0000       0.590292        16.0627 
 281   0.0000       0.592767        16.1300 
 282   0.0000       0.594972        16.1900 
 283   0.0000       0.595765        16.2116 
 284   0.0000       0.596838        16.2408 
 285   0.0000       0.598697        16.2914 
 286   0.0000       0.606983        16.5169 
 287   0.0000       0.611224        16.6323 
 288   0.0000       0.618921        16.8417 
 289   0.0000       0.624024        16.9805 
 290   0.0000       0.625825        17.0296 
 291   0.0000       0.630670        17.1614 
 292   0.0000       0.634598        17.2683 
 293   0.0000       0.638902        17.3854 
 294   0.0000       0.644007        17.5243 
 295   0.0000       0.648982        17.6597 
 296   0.0000       0.653075        17.7711 
 297   0.0000       0.655589        17.8395 
 298   0.0000       0.662169        18.0185 
 299   0.0000       0.665853        18.1188 
 300   0.0000       0.671468        18.2716 
 301   0.0000       0.674537        18.3551 
 302   0.0000       0.677548        18.4370 
 303   0.0000       0.678063        18.4510 
 304   0.0000       0.680933        18.5291 
 305   0.0000       0.684464        18.6252 
 306   0.0000       0.689236        18.7551 
 307   0.0000       0.691353        18.8127 
 308   0.0000       0.695908        18.9366 
 309   0.0000       0.698978        19.0202 
 310   0.0000       0.701510        19.0890 
 311   0.0000       0.704574        19.1724 
 312   0.0000       0.707723        19.2581 
 313   0.0000       0.710434        19.3319 
 314   0.0000       0.711499        19.3609 
 315   0.0000       0.714636        19.4462 
 316   0.0000       0.716411        19.4945 
 317   0.0000       0.719116        19.5682 
 318   0.0000       0.722057        19.6482 
 319   0.0000       0.725792        19.7498 
 320   0.0000       0.728580        19.8257 
 321   0.0000       0.730411        19.8755 
 322   0.0000       0.732037        19.9197 
 323   0.0000       0.732772        19.9397 
 324   0.0000       0.734851        19.9963 
 325   0.0000       0.740520        20.1506 
 326   0.0000       0.744764        20.2660 
 327   0.0000       0.747743        20.3471 
 328   0.0000       0.750312        20.4170 
 329   0.0000       0.753009        20.4904 
 330   0.0000       0.758935        20.6517 
 331   0.0000       0.760105        20.6835 
 332   0.0000       0.762318        20.7437 
 333   0.0000       0.766573        20.8595 
 334   0.0000       0.767957        20.8972 
 335   0.0000       0.772044        21.0084 
 336   0.0000       0.776868        21.1396 
 337   0.0000       0.782267        21.2866 
 338   0.0000       0.785807        21.3829 
 339   0.0000       0.788432        21.4543 
 340   0.0000       0.793749        21.5990 
 341   0.0000       0.794400        21.6167 
 342   0.0000       0.796776        21.6814 
 343   0.0000       0.802759        21.8442 
 344   0.0000       0.805313        21.9137 
 345   0.0000       0.806186        21.9374 
 346   0.0000       0.808137        21.9905 
 347   0.0000       0.812310        22.1041 
 348   0.0000       0.816419        22.2159 
 349   0.0000       0.816937        22.2300 
 350   0.0000       0.818922        22.2840 
 351   0.0000       0.820282        22.3210 
 352   0.0000       0.822230        22.3740 
 353   0.0000       0.824729        22.4420 
 354   0.0000       0.828993        22.5580 
 355   0.0000       0.832501        22.6535 
 356   0.0000       0.835710        22.7408 
 357   0.0000       0.836248        22.7555 
 358   0.0000       0.837005        22.7761 
 359   0.0000       0.839026        22.8310 
 360   0.0000       0.842512        22.9259 
 361   0.0000       0.843985        22.9660 
 362   0.0000       0.845151        22.9977 
 363   0.0000       0.846519        23.0349 
 364   0.0000       0.849335        23.1116 
 365   0.0000       0.853268        23.2186 
 366   0.0000       0.858508        23.3612 
 367   0.0000       0.863519        23.4975 
 368   0.0000       0.864443        23.5227 
 369   0.0000       0.865458        23.5503 
 370   0.0000       0.870338        23.6831 
 371   0.0000       0.871375        23.7113 
 372   0.0000       0.875059        23.8116 
 373   0.0000       0.878577        23.9073 
 374   0.0000       0.879060        23.9204 
 375   0.0000       0.882776        24.0215 
 376   0.0000       0.886550        24.1242 
 377   0.0000       0.890081        24.2203 
 378   0.0000       0.892041        24.2737 
 379   0.0000       0.893651        24.3175 
 380   0.0000       0.896099        24.3841 
 381   0.0000       0.898949        24.4616 
 382   0.0000       0.899401        24.4740 
 383   0.0000       0.901538        24.5321 
 384   0.0000       0.904993        24.6261 
 385   0.0000       0.906166        24.6580 
 386   0.0000       0.909073        24.7371 
 387   0.0000       0.909613        24.7518 
 388   0.0000       0.913633        24.8612 
 389   0.0000       0.915354        24.9080 
 390   0.0000       0.920516        25.0485 
 391   0.0000       0.925640        25.1880 
 392   0.0000       0.926616        25.2145 
 393   0.0000       0.927719        25.2445 
 394   0.0000       0.928716        25.2717 
 395   0.0000       0.932385        25.3715 
 396   0.0000       0.933645        25.4058 
 397   0.0000       0.936747        25.4902 
 398   0.0000       0.942401        25.6440 
 399   0.0000       0.944830        25.7101 
 400   0.0000       0.946923        25.7671 
 401   0.0000       0.952256        25.9122 
 402   0.0000       0.953777        25.9536 
 403   0.0000       0.954796        25.9813 
 404   0.0000       0.960446        26.1351 
 405   0.0000       0.965142        26.2628 
 406   0.0000       0.967719        26.3330 
 407   0.0000       0.976246        26.5650 
 408   0.0000       0.979197        26.6453 
 409   0.0000       0.981371        26.7045 
 410   0.0000       0.984147        26.7800 
 411   0.0000       0.986203        26.8360 
 412   0.0000       0.993756        27.0415 
 413   0.0000       1.002101        27.2686 
 414   0.0000       1.005048        27.3488 
 415   0.0000       1.009774        27.4773 
 416   0.0000       1.012664        27.5560 
 417   0.0000       1.017020        27.6745 
 418   0.0000       1.019691        27.7472 
 419   0.0000       1.026769        27.9398 
 420   0.0000       1.032598        28.0984 
 421   0.0000       1.035558        28.1790 
 422   0.0000       1.046798        28.4848 
 423   0.0000       1.048933        28.5429 
 424   0.0000       1.052222        28.6324 
 425   0.0000       1.066538        29.0220 
 426   0.0000       1.070222        29.1222 
 427   0.0000       1.073523        29.2121 
 428   0.0000       1.079113        29.3642 
 429   0.0000       1.080701        29.4074 
 430   0.0000       1.084011        29.4974 
 431   0.0000       1.084816        29.5193 
 432   0.0000       1.093299        29.7502 
 433   0.0000       1.097686        29.8696 
 434   0.0000       1.100713        29.9519 
 435   0.0000       1.105492        30.0820 
 436   0.0000       1.107794        30.1446 
 437   0.0000       1.111907        30.2565 
 438   0.0000       1.118459        30.4348 
 439   0.0000       1.120644        30.4943 
 440   0.0000       1.121559        30.5192 
 441   0.0000       1.124067        30.5874 
 442   0.0000       1.126641        30.6575 
 443   0.0000       1.130615        30.7656 
 444   0.0000       1.133293        30.8385 
 445   0.0000       1.135335        30.8940 
 446   0.0000       1.141103        31.0510 
 447   0.0000       1.149353        31.2755 
 448   0.0000       1.149850        31.2890 
 449   0.0000       1.154271        31.4093 
 450   0.0000       1.156567        31.4718 
 451   0.0000       1.158371        31.5209 
 452   0.0000       1.163121        31.6501 
 453   0.0000       1.166548        31.7434 
 454   0.0000       1.168638        31.8003 
 455   0.0000       1.173195        31.9243 
 456   0.0000       1.176085        32.0029 
 457   0.0000       1.184176        32.2231 
 458   0.0000       1.186976        32.2993 
 459   0.0000       1.195402        32.5285 
 460   0.0000       1.199376        32.6367 
 461   0.0000       1.199815        32.6486 
 462   0.0000       1.202188        32.7132 
 463   0.0000       1.204773        32.7835 
 464   0.0000       1.207536        32.8587 
 465   0.0000       1.213219        33.0134 
 466   0.0000       1.214769        33.0555 
 467   0.0000       1.218027        33.1442 
 468   0.0000       1.225552        33.3490 
 469   0.0000       1.228001        33.4156 
 470   0.0000       1.232821        33.5468 
 471   0.0000       1.235004        33.6062 
 472   0.0000       1.235876        33.6299 
 473   0.0000       1.237877        33.6843 
 474   0.0000       1.241807        33.7913 
 475   0.0000       1.243143        33.8276 
 476   0.0000       1.248291        33.9677 
 477   0.0000       1.252988        34.0955 
 478   0.0000       1.254509        34.1369 
 479   0.0000       1.254894        34.1474 
 480   0.0000       1.260409        34.2975 
 481   0.0000       1.265497        34.4359 
 482   0.0000       1.271009        34.5859 
 483   0.0000       1.273352        34.6497 
 484   0.0000       1.274381        34.6777 
 485   0.0000       1.280960        34.8567 
 486   0.0000       1.283466        34.9249 
 487   0.0000       1.284585        34.9553 
 488   0.0000       1.290367        35.1127 
 489   0.0000       1.295687        35.2574 
 490   0.0000       1.296607        35.2825 
 491   0.0000       1.300277        35.3823 
 492   0.0000       1.301925        35.4272 
 493   0.0000       1.307721        35.5849 
 494   0.0000       1.311050        35.6755 
 495   0.0000       1.315418        35.7944 
 496   0.0000       1.318044        35.8658 
 497   0.0000       1.320370        35.9291 
 498   0.0000       1.325791        36.0766 
 499   0.0000       1.327272        36.1169 
 500   0.0000       1.329210        36.1696 
 501   0.0000       1.336049        36.3557 
 502   0.0000       1.340947        36.4890 
 503   0.0000       1.343405        36.5559 
 504   0.0000       1.347080        36.6559 
 505   0.0000       1.349779        36.7294 
 506   0.0000       1.352161        36.7942 
 507   0.0000       1.354953        36.8701 
 508   0.0000       1.357987        36.9527 
 509   0.0000       1.362772        37.0829 
[...]
      pz      :     0.022114  p :     0.079781
      px      :     0.043612
      py      :     0.014055
 77 H s       :     0.884637  s :     0.884637
      pz      :     0.047974  p :     0.079284
      px      :     0.015023
      py      :     0.016287
 78 H s       :     0.885032  s :     0.885032
      pz      :     0.025878  p :     0.079245
      px      :     0.020456
      py      :     0.032910
 79 H s       :     0.910482  s :     0.910482
      pz      :     0.021804  p :     0.086338
      px      :     0.021664
      py      :     0.042870
 80 H s       :     0.864664  s :     0.864664
      pz      :     0.039377  p :     0.084825
      px      :     0.030288
      py      :     0.015160
 81 H s       :     0.887018  s :     0.887018
      pz      :     0.037809  p :     0.084109
      px      :     0.016192
      py      :     0.030107
 82 H s       :     0.916208  s :     0.916208
      pz      :     0.021972  p :     0.086719
      px      :     0.031638
      py      :     0.033110
 83 H s       :     0.873765  s :     0.873765
      pz      :     0.039240  p :     0.084057
      px      :     0.015283
      py      :     0.029533
 84 H s       :     0.887033  s :     0.887033
      pz      :     0.035747  p :     0.083441
      px      :     0.031684
      py      :     0.016011
 85 H s       :     0.893149  s :     0.893149
      pz      :     0.022483  p :     0.079770
      px      :     0.014081
      py      :     0.043206
 86 H s       :     0.891215  s :     0.891215
      pz      :     0.024722  p :     0.078810
      px      :     0.032965
      py      :     0.021122
 87 H s       :     0.890028  s :     0.890028
      pz      :     0.048002  p :     0.078723
      px      :     0.015585
      py      :     0.015136
 88 H s       :     0.910628  s :     0.910628
      pz      :     0.021669  p :     0.087041
      px      :     0.042915
      py      :     0.022457
 89 H s       :     0.871221  s :     0.871221
      pz      :     0.037948  p :     0.083836
      px      :     0.030483
      py      :     0.015405


                      *****************************
                      * MAYER POPULATION ANALYSIS *
                      *****************************

  NA   - Mulliken gross atomic population
  ZA   - Total nuclear charge
  QA   - Mulliken gross atomic charge
  VA   - Mayer's total valence
  BVA  - Mayer's bonded valence
  FA   - Mayer's free valence

  ATOM       NA         ZA         QA         VA         BVA        FA
  0 C      5.7883     6.0000     0.2117     3.8428     3.8428    -0.0000
  1 N      7.4570     7.0000    -0.4570     3.3340     3.3340    -0.0000
  2 C      6.0743     6.0000    -0.0743     3.9233     3.9233    -0.0000
  3 N      7.3395     7.0000    -0.3395     3.4586     3.4586     0.0000
  4 C      6.0580     6.0000    -0.0580     4.0755     4.0755    -0.0000
  5 N      7.5650     7.0000    -0.5650     3.0964     3.0964     0.0000
  6 C      6.1236     6.0000    -0.1236     3.9695     3.9695    -0.0000
  7 N      7.3408     7.0000    -0.3408     3.4327     3.4327     0.0000
  8 C      5.7859     6.0000     0.2141     3.8471     3.8471     0.0000
  9 N      7.5626     7.0000    -0.5626     3.0776     3.0776    -0.0000
 10 C      5.8811     6.0000     0.1189     3.9099     3.9099     0.0000
 11 N      7.4380     7.0000    -0.4380     3.3805     3.3805     0.0000
 12 C      6.0686     6.0000    -0.0686     3.8699     3.8699     0.0000
 13 N      7.4297     7.0000    -0.4297     3.4268     3.4268     0.0000
 14 C      5.7859     6.0000     0.2141     3.7883     3.7883    -0.0000
 15 N      7.4414     7.0000    -0.4414     3.3702     3.3702     0.0000
 16 C      5.7681     6.0000     0.2319     3.7770     3.7770    -0.0000
 17 C      6.1208     6.0000    -0.1208     3.9705     3.9705    -0.0000
 18 C      6.1555     6.0000    -0.1555     3.7511     3.7511     0.0000
 19 C      5.7971     6.0000     0.2029     3.8663     3.8663     0.0000
 20 C      5.7855     6.0000     0.2145     3.8286     3.8286     0.0000
 21 C      6.0832     6.0000    -0.0832     3.8705     3.8705    -0.0000
 22 C      6.0891     6.0000    -0.0891     3.9819     3.9819     0.0000
 23 C      6.0400     6.0000    -0.0400     3.9924     3.9924     0.0000
 24 C      5.8051     6.0000     0.1949     3.8212     3.8212     0.0000
 25 C      5.8857     6.0000     0.1143     3.8907     3.8907     0.0000
 26 C      6.0857     6.0000    -0.0857     3.9080     3.9080    -0.0000
 27 C      5.7869     6.0000     0.2131     3.8611     3.8611     0.0000
 28 C      6.0612     6.0000    -0.0612     3.9888     3.9888     0.0000
 29 C      6.1821     6.0000    -0.1821     3.7466     3.7466     0.0000
 30 C      5.7542     6.0000     0.2458     3.7988     3.7988     0.0000
 31 C      5.7695     6.0000     0.2305     3.8177     3.8177     0.0000
 32 C      6.0613     6.0000    -0.0613     3.9235     3.9235    -0.0000
 33 C      6.0610     6.0000    -0.0610     3.9717     3.9717     0.0000
 34 C      6.0502     6.0000    -0.0502     3.9840     3.9840     0.0000
 35 C      5.7732     6.0000     0.2268     3.8166     3.8166     0.0000
 36 C      5.8916     6.0000     0.1084     3.8752     3.8752     0.0000
 37 C      6.0643     6.0000    -0.0643     3.9176     3.9176     0.0000
 38 C      5.7679     6.0000     0.2321     3.8020     3.8020    -0.0000
 39 C      6.0586     6.0000    -0.0586     3.9832     3.9832    -0.0000
 40 C      6.1809     6.0000    -0.1809     3.7271     3.7271    -0.0000
 41 C      5.7753     6.0000     0.2247     3.8867     3.8867     0.0000
 42 C      5.8030     6.0000     0.1970     3.8260     3.8260     0.0000
 43 C      6.0727     6.0000    -0.0727     3.8999     3.8999     0.0000
 44 C      6.0908     6.0000    -0.0908     3.9859     3.9859    -0.0000
 45 C      6.0614     6.0000    -0.0614     3.9920     3.9920    -0.0000
 46 C      5.7897     6.0000     0.2103     3.8288     3.8288    -0.0000
 47 C      5.8844     6.0000     0.1156     3.8936     3.8936     0.0000
 48 C      6.0674     6.0000    -0.0674     3.9092     3.9092    -0.0000
 49 C      5.7619     6.0000     0.2381     3.8954     3.8954    -0.0000
 50 C      6.0465     6.0000    -0.0465     3.9904     3.9904    -0.0000
 51 C      6.1951     6.0000    -0.1951     3.7370     3.7370    -0.0000
 52 H      0.9628     1.0000     0.0372     0.9861     0.9861    -0.0000
 53 H      1.0177     1.0000    -0.0177     0.9989     0.9989    -0.0000
 54 H      0.9509     1.0000     0.0491     1.0179     1.0179    -0.0000
 55 H      0.9643     1.0000     0.0357     0.9866     0.9866     0.0000
 56 H      0.9509     1.0000     0.0491     0.9695     0.9695     0.0000
 57 H      0.9524     1.0000     0.0476     0.9823     0.9823     0.0000
 58 H      0.9534     1.0000     0.0466     0.9849     0.9849     0.0000
 59 H      1.0020     1.0000    -0.0020     1.0016     1.0016     0.0000
 60 H      0.9476     1.0000     0.0524     1.0224     1.0224    -0.0000
 61 H      0.8290     1.0000     0.1710     1.0420     1.0420    -0.0000
 62 H      0.8243     1.0000     0.1757     1.0436     1.0436     0.0000
 63 H      0.9439     1.0000     0.0561     0.9852     0.9852     0.0000
 64 H      1.0071     1.0000    -0.0071     0.9953     0.9953    -0.0000
 65 H      0.9529     1.0000     0.0471     1.0099     1.0099    -0.0000
 66 H      0.9438     1.0000     0.0562     0.9854     0.9854     0.0000
 67 H      0.9368     1.0000     0.0632     0.9720     0.9720    -0.0000
 68 H      0.9424     1.0000     0.0576     0.9868     0.9868     0.0000
 69 H      0.9431     1.0000     0.0569     0.9828     0.9828     0.0000
 70 H      1.0295     1.0000    -0.0295     0.9935     0.9935    -0.0000
 71 H      0.9543     1.0000     0.0457     1.0059     1.0059     0.0000
 72 H      0.9290     1.0000     0.0710     0.9836     0.9836     0.0000
 73 H      1.0080     1.0000    -0.0080     1.0008     1.0008    -0.0000
 74 H      0.9398     1.0000     0.0602     1.0102     1.0102     0.0000
 75 H      0.9297     1.0000     0.0703     0.9839     0.9839     0.0000
 76 H      0.9253     1.0000     0.0747     0.9721     0.9721     0.0000
 77 H      0.9322     1.0000     0.0678     0.9855     0.9855    -0.0000
 78 H      0.9330     1.0000     0.0670     0.9854     0.9854    -0.0000
 79 H      1.0161     1.0000    -0.0161     0.9977     0.9977    -0.0000
 80 H      0.9391     1.0000     0.0609     1.0072     1.0072    -0.0000
 81 H      0.9461     1.0000     0.0539     0.9857     0.9857     0.0000
 82 H      1.0253     1.0000    -0.0253     0.9933     0.9933     0.0000
 83 H      0.9589     1.0000     0.0411     1.0083     1.0083    -0.0000
 84 H      0.9466     1.0000     0.0534     0.9853     0.9853    -0.0000
 85 H      0.9397     1.0000     0.0603     0.9716     0.9716     0.0000
 86 H      0.9449     1.0000     0.0551     0.9839     0.9839     0.0000
 87 H      0.9431     1.0000     0.0569     0.9856     0.9856     0.0000
 88 H      1.0146     1.0000    -0.0146     0.9968     0.9968     0.0000
 89 H      0.9532     1.0000     0.0468     1.0073     1.0073    -0.0000

  Mayer bond orders larger than 0.100000
B(  0-C ,  1-N ) :   1.0886 B(  0-C , 17-C ) :   1.7161 B(  0-C , 52-H ) :   0.9645 
B(  1-N ,  8-C ) :   1.0928 B(  1-N , 10-C ) :   0.9785 B(  2-C , 12-C ) :   1.4945 
B(  2-C , 16-C ) :   1.3660 B(  2-C , 53-H ) :   0.9746 B(  3-N , 14-C ) :   1.2196 
B(  3-N , 16-C ) :   1.1868 B(  3-N , 61-H ) :   0.8992 B(  4-C ,  6-C ) :   1.2117 
B(  4-C , 17-C ) :   1.2127 B(  4-C , 18-C ) :   1.4599 B(  5-N , 19-C ) :   1.4556 
B(  5-N , 27-C ) :   1.3752 B(  6-C ,  8-C ) :   1.7141 B(  6-C , 54-H ) :   0.9314 
B(  7-N , 30-C ) :   1.1944 B(  7-N , 38-C ) :   1.1909 B(  7-N , 62-H ) :   0.8966 
B(  8-C , 55-H ) :   0.9654 B(  9-N , 41-C ) :   1.3923 B(  9-N , 49-C ) :   1.4278 
B( 10-C , 56-H ) :   0.9772 B( 10-C , 57-H ) :   0.9832 B( 10-C , 58-H ) :   0.9834 
B( 11-N , 20-C ) :   1.1324 B( 11-N , 24-C ) :   1.1089 B( 11-N , 25-C ) :   0.9593 
B( 12-C , 14-C ) :   1.3587 B( 12-C , 59-H ) :   0.9611 B( 13-N , 31-C ) :   1.1615 
B( 13-N , 35-C ) :   1.1578 B( 13-N , 36-C ) :   0.9419 B( 14-C , 18-C ) :   1.1205 
B( 15-N , 42-C ) :   1.1066 B( 15-N , 46-C ) :   1.1225 B( 15-N , 47-C ) :   0.9621 
B( 16-C , 51-C ) :   1.1679 B( 17-C , 60-H ) :   0.9344 B( 18-C , 19-C ) :   1.1218 
B( 19-C , 21-C ) :   1.2495 B( 20-C , 28-C ) :   1.6266 B( 20-C , 63-H ) :   0.9702 
B( 21-C , 26-C ) :   1.5973 B( 21-C , 64-H ) :   0.9618 B( 22-C , 23-C ) :   1.2910 
B( 22-C , 28-C ) :   1.2659 B( 22-C , 29-C ) :   1.2221 B( 23-C , 24-C ) :   1.6181 
B( 23-C , 65-H ) :   0.9704 B( 24-C , 66-H ) :   0.9695 B( 25-C , 67-H ) :   0.9760 
B( 25-C , 68-H ) :   0.9828 B( 25-C , 69-H ) :   0.9823 B( 26-C , 27-C ) :   1.2489 
B( 26-C , 70-H ) :   0.9687 B( 27-C , 29-C ) :   1.2094 B( 28-C , 71-H ) :   0.9719 
B( 29-C , 30-C ) :   1.2466 B( 30-C , 32-C ) :   1.2784 B( 31-C , 39-C ) :   1.5891 
B( 31-C , 72-H ) :   0.9681 B( 32-C , 37-C ) :   1.5809 B( 32-C , 73-H ) :   0.9785 
B( 33-C , 34-C ) :   1.3074 B( 33-C , 39-C ) :   1.3022 B( 33-C , 40-C ) :   1.1768 
B( 34-C , 35-C ) :   1.5860 B( 34-C , 74-H ) :   0.9696 B( 35-C , 75-H ) :   0.9682 
B( 36-C , 76-H ) :   0.9767 B( 36-C , 77-H ) :   0.9816 B( 36-C , 78-H ) :   0.9823 
B( 37-C , 38-C ) :   1.2836 B( 37-C , 79-H ) :   0.9766 B( 38-C , 40-C ) :   1.2347 
B( 39-C , 80-H ) :   0.9706 B( 40-C , 41-C ) :   1.2497 B( 41-C , 43-C ) :   1.1868 
B( 42-C , 50-C ) :   1.6353 B( 42-C , 81-H ) :   0.9697 B( 43-C , 48-C ) :   1.6655 
B( 43-C , 82-H ) :   0.9721 B( 44-C , 45-C ) :   1.2621 B( 44-C , 50-C ) :   1.2702 
B( 44-C , 51-C ) :   1.2648 B( 45-C , 46-C ) :   1.6365 B( 45-C , 83-H ) :   0.9718 
B( 46-C , 84-H ) :   0.9701 B( 47-C , 85-H ) :   0.9762 B( 47-C , 86-H ) :   0.9829 
B( 47-C , 87-H ) :   0.9825 B( 48-C , 49-C ) :   1.1904 B( 48-C , 88-H ) :   0.9749 
B( 49-C , 51-C ) :   1.2411 B( 50-C , 89-H ) :   0.9709 

-------
TIMINGS
-------

Total SCF time: 0 days 0 hours 28 min 17 sec 

Total time                  ....    1697.621 sec
Sum of individual times     ....    1692.809 sec  ( 99.7%)

Fock matrix formation       ....    1665.062 sec  ( 98.1%)
Diagonalization             ....       8.792 sec  (  0.5%)
Density matrix formation    ....       0.534 sec  (  0.0%)
Population analysis         ....       0.630 sec  (  0.0%)
Initial guess               ....       2.520 sec  (  0.1%)
Orbital Transformation      ....       0.000 sec  (  0.0%)
Orbital Orthonormalization  ....       0.000 sec  (  0.0%)
DIIS solution               ....       3.969 sec  (  0.2%)
SOSCF solution              ....      10.002 sec  (  0.6%)

Maximum memory used throughout the entire SCF-calculation: 302.6 MB


           ************************************************************
           *        Program running with 16 parallel MPI-processes    *
           *              working on a common directory               *
           ************************************************************

------------------------------------------------------------------------------
                                ORCA  MP2 
------------------------------------------------------------------------------

Freezing NCore=104 chemical core electrons

----------
MP2 ENERGY (disk based algorithm)
----------

Dimension of the basis                    ...  918
Memory devoted to MP2                     ... 2000 MB   
Data format for buffers                   ... DOUBLE
Compression type for matrix containers    ... UNCOMPRESSED

-------------------------------
PARTIAL EXCHANGE TRANSFORMATION
-------------------------------

Transformation type                        ... one-operator
Generation of integrals (i,mue|j,nue)      ... ON
Generation of integrals (mue,kappa|nue,tau)... OFF
Generation of integrals (i,mue|a,nue)      ... OFF
Dimension of the basis                     ...  918
Number of internal MOs                     ...  127 (  52- 178)
Pair cutoff                                ... 2.500e-12 Eh
Number of AO pairs in the trafo            ... 421821
Total Number of distinct AO pairs          ... 421821
Memory devoted for trafo                   ... 2000.0 MB 
Max. Number of MO pairs treated together   ...  311      
Number Format for Storage                  ... Double (8 Byte)
Integral package used                      ... LIBINT

Starting integral evaluation:
    ... done with AO integral generation
Closing buffer AOK     (38.28 GB; CompressionRatio= 1.32)
Collecting buffer AOK 
Number of MO pairs included in the trafo   ... 8128
------------------------
SORTING OF (i,mue|j,nue)
------------------------

IBATCH = 1 of  2
IBATCH = 2 of  2
Closing buffer KAO     (51.03 GB; CompressionRatio= 1.00)
Collecting buffer KAO 
N(AO-Batches) Done                         ...  86074665 
N(AO-Batches) Skipped                      ...  82329819 
N(IJ)-pairs Skipped                        ...         0 
TOTAL TIME for half transformation         ...  2539.675 sec
AO-integral generation                     ...   211.179 sec
Half transformation                        ...   423.464 sec
K-integral sorting                         ...  1682.194 sec

Finished integral transformation - now doing MP2 part

OPERATOR COMBINATION   0   0: ij=( 52..178, 52..178)
Process 10:   Internal MO 132
Process  4:   Internal MO  84
Process 13:   Internal MO 156
Process  1:   Internal MO  60
Process  7:   Internal MO 108
Process  1:   Internal MO  63
Process  5:   Internal MO  93
Process  3:   Internal MO  78
Process  8:   Internal MO 117
Process  1:   Internal MO  66
Process 14:   Internal MO 165
Process 11:   Internal MO 141
Process  6:   Internal MO 102
Process  4:   Internal MO  87
Process  3:   Internal MO  81
Process  0:   Internal MO  54
Process  9:   Internal MO 126
Process  0:   Internal MO  57
Process  7:   Internal MO 111
Process 12:   Internal MO 150
Process  5:   Internal MO  96
Process  4:   Internal MO  90
Process 10:   Internal MO 135
Process 15:   Internal MO 174
Process  2:   Internal MO  69
Process  6:   Internal MO 105
Process  2:   Internal MO  72
Process  7:   Internal MO 114
Process  8:   Internal MO 120
Process  5:   Internal MO  99
Process  2:   Internal MO  75
Process  9:   Internal MO 129
Process 13:   Internal MO 159
Process 11:   Internal MO 144
Process 14:   Internal MO 168
Process 10:   Internal MO 138
Process 12:   Internal MO 153
Process  8:   Internal MO 123
Process 15:   Internal MO 177
Process 11:   Internal MO 147
Process 13:   Internal MO 162
Process 14:   Internal MO 171
-----------------------------------------------
 MP2 CORRELATION ENERGY   :     -7.283916791 Eh
-----------------------------------------------


-------
TIMINGS
-------
Total time                : 2868.002 sec
Integral trafo            : 2541.832 sec ( 88.6%)
K(i,j)                    :   70.853 sec (  2.5%)
T(i,j)                    :    0.596 sec (  0.0%)

---------------------------------------
MP2 TOTAL ENERGY:    -2130.854115779 Eh
---------------------------------------

Maximum memory used throughout the entire MP2-calculation: 2275.3 MB

-------------------------   --------------------
FINAL SINGLE POINT ENERGY     -2130.854115778604
-------------------------   --------------------


                            ***************************************
                            *     ORCA property calculations      *
                            ***************************************


  WARNING: The energy has been calculated at the MP2 level but the densities
           used in the property calculations are still SCF densities
           MP2 response densities have not been calculated 
           use %mp2 Density relaxed end
           or  %mp2 Density unrelaxed end

                                    ---------------------
                                    Active property flags
                                    ---------------------
   (+) Dipole Moment


------------------------------------------------------------------------------
                       ORCA ELECTRIC PROPERTIES CALCULATION
------------------------------------------------------------------------------

Dipole Moment Calculation                       ... on
Quadrupole Moment Calculation                   ... off
Polarizability Calculation                      ... off
GBWName                                         ... /scratch/allen/tmpyp4_amber_gaff2/conf1/conf1/Conf161.orca.gbw
Electron density                                ... /scratch/allen/tmpyp4_amber_gaff2/conf1/conf1/Conf161.orca.scfp
The origin for moment calculation is the CENTER OF MASS  = ( 0.003468, -0.001751  0.001340)

-------------
DIPOLE MOMENT
-------------
                                X             Y             Z
Electronic contribution:      2.50509      -4.38524      -0.22073
Nuclear contribution   :      0.04723       0.21683       0.21766
                        -----------------------------------------
Total Dipole Moment    :      2.55232      -4.16841      -0.00308
                        -----------------------------------------
Magnitude (a.u.)       :      4.88774
Magnitude (Debye)      :     12.42365



--------------------
Rotational spectrum 
--------------------
 
Rotational constants in cm-1:     0.001501     0.001479     0.000760 
Rotational constants in MHz :    44.993599    44.338055    22.791503 

 Dipole components along the rotational axes: 
x,y,z [a.u.] :     3.335536    -3.572701     0.000417 
x,y,z [Debye]:     8.478259    -9.081085     0.001060 

 

Timings for individual modules:

Sum of individual times         ...     4588.004 sec (=  76.467 min)
GTO integral calculation        ...        3.512 sec (=   0.059 min)   0.1 %
SCF iterations                  ...     1698.855 sec (=  28.314 min)  37.0 %
MP2 module                      ...     2885.637 sec (=  48.094 min)  62.9 %
                             ****ORCA TERMINATED NORMALLY****
TOTAL RUN TIME: 0 days 1 hours 16 minutes 31 seconds 606 msec
# of primitive gaussian functions

