
                                 *****************
                                 * O   R   C   A *
                                 *****************

                                            #,                                       
                                            ###                                      
                                            ####                                     
                                            #####                                    
                                            ######                                   
                                           ########,                                 
                                     ,,################,,,,,                         
                               ,,#################################,,                 
                          ,,##########################################,,             
                       ,#########################################, ''#####,          
                    ,#############################################,,   '####,        
                  ,##################################################,,,,####,       
                ,###########''''           ''''###############################       
              ,#####''   ,,,,##########,,,,          '''####'''          '####       
            ,##' ,,,,###########################,,,                        '##       
           ' ,,###''''                  '''############,,,                           
         ,,##''                                '''############,,,,        ,,,,,,###''
      ,#''                                            '''#######################'''  
     '                                                          ''''####''''         
             ,#######,   #######,   ,#######,      ##                                
            ,#'     '#,  ##    ##  ,#'     '#,    #''#        ######   ,####,        
            ##       ##  ##   ,#'  ##            #'  '#       #        #'  '#        
            ##       ##  #######   ##           ,######,      #####,   #    #        
            '#,     ,#'  ##    ##  '#,     ,#' ,#      #,         ##   #,  ,#        
             '#######'   ##     ##  '#######'  #'      '#     #####' # '####'        



                  #######################################################
                  #                        -***-                        #
                  #          Department of theory and spectroscopy      #
                  #    Directorship and core code : Frank Neese         #
                  #        Max Planck Institute fuer Kohlenforschung    #
                  #                Kaiser Wilhelm Platz 1               #
                  #                 D-45470 Muelheim/Ruhr               #
                  #                      Germany                        #
                  #                                                     #
                  #                  All rights reserved                #
                  #                        -***-                        #
                  #######################################################


                         Program Version 5.0.4 -  RELEASE  -


 With contributions from (in alphabetic order):
   Daniel Aravena         : Magnetic Suceptibility
   Michael Atanasov       : Ab Initio Ligand Field Theory (pilot matlab implementation)
   Alexander A. Auer      : GIAO ZORA, VPT2 properties, NMR spectrum
   Ute Becker             : Parallelization
   Giovanni Bistoni       : ED, misc. LED, open-shell LED, HFLD
   Martin Brehm           : Molecular dynamics
   Dmytro Bykov           : SCF Hessian
   Vijay G. Chilkuri      : MRCI spin determinant printing, contributions to CSF-ICE
   Dipayan Datta          : RHF DLPNO-CCSD density
   Achintya Kumar Dutta   : EOM-CC, STEOM-CC
   Dmitry Ganyushin       : Spin-Orbit,Spin-Spin,Magnetic field MRCI
   Miquel Garcia          : C-PCM and meta-GGA Hessian, CC/C-PCM, Gaussian charge scheme
   Yang Guo               : DLPNO-NEVPT2, F12-NEVPT2, CIM, IAO-localization
   Andreas Hansen         : Spin unrestricted coupled pair/coupled cluster methods
   Benjamin Helmich-Paris : MC-RPA, TRAH-SCF, COSX integrals
   Lee Huntington         : MR-EOM, pCC
   Robert Izsak           : Overlap fitted RIJCOSX, COSX-SCS-MP3, EOM
   Marcus Kettner         : VPT2
   Christian Kollmar      : KDIIS, OOCD, Brueckner-CCSD(T), CCSD density, CASPT2, CASPT2-K
   Simone Kossmann        : Meta GGA functionals, TD-DFT gradient, OOMP2, MP2 Hessian
   Martin Krupicka        : Initial AUTO-CI
   Lucas Lang             : DCDCAS
   Marvin Lechner         : AUTO-CI (C++ implementation), FIC-MRCC
   Dagmar Lenk            : GEPOL surface, SMD
   Dimitrios Liakos       : Extrapolation schemes; Compound Job, initial MDCI parallelization
   Dimitrios Manganas     : Further ROCIS development; embedding schemes
   Dimitrios Pantazis     : SARC Basis sets
   Anastasios Papadopoulos: AUTO-CI, single reference methods and gradients
   Taras Petrenko         : DFT Hessian,TD-DFT gradient, ASA, ECA, R-Raman, ABS, FL, XAS/XES, NRVS
   Peter Pinski           : DLPNO-MP2, DLPNO-MP2 Gradient
   Christoph Reimann      : Effective Core Potentials
   Marius Retegan         : Local ZFS, SOC
   Christoph Riplinger    : Optimizer, TS searches, QM/MM, DLPNO-CCSD(T), (RO)-DLPNO pert. Triples
   Tobias Risthaus        : Range-separated hybrids, TD-DFT gradient, RPA, STAB
   Michael Roemelt        : Original ROCIS implementation
   Masaaki Saitow         : Open-shell DLPNO-CCSD energy and density
   Barbara Sandhoefer     : DKH picture change effects
   Avijit Sen             : IP-ROCIS
   Kantharuban Sivalingam : CASSCF convergence, NEVPT2, FIC-MRCI
   Bernardo de Souza      : ESD, SOC TD-DFT
   Georgi Stoychev        : AutoAux, RI-MP2 NMR, DLPNO-MP2 response
   Willem Van den Heuvel  : Paramagnetic NMR
   Boris Wezisla          : Elementary symmetry handling
   Frank Wennmohs         : Technical directorship


 We gratefully acknowledge several colleagues who have allowed us to
 interface, adapt or use parts of their codes:
   Stefan Grimme, W. Hujo, H. Kruse, P. Pracht,  : VdW corrections, initial TS optimization,
                  C. Bannwarth, S. Ehlert          DFT functionals, gCP, sTDA/sTD-DF
   Ed Valeev, F. Pavosevic, A. Kumar             : LibInt (2-el integral package), F12 methods
   Garnet Chan, S. Sharma, J. Yang, R. Olivares  : DMRG
   Ulf Ekstrom                                   : XCFun DFT Library
   Mihaly Kallay                                 : mrcc  (arbitrary order and MRCC methods)
   Jiri Pittner, Ondrej Demel                    : Mk-CCSD
   Frank Weinhold                                : gennbo (NPA and NBO analysis)
   Christopher J. Cramer and Donald G. Truhlar   : smd solvation model
   Lars Goerigk                                  : TD-DFT with DH, B97 family of functionals
   V. Asgeirsson, H. Jonsson                     : NEB implementation
   FAccTs GmbH                                   : IRC, NEB, NEB-TS, DLPNO-Multilevel, CI-OPT
                                                   MM, QMMM, 2- and 3-layer-ONIOM, Crystal-QMMM,
                                                   LR-CPCM, SF, NACMEs, symmetry and pop. for TD-DFT,
                                                   nearIR, NL-DFT gradient (VV10), updates on ESD,
                                                   ML-optimized integration grids
   S Lehtola, MJT Oliveira, MAL Marques          : LibXC Library
   Liviu Ungur et al                             : ANISO software


 Your calculation uses the libint2 library for the computation of 2-el integrals
 For citations please refer to: http://libint.valeyev.net

 Your ORCA version has been built with support for libXC version: 5.1.0
 For citations please refer to: https://tddft.org/programs/libxc/

 This ORCA versions uses:
   CBLAS   interface :  Fast vector & matrix operations
   LAPACKE interface :  Fast linear algebra routines
   SCALAPACK package :  Parallel linear algebra routines
   Shared memory     :  Shared parallel matrices
   BLAS/LAPACK       :  OpenBLAS 0.3.15  USE64BITINT DYNAMIC_ARCH NO_AFFINITY Sandybridge SINGLE_THREADED
        Core in use  :  Sandybridge
   Copyright (c) 2011-2014, The OpenBLAS Project


================================================================================

----- Orbital basis set information -----
Your calculation utilizes the basis: cc-pVDZ 
       H, B-Ne : Obtained from the ccRepo (grant-hill.group.shef.ac.uk/ccrepo) Feb. 2017
                 T. H. Dunning, Jr., J. Chem. Phys. 90, 1007 (1989)
            He : Obtained from the ccRepo (grant-hill.group.shef.ac.uk/ccrepo) Feb. 2017
                 D. E. Woon, T. H. Dunning, Jr., J. Chem. Phys. 100, 2975 (1994)
  Li-Be, Na-Mg : Obtained from the ccRepo (grant-hill.group.shef.ac.uk/ccrepo) Feb. 2017
                 B. P. Prascher, D. E. Woon, K. A. Peterson, T. H. Dunning, Jr., A. K. Wilson, Theor. Chem. Acc. 128, 69 (2011)
         Al-Ar : Obtained from the ccRepo (grant-hill.group.shef.ac.uk/ccrepo) Feb. 2017
                 D. E. Woon, T. H. Dunning, Jr., J. Chem. Phys. 98, 1358 (1993)
            Ca : Obtained from the Peterson Research Group Website (tyr0.chem.wsu.edu/~kipeters) Feb. 2017
                 J. Koput, K. A. Peterson, J. Phys. Chem. 106, 9595 (2002)
         Sc-Zn : Obtained from the ccRepo (grant-hill.group.shef.ac.uk/ccrepo) Feb. 2017
                 N. B. Balabanov, K. A. Peterson, J. Chem. Phys. 123, 064107 (2005)
                 N. B. Balabanov, K. A. Peterson, J. Chem. Phys. 125, 074110 (2006)
         Ga-Kr : Obtained from the ccRepo (grant-hill.group.shef.ac.uk/ccrepo) Feb. 2017
                 A. K. Wilson, D. E. Woon, K. A. Peterson, T. H. Dunning, Jr., J. Chem. Phys. 110, 7667 (1999)

================================================================================
                                        WARNINGS
                       Please study these warnings very carefully!
================================================================================


WARNING: No MP2 level density has been requested!
         To caclulate MP2 level properties use
         %mp2 Density relaxed end
         or
         %mp2 Density unrelaxed end

WARNING: Post HF methods need fully converged wavefunctions
  ===> : Setting SCFConvForced true
         You can overwrite this default with %scf ConvForced false 


INFO   : the flag for use of the SHARK integral package has been found!

================================================================================
                                       INPUT FILE
================================================================================
NAME = /scratch/allen/tmpyp4_amber_gaff2/2.Mdgx/conf11/conf11/Conf303.orca
|  1> ! PAL2
|  2> ! mp2 cc-pvdz TightSCF  NoKeepInts
|  3> 
|  4> %scf
|  5>   MaxCore 2000
|  6> end
|  7> %mp2
|  8>   MaxCore 2000
|  9> end
| 10> * xyz 0 1
| 11>    C       -3.50000         6.15600         1.08900
| 12>    C        1.47400         4.04100         0.05700
| 13>    C       -2.80200         4.09300         0.04900
| 14>    C       -3.73200         4.35200        -0.97000
| 15>    C       -4.50600         5.49400        -0.92800
| 16>    C       -5.20500         7.60800         0.08800
| 17>    C        0.13200         4.30700         0.06100
| 18>    C       -0.56900         3.05600         0.04700
| 19>    C        1.64900         2.61800         0.02300
| 20>    C       -2.69900         5.03000         1.08900
| 21>    N       -4.38700         6.37500         0.09200
| 22>    N        0.38800         2.06700         0.02500
| 23>    N       -2.01000         0.39500        -0.07500
| 24>    N       -0.38800        -2.07400        -0.02700
| 25>    N        2.01000        -0.40100         0.06500
| 26>    C       -1.96000         2.86100         0.02400
| 27>    C       -2.62300         1.61500        -0.01800
| 28>    C       -5.57300        -4.32900         1.06600
| 29>    C       -4.07300         1.47100         0.05600
| 30>    C       -4.10600        -2.75600        -0.02600
| 31>    C       -4.99500        -2.75700        -1.11100
| 32>    C       -6.13200        -3.54200        -1.07600
| 33>    C       -7.65100        -5.11300         0.04000
| 34>    C       -4.32400         0.14100         0.03700
| 35>    C       -3.02500        -0.52000        -0.04800
| 36>    C       -4.42200        -3.56600         1.07500
| 37>    N       -6.40700        -4.31300         0.00100
| 38>    C       -2.86700        -1.92200        -0.04000
| 39>    C       -1.65000        -2.62400        -0.02700
| 40>    C        3.56800        -6.14200        -1.04000
| 41>    C       -1.47600        -4.04900        -0.03400
| 42>    C        2.80300        -4.09900        -0.00800
| 43>    C        3.65700        -4.38400         1.06900
| 44>    C        4.42700        -5.53000         1.05900
| 45>    C        5.24500        -7.58800         0.01400
| 46>    C       -0.13400        -4.31500        -0.02200
| 47>    C        0.56800        -3.06400        -0.02700
| 48>    C        2.77500        -5.01200        -1.07400
| 49>    N        4.37600        -6.39100         0.01700
| 50>    C        1.95900        -2.86900        -0.00900
| 51>    C        2.62100        -1.62200         0.00900
| 52>    C        5.54300         4.33900        -1.13000
| 53>    C        4.07000        -1.47900        -0.09400
| 54>    C        4.10400         2.75100        -0.02100
| 55>    C        5.02700         2.72900         1.03600
| 56>    C        6.16600         3.50900         0.97800
| 57>    C        7.61900         5.15300        -0.11500
| 58>    C        4.32100        -0.14800        -0.09200
| 59>    C        3.02500         0.51400         0.01500
| 60>    C        4.38700         3.58200        -1.11500
| 61>    C        2.86600         1.91600         0.01300
| 62>    N        6.41300         4.29600        -0.09500
| 63>    H       -3.46400         6.89800         1.87700
| 64>    H        2.27400         4.76600         0.08100
| 65>    H       -3.85100         3.67100        -1.80400
| 66>    H       -5.23000         5.74000        -1.69500
| 67>    H       -4.69000         8.37400        -0.49600
| 68>    H       -6.17400         7.38500        -0.35800
| 69>    H       -5.33600         7.94500         1.11600
| 70>    H       -0.33200         5.28200         0.06900
| 71>    H       -2.01000         4.88000         1.91200
| 72>    H        0.18200         1.07200         0.00500
| 73>    H       -0.18300        -1.08000        -0.02100
| 74>    H       -5.86400        -4.96200         1.89500
| 75>    H       -4.79400         2.27200         0.13900
| 76>    H       -4.80000        -2.16000        -1.99400
| 77>    H       -6.84100        -3.58200        -1.89300
| 78>    H       -8.42800        -4.53600         0.54600
| 79>    H       -7.95600        -5.33700        -0.98100
| 80>    H       -7.45600        -6.03700         0.58400
| 81>    H       -5.28700        -0.34400         0.10000
| 82>    H       -3.78000        -3.60100         1.94700
| 83>    H        3.58700        -6.86800        -1.84300
| 84>    H       -2.27600        -4.77400        -0.05000
| 85>    H        3.71400        -3.72400         1.92600
| 86>    H        5.09200        -5.79500         1.87100
| 87>    H        6.20500        -7.32900        -0.43900
| 88>    H        5.39300        -7.91700         1.04200
| 89>    H        4.75900        -8.37300        -0.56400
| 90>    H        0.32900        -5.29000        -0.00800
| 91>    H        2.14600        -4.84200        -1.94000
| 92>    H        5.80800         4.98600        -1.95600
| 93>    H        4.78800        -2.28100        -0.18500
| 94>    H        4.86000         2.11400         1.91200
| 95>    H        6.90100         3.53100         1.77200
| 96>    H        7.38300         6.10900         0.35600
| 97>    H        8.41400         4.65200         0.43500
| 98>    H        7.92100         5.31000        -1.15000
| 99>    H        5.28300         0.33600        -0.17900
|100>    H        3.72000         3.63200        -1.96700
|101> *
|102> 
|103>                          ****END OF INPUT****
================================================================================

                       ****************************
                       * Single Point Calculation *
                       ****************************

---------------------------------
CARTESIAN COORDINATES (ANGSTROEM)
---------------------------------
  C     -3.500000    6.156000    1.089000
  C      1.474000    4.041000    0.057000
  C     -2.802000    4.093000    0.049000
  C     -3.732000    4.352000   -0.970000
  C     -4.506000    5.494000   -0.928000
  C     -5.205000    7.608000    0.088000
  C      0.132000    4.307000    0.061000
  C     -0.569000    3.056000    0.047000
  C      1.649000    2.618000    0.023000
  C     -2.699000    5.030000    1.089000
  N     -4.387000    6.375000    0.092000
  N      0.388000    2.067000    0.025000
  N     -2.010000    0.395000   -0.075000
  N     -0.388000   -2.074000   -0.027000
  N      2.010000   -0.401000    0.065000
  C     -1.960000    2.861000    0.024000
  C     -2.623000    1.615000   -0.018000
  C     -5.573000   -4.329000    1.066000
  C     -4.073000    1.471000    0.056000
  C     -4.106000   -2.756000   -0.026000
  C     -4.995000   -2.757000   -1.111000
  C     -6.132000   -3.542000   -1.076000
  C     -7.651000   -5.113000    0.040000
  C     -4.324000    0.141000    0.037000
  C     -3.025000   -0.520000   -0.048000
  C     -4.422000   -3.566000    1.075000
  N     -6.407000   -4.313000    0.001000
  C     -2.867000   -1.922000   -0.040000
  C     -1.650000   -2.624000   -0.027000
  C      3.568000   -6.142000   -1.040000
  C     -1.476000   -4.049000   -0.034000
  C      2.803000   -4.099000   -0.008000
  C      3.657000   -4.384000    1.069000
  C      4.427000   -5.530000    1.059000
  C      5.245000   -7.588000    0.014000
  C     -0.134000   -4.315000   -0.022000
  C      0.568000   -3.064000   -0.027000
  C      2.775000   -5.012000   -1.074000
  N      4.376000   -6.391000    0.017000
  C      1.959000   -2.869000   -0.009000
  C      2.621000   -1.622000    0.009000
  C      5.543000    4.339000   -1.130000
  C      4.070000   -1.479000   -0.094000
  C      4.104000    2.751000   -0.021000
  C      5.027000    2.729000    1.036000
  C      6.166000    3.509000    0.978000
  C      7.619000    5.153000   -0.115000
  C      4.321000   -0.148000   -0.092000
  C      3.025000    0.514000    0.015000
  C      4.387000    3.582000   -1.115000
  C      2.866000    1.916000    0.013000
  N      6.413000    4.296000   -0.095000
  H     -3.464000    6.898000    1.877000
  H      2.274000    4.766000    0.081000
  H     -3.851000    3.671000   -1.804000
  H     -5.230000    5.740000   -1.695000
  H     -4.690000    8.374000   -0.496000
  H     -6.174000    7.385000   -0.358000
  H     -5.336000    7.945000    1.116000
  H     -0.332000    5.282000    0.069000
  H     -2.010000    4.880000    1.912000
  H      0.182000    1.072000    0.005000
  H     -0.183000   -1.080000   -0.021000
  H     -5.864000   -4.962000    1.895000
  H     -4.794000    2.272000    0.139000
  H     -4.800000   -2.160000   -1.994000
  H     -6.841000   -3.582000   -1.893000
  H     -8.428000   -4.536000    0.546000
  H     -7.956000   -5.337000   -0.981000
  H     -7.456000   -6.037000    0.584000
  H     -5.287000   -0.344000    0.100000
  H     -3.780000   -3.601000    1.947000
  H      3.587000   -6.868000   -1.843000
  H     -2.276000   -4.774000   -0.050000
  H      3.714000   -3.724000    1.926000
  H      5.092000   -5.795000    1.871000
  H      6.205000   -7.329000   -0.439000
  H      5.393000   -7.917000    1.042000
  H      4.759000   -8.373000   -0.564000
  H      0.329000   -5.290000   -0.008000
  H      2.146000   -4.842000   -1.940000
  H      5.808000    4.986000   -1.956000
  H      4.788000   -2.281000   -0.185000
  H      4.860000    2.114000    1.912000
  H      6.901000    3.531000    1.772000
  H      7.383000    6.109000    0.356000
  H      8.414000    4.652000    0.435000
  H      7.921000    5.310000   -1.150000
  H      5.283000    0.336000   -0.179000
  H      3.720000    3.632000   -1.967000

----------------------------
CARTESIAN COORDINATES (A.U.)
----------------------------
  NO LB      ZA    FRAG     MASS         X           Y           Z
   0 C     6.0000    0    12.011   -6.614041   11.633154    2.057912
   1 C     6.0000    0    12.011    2.785456    7.636383    0.107714
   2 C     6.0000    0    12.011   -5.295013    7.734649    0.092597
   3 C     6.0000    0    12.011   -7.052458    8.224088   -1.833034
   4 C     6.0000    0    12.011   -8.515106   10.382155   -1.753666
   5 C     6.0000    0    12.011   -9.836025   14.377036    0.166296
   6 C     6.0000    0    12.011    0.249444    8.139050    0.115273
   7 C     6.0000    0    12.011   -1.075254    5.775003    0.088817
   8 C     6.0000    0    12.011    3.116158    4.947303    0.043464
   9 C     6.0000    0    12.011   -5.100371    9.505322    2.057912
  10 N     7.0000    0    14.007   -8.290229   12.047004    0.173855
  11 N     7.0000    0    14.007    0.733214    3.906064    0.047243
  12 N     7.0000    0    14.007   -3.798350    0.746442   -0.141729
  13 N     7.0000    0    14.007   -0.733214   -3.919292   -0.051023
  14 N     7.0000    0    14.007    3.798350   -0.757780    0.122832
  15 C     6.0000    0    12.011   -3.703863    5.406506    0.045353
  16 C     6.0000    0    12.011   -4.956752    3.051908   -0.034015
  17 C     6.0000    0    12.011  -10.531444   -8.180624    2.014448
  18 C     6.0000    0    12.011   -7.696855    2.779787    0.105825
  19 C     6.0000    0    12.011   -7.759216   -5.208085   -0.049133
  20 C     6.0000    0    12.011   -9.439182   -5.209975   -2.099486
  21 C     6.0000    0    12.011  -11.587801   -6.693410   -2.033345
  22 C     6.0000    0    12.011  -14.458295   -9.662170    0.075589
  23 C     6.0000    0    12.011   -8.171176    0.266451    0.069920
  24 C     6.0000    0    12.011   -5.716422   -0.982658   -0.090707
  25 C     6.0000    0    12.011   -8.356369   -6.738763    2.031456
  26 N     7.0000    0    14.007  -12.107475   -8.150389    0.001890
  27 C     6.0000    0    12.011   -5.417845   -3.632054   -0.075589
  28 C     6.0000    0    12.011   -3.118048   -4.958641   -0.051023
  29 C     6.0000    0    12.011    6.742543  -11.606698   -1.965315
  30 C     6.0000    0    12.011   -2.789236   -7.651501   -0.064251
  31 C     6.0000    0    12.011    5.296902   -7.745987   -0.015118
  32 C     6.0000    0    12.011    6.910728   -8.284559    2.020117
  33 C     6.0000    0    12.011    8.365818  -10.450186    2.001220
  34 C     6.0000    0    12.011    9.911614  -14.339242    0.026456
  35 C     6.0000    0    12.011   -0.253223   -8.154168   -0.041574
  36 C     6.0000    0    12.011    1.073364   -5.790121   -0.051023
  37 C     6.0000    0    12.011    5.243990   -9.471307   -2.029566
  38 N     7.0000    0    14.007    8.269442  -12.077240    0.032125
  39 C     6.0000    0    12.011    3.701973   -5.421624   -0.017008
  40 C     6.0000    0    12.011    4.952972   -3.065136    0.017008
  41 C     6.0000    0    12.011   10.474752    8.199522   -2.135391
  42 C     6.0000    0    12.011    7.691185   -2.794905   -0.177634
  43 C     6.0000    0    12.011    7.755436    5.198637   -0.039684
  44 C     6.0000    0    12.011    9.499653    5.157063    1.957756
  45 C     6.0000    0    12.011   11.652051    6.631049    1.848152
  46 C     6.0000    0    12.011   14.397823    9.737759   -0.217319
  47 C     6.0000    0    12.011    8.165507   -0.279679   -0.173855
  48 C     6.0000    0    12.011    5.716422    0.971319    0.028346
  49 C     6.0000    0    12.011    8.290229    6.768999   -2.107045
  50 C     6.0000    0    12.011    5.415955    3.620715    0.024566
  51 N     7.0000    0    14.007   12.118814    8.118263   -0.179524
  52 H     1.0000    0     1.008   -6.546011   13.035331    3.547016
  53 H     1.0000    0     1.008    4.297237    9.006435    0.153068
  54 H     1.0000    0     1.008   -7.277335    6.937185   -3.409066
  55 H     1.0000    0     1.008   -9.883268   10.847028   -3.203086
  56 H     1.0000    0     1.008   -8.862816   15.824567   -0.937304
  57 H     1.0000    0     1.008  -11.667169   13.955627   -0.676522
  58 H     1.0000    0     1.008  -10.083579   15.013874    2.108934
  59 H     1.0000    0     1.008   -0.627389    9.981533    0.130391
  60 H     1.0000    0     1.008   -3.798350    9.221864    3.613156
  61 H     1.0000    0     1.008    0.343930    2.025786    0.009449
  62 H     1.0000    0     1.008   -0.345820   -2.040904   -0.039684
  63 H     1.0000    0     1.008  -11.081354   -9.376821    3.581031
  64 H     1.0000    0     1.008   -9.059347    4.293458    0.262672
  65 H     1.0000    0     1.008   -9.070685   -4.081808   -3.768114
  66 H     1.0000    0     1.008  -12.927616   -6.768999   -3.577252
  67 H     1.0000    0     1.008  -15.926612   -8.571798    1.031790
  68 H     1.0000    0     1.008  -15.034661  -10.085468   -1.853821
  69 H     1.0000    0     1.008  -14.089798  -11.408277    1.103600
  70 H     1.0000    0     1.008   -9.990982   -0.650066    0.188973
  71 H     1.0000    0     1.008   -7.143165   -6.804904    3.679297
  72 H     1.0000    0     1.008    6.778448  -12.978639   -3.482765
  73 H     1.0000    0     1.008   -4.301017   -9.021553   -0.094486
  74 H     1.0000    0     1.008    7.018443   -7.037340    3.639613
  75 H     1.0000    0     1.008    9.622485  -10.950963    3.535678
  76 H     1.0000    0     1.008   11.725751  -13.849803   -0.829590
  77 H     1.0000    0     1.008   10.191293  -14.960962    1.969095
  78 H     1.0000    0     1.008    8.993207  -15.822677   -1.065806
  79 H     1.0000    0     1.008    0.621720   -9.996651   -0.015118
  80 H     1.0000    0     1.008    4.055352   -9.150054   -3.666069
  81 H     1.0000    0     1.008   10.975529    9.422175   -3.696304
  82 H     1.0000    0     1.008    9.048009   -4.310465   -0.349599
  83 H     1.0000    0     1.008    9.184069    3.994881    3.613156
  84 H     1.0000    0     1.008   13.041000    6.672623    3.348595
  85 H     1.0000    0     1.008   13.951848   11.544337    0.672743
  86 H     1.0000    0     1.008   15.900156    8.791006    0.822031
  87 H     1.0000    0     1.008   14.968521   10.034446   -2.173185
  88 H     1.0000    0     1.008    9.983423    0.634948   -0.338261
  89 H     1.0000    0     1.008    7.029781    6.863485   -3.717091

--------------------------------
INTERNAL COORDINATES (ANGSTROEM)
--------------------------------
 C      0   0   0     0.000000000000     0.00000000     0.00000000
 C      1   0   0     5.502628917163     0.00000000     0.00000000
 C      1   2   0     2.413456649704    47.87166127     0.00000000
 C      3   1   2     1.403688711930    87.90748761   226.60691101
 C      4   3   1     1.380218823231   120.14014976     0.11669914
 C      5   4   3     2.447417618634   152.55840308     1.62199743
 C      2   1   3     1.368114030335    15.85487277    16.64557294
 C      7   2   1     1.434084376876   108.05010202   221.90338160
 C      2   1   3     1.434123425651   119.74427800   330.57562951
 C      1   2   3     1.381838268395    33.15699825    41.75398172
 N      1   2   3     1.352308766517   121.12305572   301.98366870
 N      9   2   1     1.376127174356   106.58526707    11.19251703
 N     12   9   2     2.925062050624   168.53581413   171.12065651
 N     13  12   9     2.954513327098    91.55032014    11.12112580
 N     14  13  12     2.925371258490    88.43092389   359.84326247
 C      8   7   2     1.404790019896   127.24786865   181.11170171
 C     13  12   9     1.366535034311    81.72106996   188.00453233
 C     14  13  12     5.758810554272    80.56209567   166.76250791
 C     17  13  12     1.459010623676   111.08861209   183.82872609
 C     18  14  13     2.412235892279    27.27532823    36.33507194
 C     20  18  14     1.402692767501    87.95206320   148.94598259
 C     21  20  18     1.382106725257   120.14573887   359.70382047
 C     18  14  13     2.446510985056   144.15733107    82.80075377
 C     19  17  13     1.353610726908   106.29293361   359.75308708
 C     13  12   9     1.366813447402   172.21332906    33.46711076
 C     18  14  13     1.380960173213    15.08449437   309.23336894
 N     22  21  20     1.352773077792   120.73759875     0.27865223
 C     25  13  17     1.410897586645   125.60330303   182.37774668
 C     14  13  12     1.376642291955    80.24689249   177.85461986
 C     14  13  12     5.764089607215   164.51507311   312.20821879
 C     29  14  13     1.435600919476   106.58649366   178.76395472
 C     30  14  13     2.413316804732    27.10625047    82.12560436
 C     32  30  14     1.403734305344    87.90059683   149.76154742
 C     33  32  30     1.380694028378   120.14881443   359.74174632
 C     34  33  32     2.448777858443   152.49203239     2.45173620
 C     31  29  14     1.368160809262   108.16950133     0.70383075
 C     14  13  12     1.376239804685   169.26375223   353.09862627
 C     30  14  13     1.380907310430    14.68948582   353.70041132
 N     34  33  32     1.352658863128   120.85575621     0.19603406
 C     37  14  29     1.404717053360   126.01551127   180.90772073
 C     15  14  13     1.366491126938    81.61824056   183.09049352
 C      2   1   3     4.249062720177   153.00692473   140.65772305
 C     41  15  14     1.459677704153   111.05201287   175.08990246
 C     42   2   1     2.412953791518    41.78584867   164.96885135
 C     44  42   2     1.403446472082    87.95153797   233.97558675
 C     45  44  42     1.381696421071   120.11137308     0.19721020
 C     42   2   1     2.450019795838   135.97209175    75.28370045
 C     43  41  15     1.354461516618   106.26758155     0.30894352
 C     15  14  13     1.367461151185   171.87382904   332.35056460
 C     42   2   1     1.381886391857    32.59078432   213.82413054
 C      9   2   1     1.404988612053   126.98745415   192.19685456
 N     42   2   1     1.352765315936   113.57249190   103.02028965
 H      1   2   3     1.082960756445   111.70116492   158.59887518
 H      2   1   3     1.079907866440   114.04320373   161.55202100
 H      4   3   1     1.083271895694   121.04318598   179.56083464
 H      5   4   3     1.083042473775   122.76942087   179.47127417
 H      6   5   4     1.092262331127   104.42637211   100.12706858
 H      6   5   4     1.089773370935    84.68138996   209.56085678
 H      6   5   4     1.089731159507   133.87357323   322.36757072
 H      7   2   1     1.079807853278   126.66122480    42.14179539
 H     10   1   2     1.083766580035   118.77029214    80.08908155
 H     12   9   2     1.016297692608   125.29023241   180.00180175
 H     14  13  12     1.014936943854    44.97226959   359.42596618
 H     18  14  13     1.082871645210   128.03556573   234.20482432
 H     19  17  13     1.080893611786   126.41830519   178.11313280
 H     21  20  18     1.083569563987   121.05669627   180.67006309
 H     22  21  20     1.082483256222   122.73097286   180.59748951
 H     23  18  14     1.092105306278   103.92715769   234.93429879
 H     23  18  14     1.088871893291   134.19244188    12.25587044
 H     23  18  14     1.089833473518    84.85857450   125.45241208
 H     24  19  17     1.080075460327   127.28078426   178.44613241
 H     26  18  14     1.083408048706   118.76995697   244.94906660
 H     30  14  13     1.082703098730   127.99711412   279.66882698
 H     31  29  14     1.079759695488   125.22293469   180.92530585
 H     33  32  30     1.083188810873   121.01964473   180.74284758
 H     34  33  32     1.082494341787   122.70821597   180.59516895
 H     35  34  33     1.092652735319   105.73575241    97.19771933
 H     35  34  33     1.089462711615    84.05943581   206.43036958
 H     35  34  33     1.089268102902   133.08365142   318.50306270
 H     36  31  29     1.079439669458   126.61599965   178.98859863
 H     38  30  73     1.083742127999   118.77264435   359.90091293
 H     42   2   1     1.082178358682   119.31790784   319.65182010
 H     43  41  15     1.080281907652   126.36969097   182.06329380
 H     45  44  42     1.083277434455   121.10105945   179.58025624
 H     46  45  44     1.082194529648   122.72144639   179.46906377
 H     47  42   2     1.091546151109   106.65128841   315.16475048
 H     47  42   2     1.088818625851   132.46019523    94.52397119
 H     47  42   2     1.089531091801    83.63838232   206.04504406
 H     48  43  41     1.080402239909   127.23657387   181.62955349
 H     50  42   2     1.083186502870   118.77001737    94.71359229

---------------------------
INTERNAL COORDINATES (A.U.)
---------------------------
 C      0   0   0     0.000000000000     0.00000000     0.00000000
 C      1   0   0    10.398461670034     0.00000000     0.00000000
 C      1   2   0     4.560772104031    47.87166127     0.00000000
 C      3   1   2     2.652587242825    87.90748761   226.60691101
 C      4   3   1     2.608235580789   120.14014976     0.11669914
 C      5   4   3     4.624949034552   152.55840308     1.62199743
 C      2   1   3     2.585360837309    15.85487277    16.64557294
 C      7   2   1     2.710026725231   108.05010202   221.90338160
 C      2   1   3     2.710100516721   119.74427800   330.57562951
 C      1   2   3     2.611295888638    33.15699825    41.75398172
 N      1   2   3     2.555493217219   121.12305572   301.98366870
 N      9   2   1     2.600503484979   106.58526707    11.19251703
 N     12   9   2     5.527566200405   168.53581413   171.12065651
 N     13  12   9     5.583221047236    91.55032014    11.12112580
 N     14  13  12     5.528150518591    88.43092389   359.84326247
 C      8   7   2     2.654668413270   127.24786865   181.11170171
 C     13  12   9     2.582376967257    81.72106996   188.00453233
 C     14  13  12    10.882574804710    80.56209567   166.76250791
 C     17  13  12     2.757130505230   111.08861209   183.82872609
 C     18  14  13     4.558465206823    27.27532823    36.33507194
 C     20  18  14     2.650705180609    87.95206320   148.94598259
 C     21  20  18     2.611803198586   120.14573887   359.70382047
 C     18  14  13     4.623235745386   144.15733107    82.80075377
 C     19  17  13     2.557953565794   106.29293361   359.75308708
 C     13  12   9     2.582903091751   172.21332906    33.46711076
 C     18  14  13     2.609636529225    15.08449437   309.23336894
 N     22  21  20     2.556370638369   120.73759875     0.27865223
 C     25  13  17     2.666210041769   125.60330303   182.37774668
 C     14  13  12     2.601476916169    80.24689249   177.85461986
 C     14  13  12    10.892550769017   164.51507311   312.20821879
 C     29  14  13     2.712892575415   106.58649366   178.76395472
 C     30  14  13     4.560507835333    27.10625047    82.12560436
 C     32  30  14     2.652673401891    87.90059683   149.76154742
 C     33  32  30     2.609133588376   120.14881443   359.74174632
 C     34  33  32     4.627519515267   152.49203239     2.45173620
 C     31  29  14     2.585449236669   108.16950133     0.70383075
 C     14  13  12     2.600716325456   169.26375223   353.09862627
 C     30  14  13     2.609536633043    14.68948582   353.70041132
 N     34  33  32     2.556154803934   120.85575621     0.19603406
 C     37  14  29     2.654530526499   126.01551127   180.90772073
 C     15  14  13     2.582293994346    81.61824056   183.09049352
 C      2   1   3     8.029564866989   153.00692473   140.65772305
 C     41  15  14     2.758391104639   111.05201287   175.08990246
 C     42   2   1     4.559821839776    41.78584867   164.96885135
 C     44  42   2     2.652129475853    87.95153797   233.97558675
 C     45  44  42     2.611027836043   120.11137308     0.19721020
 C     42   2   1     4.629866436820   135.97209175    75.28370045
 C     43  41  15     2.559561325344   106.26758155     0.30894352
 C     15  14  13     2.584127074516   171.87382904   332.35056460
 C     42   2   1     2.611386828803    32.59078432   213.82413054
 C      9   2   1     2.655043698059   126.98745415   192.19685456
 N     42   2   1     2.556355970587   113.57249190   103.02028965
 H      1   2   3     2.046499243465   111.70116492   158.59887518
 H      2   1   3     2.040730117440   114.04320373   161.55202100
 H      4   3   1     2.047087211435   121.04318598   179.56083464
 H      5   4   3     2.046653666839   122.76942087   179.47127417
 H      6   5   4     2.064076672229   104.42637211   100.12706858
 H      6   5   4     2.059373219108    84.68138996   209.56085678
 H      6   5   4     2.059293451068   133.87357323   322.36757072
 H      7   2   1     2.040541119952   126.66122480    42.14179539
 H     10   1   2     2.048022029362   118.77029214    80.08908155
 H     12   9   2     1.920524309565   125.29023241   180.00180175
 H     14  13  12     1.917952867083    44.97226959   359.42596618
 H     18  14  13     2.046330847636   128.03556573   234.20482432
 H     19  17  13     2.042592906181   126.41830519   178.11313280
 H     21  20  18     2.047649722989   121.05669627   180.67006309
 H     22  21  20     2.045596898814   122.73097286   180.59748951
 H     23  18  14     2.063779938267   103.92715769   234.93429879
 H     23  18  14     2.057669673245   134.19244188    12.25587044
 H     23  18  14     2.059486796529    84.85857450   125.45241208
 H     24  19  17     2.041046823986   127.28078426   178.44613241
 H     26  18  14     2.047344503340   118.76995697   244.94906660
 H     30  14  13     2.046012340948   127.99711412   279.66882698
 H     31  29  14     2.040450114918   125.22293469   180.92530585
 H     33  32  30     2.046930203877   121.01964473   180.74284758
 H     34  33  32     2.045617847496   122.70821597   180.59516895
 H     35  34  33     2.064814429233   105.73575241    97.19771933
 H     35  34  33     2.058786158072    84.05943581   206.43036958
 H     35  34  33     2.058418400901   133.08365142   318.50306270
 H     36  31  29     2.039845353366   126.61599965   178.98859863
 H     38  30  73     2.047975821711   118.77264435   359.90091293
 H     42   2   1     2.045020725966   119.31790784   319.65182010
 H     43  41  15     2.041436952892   126.36969097   182.06329380
 H     45  44  42     2.047097678177   121.10105945   179.58025624
 H     46  45  44     2.045051284662   122.72144639   179.46906377
 H     47  42   2     2.062723288131   106.65128841   315.16475048
 H     47  42   2     2.057569012371   132.46019523    94.52397119
 H     47  42   2     2.058915377895    83.63838232   206.04504406
 H     48  43  41     2.041664347903   127.23657387   181.62955349
 H     50  42   2     2.046925842384   118.77001737    94.71359229

---------------------
BASIS SET INFORMATION
---------------------
There are 3 groups of distinct atoms

 Group   1 Type C   : 17s4p1d contracted to 3s2p1d pattern {881/31/1}
 Group   2 Type N   : 17s4p1d contracted to 3s2p1d pattern {881/31/1}
 Group   3 Type H   : 4s1p contracted to 2s1p pattern {31/1}

Atom   0C    basis set group =>   1
Atom   1N    basis set group =>   2
Atom   2C    basis set group =>   1
Atom   3N    basis set group =>   2
Atom   4C    basis set group =>   1
Atom   5N    basis set group =>   2
Atom   6C    basis set group =>   1
Atom   7N    basis set group =>   2
Atom   8C    basis set group =>   1
Atom   9N    basis set group =>   2
Atom  10C    basis set group =>   1
Atom  11N    basis set group =>   2
Atom  12C    basis set group =>   1
Atom  13N    basis set group =>   2
Atom  14C    basis set group =>   1
Atom  15N    basis set group =>   2
Atom  16C    basis set group =>   1
Atom  17C    basis set group =>   1
Atom  18C    basis set group =>   1
Atom  19C    basis set group =>   1
Atom  20C    basis set group =>   1
Atom  21C    basis set group =>   1
Atom  22C    basis set group =>   1
Atom  23C    basis set group =>   1
Atom  24C    basis set group =>   1
Atom  25C    basis set group =>   1
Atom  26C    basis set group =>   1
Atom  27C    basis set group =>   1
Atom  28C    basis set group =>   1
Atom  29C    basis set group =>   1
Atom  30C    basis set group =>   1
Atom  31C    basis set group =>   1
Atom  32C    basis set group =>   1
Atom  33C    basis set group =>   1
Atom  34C    basis set group =>   1
Atom  35C    basis set group =>   1
Atom  36C    basis set group =>   1
Atom  37C    basis set group =>   1
Atom  38C    basis set group =>   1
Atom  39C    basis set group =>   1
Atom  40C    basis set group =>   1
Atom  41C    basis set group =>   1
Atom  42C    basis set group =>   1
Atom  43C    basis set group =>   1
Atom  44C    basis set group =>   1
Atom  45C    basis set group =>   1
Atom  46C    basis set group =>   1
Atom  47C    basis set group =>   1
Atom  48C    basis set group =>   1
Atom  49C    basis set group =>   1
Atom  50C    basis set group =>   1
Atom  51C    basis set group =>   1
Atom  52H    basis set group =>   3
Atom  53H    basis set group =>   3
Atom  54H    basis set group =>   3
Atom  55H    basis set group =>   3
Atom  56H    basis set group =>   3
Atom  57H    basis set group =>   3
Atom  58H    basis set group =>   3
Atom  59H    basis set group =>   3
Atom  60H    basis set group =>   3
Atom  61H    basis set group =>   3
Atom  62H    basis set group =>   3
Atom  63H    basis set group =>   3
Atom  64H    basis set group =>   3
Atom  65H    basis set group =>   3
Atom  66H    basis set group =>   3
Atom  67H    basis set group =>   3
Atom  68H    basis set group =>   3
Atom  69H    basis set group =>   3
Atom  70H    basis set group =>   3
Atom  71H    basis set group =>   3
Atom  72H    basis set group =>   3
Atom  73H    basis set group =>   3
Atom  74H    basis set group =>   3
Atom  75H    basis set group =>   3
Atom  76H    basis set group =>   3
Atom  77H    basis set group =>   3
Atom  78H    basis set group =>   3
Atom  79H    basis set group =>   3
Atom  80H    basis set group =>   3
Atom  81H    basis set group =>   3
Atom  82H    basis set group =>   3
Atom  83H    basis set group =>   3
Atom  84H    basis set group =>   3
Atom  85H    basis set group =>   3
Atom  86H    basis set group =>   3
Atom  87H    basis set group =>   3
Atom  88H    basis set group =>   3
Atom  89H    basis set group =>   3


           ************************************************************
           *        Program running with 8 parallel MPI-processes     *
           *              working on a common directory               *
           ************************************************************
------------------------------------------------------------------------------
                           ORCA GTO INTEGRAL CALCULATION
------------------------------------------------------------------------------
------------------------------------------------------------------------------
                   ___                                                        
                  /   \      - P O W E R E D   B Y -                         
                 /     \                                                     
                 |  |  |   _    _      __       _____    __    __             
                 |  |  |  | |  | |    /  \     |  _  \  |  |  /  |          
                  \  \/   | |  | |   /    \    | | | |  |  | /  /          
                 / \  \   | |__| |  /  /\  \   | |_| |  |  |/  /          
                |  |  |   |  __  | /  /__\  \  |    /   |      \           
                |  |  |   | |  | | |   __   |  |    \   |  |\   \          
                \     /   | |  | | |  |  |  |  | |\  \  |  | \   \       
                 \___/    |_|  |_| |__|  |__|  |_| \__\ |__|  \__/        
                                                                              
                      - O R C A' S   B I G   F R I E N D -                    
                                      &                                       
                       - I N T E G R A L  F E E D E R -                       
                                                                              
 v1 FN, 2020, v2 2021                                                         
------------------------------------------------------------------------------


Reading SHARK input file /scratch/chu_02/allen/tmpyp4_amber_gaff2/conf1/conf1/Conf303.orca.SHARKINP.tmp ... ok
----------------------
SHARK INTEGRAL PACKAGE
----------------------

Number of atoms                             ...     90
Number of basis functions                   ...   1230
Number of shells                            ...    738
Maximum angular momentum                    ...      2
Integral batch strategy                     ... SHARK/LIBINT Hybrid
RI-J (if used) integral strategy            ... SPLIT-RIJ (Revised 2003 algorithm where possible)
Printlevel                                  ...      1
Contraction scheme used                     ... PARTIAL GENERAL contraction
Coulomb Range Separation                    ... NOT USED
Exchange Range Separation                   ... NOT USED
Finite Nucleus Model                        ... NOT USED
Auxiliary Coulomb fitting basis             ... NOT available
Auxiliary J/K fitting basis                 ... NOT available
Auxiliary Correlation fitting basis         ... NOT available
Auxiliary 'external' fitting basis          ... NOT available
Integral threshold                          ...     2.500000e-11
Primitive cut-off                           ...     2.500000e-12
Primitive pair pre-selection threshold      ...     2.500000e-12

Calculating pre-screening integrals         ... done (  0.1 sec) Dimension = 738
Calculating pre-screening integrals (ORCA)  ... done (  0.3 sec) Dimension = 426
Organizing shell pair data                  ... done (  0.5 sec)
Shell pair information
Total number of shell pairs                 ...    272691
Shell pairs after pre-screening             ...     71581
Total number of primitive shell pairs       ...    422091
Primitive shell pairs kept                  ...     92336
          la=0 lb=0:  29403 shell pairs
          la=1 lb=0:  25957 shell pairs
          la=1 lb=1:   4698 shell pairs
          la=2 lb=0:   7870 shell pairs
          la=2 lb=1:   3122 shell pairs
          la=2 lb=2:    531 shell pairs

Calculating one electron integrals          ... done (  0.2 sec)
Calculating Nuclear repulsion               ... done (  0.0 sec) ENN=   6224.932427791393 Eh

SHARK setup successfully completed in   1.5 seconds

Maximum memory used throughout the entire GTOINT-calculation: 98.9 MB


           ************************************************************
           *        Program running with 8 parallel MPI-processes     *
           *              working on a common directory               *
           ************************************************************
-------------------------------------------------------------------------------
                                 ORCA SCF
-------------------------------------------------------------------------------

------------
SCF SETTINGS
------------
Hamiltonian:
 Ab initio Hamiltonian  Method          .... Hartree-Fock(GTOs)


General Settings:
 Integral files         IntName         .... /scratch/chu_02/allen/tmpyp4_amber_gaff2/conf1/conf1/Conf303.orca
 Hartree-Fock type      HFTyp           .... RHF
 Total Charge           Charge          ....    0
 Multiplicity           Mult            ....    1
 Number of Electrons    NEL             ....  358
 Basis Dimension        Dim             ....  918
 Nuclear Repulsion      ENuc            ....   6224.9324277914 Eh

Convergence Acceleration:
 DIIS                   CNVDIIS         .... on
   Start iteration      DIISMaxIt       ....    12
   Startup error        DIISStart       ....  0.200000
   # of expansion vecs  DIISMaxEq       ....     5
   Bias factor          DIISBfac        ....   1.050
   Max. coefficient     DIISMaxC        ....  10.000
 Trust-Rad. Augm. Hess. CNVTRAH         .... auto
   Auto Start mean grad. ratio tolernc. ....  1.125000
   Auto Start start iteration           ....    20
   Auto Start num. interpolation iter.  ....    10
   Max. Number of Micro iterations      ....    16
   Max. Number of Macro iterations      .... Maxiter - #DIIS iter
   Number of Davidson start vectors     ....     2
   Converg. threshold I  (grad. norm)   ....   1.000e-05
   Converg. threshold II (energy diff.) ....   1.000e-08
   Grad. Scal. Fac. for Micro threshold ....   0.100
   Minimum threshold for Micro iter.    ....   0.010
   NR start threshold (gradient norm)   ....   0.001
   Initial trust radius                 ....   0.400
   Minimum AH scaling param. (alpha)    ....   1.000
   Maximum AH scaling param. (alpha)    .... 1000.000
   Orbital update algorithm             .... Taylor
   White noise on init. David. guess    .... on
   Maximum white noise                  ....   0.010
   Quad. conv. algorithm                .... NR
 SOSCF                  CNVSOSCF        .... on
   Start iteration      SOSCFMaxIt      ....   150
   Startup grad/error   SOSCFStart      ....  0.003300
 Level Shifting         CNVShift        .... on
   Level shift para.    LevelShift      ....    0.2500
   Turn off err/grad.   ShiftErr        ....    0.0010
 Zerner damping         CNVZerner       .... off
 Static damping         CNVDamp         .... on
   Fraction old density DampFac         ....    0.7000
   Max. Damping (<1)    DampMax         ....    0.9800
   Min. Damping (>=0)   DampMin         ....    0.0000
   Turn off err/grad.   DampErr         ....    0.1000
 Fernandez-Rico         CNVRico         .... off

SCF Procedure:
 Maximum # iterations   MaxIter         ....   125
 SCF integral mode      SCFMode         .... Direct
   Integral package                     .... SHARK and LIBINT hybrid scheme
 Reset frequency        DirectResetFreq ....    20
 Integral Threshold     Thresh          ....  2.500e-11 Eh
 Primitive CutOff       TCut            ....  2.500e-12 Eh

Convergence Tolerance:
 Convergence Check Mode ConvCheckMode   .... Total+1el-Energy
 Convergence forced     ConvForced      .... 1
 Energy Change          TolE            ....  1.000e-08 Eh
 1-El. energy change                    ....  1.000e-05 Eh
 Orbital Gradient       TolG            ....  1.000e-05
 Orbital Rotation angle TolX            ....  1.000e-05
 DIIS Error             TolErr          ....  5.000e-07


Diagonalization of the overlap matrix:
Smallest eigenvalue                        ... 2.254e-04
Time for diagonalization                   ...    0.206 sec
Threshold for overlap eigenvalues          ... 1.000e-08
Number of eigenvalues below threshold      ... 0
Time for construction of square roots      ...    0.122 sec
Total time needed                          ...    0.332 sec

Time for model grid setup =    1.321 sec

------------------------------
INITIAL GUESS: MODEL POTENTIAL
------------------------------
Loading Hartree-Fock densities                     ... done
Calculating cut-offs                               ... done
Initializing the effective Hamiltonian             ... done
Setting up the integral package (SHARK)            ... done
Starting the Coulomb interaction                   ... done (   1.6 sec)
Reading the grid                                   ... done
Mapping shells                                     ... done
Starting the XC term evaluation                    ... done (   0.3 sec)
Transforming the Hamiltonian                       ... done (   0.1 sec)
Diagonalizing the Hamiltonian                      ... done (   0.2 sec)
Back transforming the eigenvectors                 ... done (   0.0 sec)
Now organizing SCF variables                       ... done
                      ------------------
                      INITIAL GUESS DONE (   3.6 sec)
                      ------------------
--------------
SCF ITERATIONS
--------------
ITER       Energy         Delta-E        Max-DP      RMS-DP      [F,P]     Damp
               ***  Starting incremental Fock matrix formation  ***
  0  -2121.6757403424   0.000000000000 0.06900817  0.00120844  0.2329560 0.7000
  1  -2122.3407281805  -0.664987838049 0.05236082  0.00098009  0.1441465 0.7000
                               ***Turning on DIIS***
  2  -2122.7536568452  -0.412928664757 0.11604546  0.00221996  0.0802569 0.0000
  3  -2117.7402333302   5.013423514991 0.03034547  0.00068079  0.0442562 0.0000
  4  -2123.4163230047  -5.676089674447 0.00875969  0.00022804  0.0070264 0.0000
  5  -2123.5951234190  -0.178800414358 0.00507291  0.00013488  0.0049125 0.0000
  6  -2123.5774019364   0.017721482616 0.00331343  0.00008771  0.0019140 0.0000
  7  -2123.6817266595  -0.104324723090 0.00279173  0.00006946  0.0014906 0.0000
  8  -2123.7004024610  -0.018675801510 0.00281170  0.00006555  0.0013859 0.0000
  9  -2123.6644855121   0.035916948946 0.00227767  0.00004490  0.0010886 0.0000
 10  -2123.6789204007  -0.014434888644 0.00475163  0.00008843  0.0008263 0.0000
                      *** Initiating the SOSCF procedure ***
                           *** Shutting down DIIS ***
                      *** Re-Reading the Fockian *** 
                      *** Removing any level shift *** 
ITER      Energy       Delta-E        Grad      Rot      Max-DP    RMS-DP
 11  -2123.56113195   0.1177884476  0.000319  0.000319  0.000294  0.000007
               *** Restarting incremental Fock matrix formation ***
 12  -2123.62604103  -0.0649090817  0.000917  0.006216  0.001053  0.000026
 13  -2123.62610262  -0.0000615823  0.000959  0.024072  0.004318  0.000083
 14  -2123.62617349  -0.0000708755  0.000443  0.002510  0.000485  0.000012
 15  -2123.62618394  -0.0000104485  0.000122  0.001555  0.000419  0.000007
 16  -2123.62618720  -0.0000032602  0.000092  0.002522  0.000608  0.000011
 17  -2123.62618965  -0.0000024500  0.000114  0.002519  0.000440  0.000008
 18  -2123.62619070  -0.0000010461  0.000066  0.001474  0.000280  0.000005
 19  -2123.62619147  -0.0000007764  0.000056  0.000886  0.000157  0.000003
 20  -2123.62619179  -0.0000003142  0.000025  0.000382  0.000079  0.000002
 21  -2123.62619187  -0.0000000853  0.000015  0.000413  0.000074  0.000001
 22  -2123.62619193  -0.0000000584  0.000015  0.000385  0.000061  0.000001
 23  -2123.62619197  -0.0000000389  0.000013  0.000177  0.000056  0.000001
 24  -2123.62619199  -0.0000000192  0.000008  0.000056  0.000017  0.000000
 25  -2123.62619200  -0.0000000150  0.000003  0.000044  0.000014  0.000000
                  ***Gradient check signals convergence***
              ***Rediagonalizing the Fockian in SOSCF/NRSCF***

               *****************************************************
               *                     SUCCESS                       *
               *           SCF CONVERGED AFTER  26 CYCLES          *
               *****************************************************


----------------
TOTAL SCF ENERGY
----------------

Total Energy       :        -2123.62619201 Eh          -57786.80651 eV

Components:
Nuclear Repulsion  :         6224.93242779 Eh          169389.02293 eV
Electronic Energy  :        -8348.55861980 Eh         -227175.82944 eV
One Electron Energy:       -15291.03637036 Eh         -416090.25326 eV
Two Electron Energy:         6942.47775056 Eh          188914.42382 eV

Virial components:
Potential Energy   :        -4245.62090534 Eh         -115529.21823 eV
Kinetic Energy     :         2121.99471334 Eh           57742.41172 eV
Virial Ratio       :            2.00076884


---------------
SCF CONVERGENCE
---------------

  Last Energy change         ...   -2.0882e-09  Tolerance :   1.0000e-08
  Last MAX-Density change    ...    1.1044e-05  Tolerance :   1.0000e-07
  Last RMS-Density change    ...    1.7959e-07  Tolerance :   5.0000e-09
  Last Orbital Gradient      ...    1.9239e-06  Tolerance :   1.0000e-05
  Last Orbital Rotation      ...    3.4011e-05  Tolerance :   1.0000e-05

             **** THE GBW FILE WAS UPDATED (/scratch/chu_02/allen/tmpyp4_amber_gaff2/conf1/conf1/Conf303.orca.gbw) ****
             **** DENSITY /scratch/chu_02/allen/tmpyp4_amber_gaff2/conf1/conf1/Conf303.orca.scfp WAS UPDATED ****
             **** ENERGY FILE WAS UPDATED (/scratch/chu_02/allen/tmpyp4_amber_gaff2/conf1/conf1/Conf303.orca.en.tmp) ****
             **** THE GBW FILE WAS UPDATED (/scratch/chu_02/allen/tmpyp4_amber_gaff2/conf1/conf1/Conf303.orca.gbw) ****
             **** DENSITY /scratch/chu_02/allen/tmpyp4_amber_gaff2/conf1/conf1/Conf303.orca.scfp WAS UPDATED ****
----------------
ORBITAL ENERGIES
----------------

  NO   OCC          E(Eh)            E(eV) 
   0   2.0000     -15.641211      -425.6190 
   1   2.0000     -15.639608      -425.5754 
   2   2.0000     -15.628674      -425.2778 
   3   2.0000     -15.622035      -425.0972 
   4   2.0000     -15.519210      -422.2992 
   5   2.0000     -15.515510      -422.1985 
   6   2.0000     -15.444265      -420.2598 
   7   2.0000     -15.444137      -420.2563 
   8   2.0000     -11.303969      -307.5966 
   9   2.0000     -11.302739      -307.5632 
  10   2.0000     -11.297693      -307.4259 
  11   2.0000     -11.295974      -307.3791 
  12   2.0000     -11.295164      -307.3570 
  13   2.0000     -11.295025      -307.3533 
  14   2.0000     -11.294019      -307.3259 
  15   2.0000     -11.292475      -307.2839 
  16   2.0000     -11.285919      -307.1055 
  17   2.0000     -11.285325      -307.0893 
  18   2.0000     -11.281699      -306.9906 
  19   2.0000     -11.280324      -306.9532 
  20   2.0000     -11.245502      -306.0057 
  21   2.0000     -11.242970      -305.9368 
  22   2.0000     -11.235845      -305.7429 
  23   2.0000     -11.234968      -305.7190 
  24   2.0000     -11.234756      -305.7133 
  25   2.0000     -11.234127      -305.6961 
  26   2.0000     -11.233021      -305.6660 
  27   2.0000     -11.228484      -305.5426 
  28   2.0000     -11.226577      -305.4907 
  29   2.0000     -11.226459      -305.4875 
  30   2.0000     -11.221974      -305.3654 
  31   2.0000     -11.221589      -305.3550 
  32   2.0000     -11.201138      -304.7985 
  33   2.0000     -11.200611      -304.7841 
  34   2.0000     -11.193823      -304.5994 
  35   2.0000     -11.193404      -304.5880 
  36   2.0000     -11.173012      -304.0331 
  37   2.0000     -11.172432      -304.0173 
  38   2.0000     -11.171755      -303.9989 
  39   2.0000     -11.171588      -303.9944 
  40   2.0000     -11.170001      -303.9512 
  41   2.0000     -11.169489      -303.9372 
  42   2.0000     -11.166514      -303.8563 
  43   2.0000     -11.166086      -303.8446 
  44   2.0000     -11.160865      -303.7026 
  45   2.0000     -11.159514      -303.6658 
  46   2.0000     -11.152392      -303.4720 
  47   2.0000     -11.150790      -303.4284 
  48   2.0000     -11.143650      -303.2341 
  49   2.0000     -11.141681      -303.1806 
  50   2.0000     -11.141531      -303.1765 
  51   2.0000     -11.139120      -303.1109 
  52   2.0000      -1.327437       -36.1214 
  53   2.0000      -1.325996       -36.0822 
  54   2.0000      -1.316543       -35.8250 
  55   2.0000      -1.311599       -35.6904 
  56   2.0000      -1.218167       -33.1480 
  57   2.0000      -1.212366       -32.9901 
  58   2.0000      -1.161558       -31.6076 
  59   2.0000      -1.157004       -31.4837 
  60   2.0000      -1.116271       -30.3753 
  61   2.0000      -1.113402       -30.2972 
  62   2.0000      -1.105581       -30.0844 
  63   2.0000      -1.101287       -29.9675 
  64   2.0000      -1.051363       -28.6090 
  65   2.0000      -1.049801       -28.5665 
  66   2.0000      -1.041111       -28.3301 
  67   2.0000      -1.036747       -28.2113 
  68   2.0000      -1.026807       -27.9408 
  69   2.0000      -1.009877       -27.4802 
  70   2.0000      -1.009365       -27.4662 
  71   2.0000      -0.997838       -27.1525 
  72   2.0000      -0.982421       -26.7330 
  73   2.0000      -0.975575       -26.5467 
  74   2.0000      -0.969133       -26.3715 
  75   2.0000      -0.960087       -26.1253 
  76   2.0000      -0.952491       -25.9186 
  77   2.0000      -0.942438       -25.6450 
  78   2.0000      -0.940504       -25.5924 
  79   2.0000      -0.923361       -25.1259 
  80   2.0000      -0.893000       -24.2998 
  81   2.0000      -0.878409       -23.9027 
  82   2.0000      -0.876113       -23.8403 
  83   2.0000      -0.868545       -23.6343 
  84   2.0000      -0.864593       -23.5268 
  85   2.0000      -0.857022       -23.3207 
  86   2.0000      -0.847483       -23.0612 
  87   2.0000      -0.844479       -22.9794 
  88   2.0000      -0.821703       -22.3597 
  89   2.0000      -0.798484       -21.7279 
  90   2.0000      -0.797712       -21.7068 
  91   2.0000      -0.739302       -20.1174 
  92   2.0000      -0.729352       -19.8467 
  93   2.0000      -0.729032       -19.8380 
  94   2.0000      -0.720677       -19.6106 
  95   2.0000      -0.720087       -19.5946 
  96   2.0000      -0.712060       -19.3761 
  97   2.0000      -0.709325       -19.3017 
  98   2.0000      -0.698539       -19.0082 
  99   2.0000      -0.692598       -18.8466 
 100   2.0000      -0.684084       -18.6149 
 101   2.0000      -0.680226       -18.5099 
 102   2.0000      -0.679588       -18.4925 
 103   2.0000      -0.673354       -18.3229 
 104   2.0000      -0.667857       -18.1733 
 105   2.0000      -0.667041       -18.1511 
 106   2.0000      -0.663071       -18.0431 
 107   2.0000      -0.659296       -17.9404 
 108   2.0000      -0.657881       -17.9018 
 109   2.0000      -0.654611       -17.8129 
 110   2.0000      -0.652555       -17.7569 
 111   2.0000      -0.650673       -17.7057 
 112   2.0000      -0.647544       -17.6206 
 113   2.0000      -0.644505       -17.5379 
 114   2.0000      -0.634807       -17.2740 
 115   2.0000      -0.622896       -16.9498 
 116   2.0000      -0.617924       -16.8146 
 117   2.0000      -0.616561       -16.7775 
 118   2.0000      -0.610452       -16.6112 
 119   2.0000      -0.608669       -16.5627 
 120   2.0000      -0.608215       -16.5504 
 121   2.0000      -0.604597       -16.4519 
 122   2.0000      -0.603007       -16.4086 
 123   2.0000      -0.593679       -16.1548 
 124   2.0000      -0.586592       -15.9620 
 125   2.0000      -0.585216       -15.9245 
 126   2.0000      -0.578281       -15.7358 
 127   2.0000      -0.574315       -15.6279 
 128   2.0000      -0.571179       -15.5426 
 129   2.0000      -0.561456       -15.2780 
 130   2.0000      -0.553789       -15.0694 
 131   2.0000      -0.542951       -14.7745 
 132   2.0000      -0.541199       -14.7268 
 133   2.0000      -0.535229       -14.5643 
 134   2.0000      -0.533788       -14.5251 
 135   2.0000      -0.530839       -14.4449 
 136   2.0000      -0.524031       -14.2596 
 137   2.0000      -0.523281       -14.2392 
 138   2.0000      -0.517347       -14.0777 
 139   2.0000      -0.516879       -14.0650 
 140   2.0000      -0.509336       -13.8597 
 141   2.0000      -0.505406       -13.7528 
 142   2.0000      -0.504180       -13.7194 
 143   2.0000      -0.503760       -13.7080 
 144   2.0000      -0.499178       -13.5833 
 145   2.0000      -0.497925       -13.5492 
 146   2.0000      -0.496350       -13.5064 
 147   2.0000      -0.493151       -13.4193 
 148   2.0000      -0.490906       -13.3582 
 149   2.0000      -0.468824       -12.7574 
 150   2.0000      -0.460278       -12.5248 
 151   2.0000      -0.451134       -12.2760 
 152   2.0000      -0.448266       -12.1980 
 153   2.0000      -0.445987       -12.1359 
 154   2.0000      -0.445112       -12.1121 
 155   2.0000      -0.439502       -11.9595 
 156   2.0000      -0.435039       -11.8380 
 157   2.0000      -0.432029       -11.7561 
 158   2.0000      -0.390894       -10.6368 
 159   2.0000      -0.381339       -10.3768 
 160   2.0000      -0.379978       -10.3397 
 161   2.0000      -0.372931       -10.1480 
 162   2.0000      -0.361557        -9.8385 
 163   2.0000      -0.360089        -9.7985 
 164   2.0000      -0.352778        -9.5996 
 165   2.0000      -0.348874        -9.4933 
 166   2.0000      -0.337253        -9.1771 
 167   2.0000      -0.332199        -9.0396 
 168   2.0000      -0.329400        -8.9634 
 169   2.0000      -0.300199        -8.1688 
 170   2.0000      -0.295749        -8.0477 
 171   2.0000      -0.288891        -7.8611 
 172   2.0000      -0.287311        -7.8181 
 173   2.0000      -0.254770        -6.9326 
 174   2.0000      -0.248032        -6.7493 
 175   2.0000      -0.188036        -5.1167 
 176   2.0000      -0.177881        -4.8404 
 177   2.0000      -0.066447        -1.8081 
 178   2.0000      -0.054748        -1.4898 
 179   0.0000       0.030912         0.8411 
 180   0.0000       0.070615         1.9215 
 181   0.0000       0.093121         2.5339 
 182   0.0000       0.097328         2.6484 
 183   0.0000       0.132760         3.6126 
 184   0.0000       0.133806         3.6410 
 185   0.0000       0.141866         3.8604 
 186   0.0000       0.146292         3.9808 
 187   0.0000       0.160982         4.3805 
 188   0.0000       0.161533         4.3955 
 189   0.0000       0.162330         4.4172 
 190   0.0000       0.167902         4.5688 
 191   0.0000       0.170805         4.6479 
 192   0.0000       0.200971         5.4687 
 193   0.0000       0.201846         5.4925 
 194   0.0000       0.204373         5.5613 
 195   0.0000       0.205670         5.5966 
 196   0.0000       0.208018         5.6605 
 197   0.0000       0.210355         5.7241 
 198   0.0000       0.211221         5.7476 
 199   0.0000       0.214775         5.8443 
 200   0.0000       0.235079         6.3968 
 201   0.0000       0.237438         6.4610 
 202   0.0000       0.242100         6.5879 
 203   0.0000       0.245369         6.6768 
 204   0.0000       0.253079         6.8866 
 205   0.0000       0.254151         6.9158 
 206   0.0000       0.258394         7.0312 
 207   0.0000       0.258604         7.0370 
 208   0.0000       0.261557         7.1173 
 209   0.0000       0.264270         7.1911 
 210   0.0000       0.268189         7.2978 
 211   0.0000       0.269414         7.3311 
 212   0.0000       0.273132         7.4323 
 213   0.0000       0.276085         7.5127 
 214   0.0000       0.278701         7.5839 
 215   0.0000       0.279879         7.6159 
 216   0.0000       0.281542         7.6612 
 217   0.0000       0.282724         7.6933 
 218   0.0000       0.283655         7.7186 
 219   0.0000       0.290387         7.9018 
 220   0.0000       0.291725         7.9382 
 221   0.0000       0.291941         7.9441 
 222   0.0000       0.292875         7.9695 
 223   0.0000       0.294670         8.0184 
 224   0.0000       0.299331         8.1452 
 225   0.0000       0.301832         8.2133 
 226   0.0000       0.303372         8.2552 
 227   0.0000       0.303875         8.2689 
 228   0.0000       0.305991         8.3264 
 229   0.0000       0.307517         8.3680 
 230   0.0000       0.314101         8.5471 
 231   0.0000       0.317983         8.6528 
 232   0.0000       0.326293         8.8789 
 233   0.0000       0.326640         8.8883 
 234   0.0000       0.332771         9.0552 
 235   0.0000       0.335141         9.1197 
 236   0.0000       0.356124         9.6906 
 237   0.0000       0.387072        10.5328 
 238   0.0000       0.395693        10.7674 
 239   0.0000       0.400633        10.9018 
 240   0.0000       0.406128        11.0513 
 241   0.0000       0.408836        11.1250 
 242   0.0000       0.422886        11.5073 
 243   0.0000       0.423674        11.5288 
 244   0.0000       0.432224        11.7614 
 245   0.0000       0.432890        11.7795 
 246   0.0000       0.436274        11.8716 
 247   0.0000       0.437928        11.9166 
 248   0.0000       0.439678        11.9642 
 249   0.0000       0.444101        12.0846 
 250   0.0000       0.444983        12.1086 
 251   0.0000       0.448339        12.1999 
 252   0.0000       0.455332        12.3902 
 253   0.0000       0.467990        12.7346 
 254   0.0000       0.471626        12.8336 
 255   0.0000       0.474966        12.9245 
 256   0.0000       0.480925        13.0866 
 257   0.0000       0.486822        13.2471 
 258   0.0000       0.489604        13.3228 
 259   0.0000       0.497343        13.5334 
 260   0.0000       0.501928        13.6582 
 261   0.0000       0.502609        13.6767 
 262   0.0000       0.506989        13.7959 
 263   0.0000       0.509471        13.8634 
 264   0.0000       0.511825        13.9275 
 265   0.0000       0.515069        14.0157 
 266   0.0000       0.516181        14.0460 
 267   0.0000       0.521348        14.1866 
 268   0.0000       0.536498        14.5988 
 269   0.0000       0.537636        14.6298 
 270   0.0000       0.540940        14.7197 
 271   0.0000       0.545541        14.8449 
 272   0.0000       0.547717        14.9041 
 273   0.0000       0.553323        15.0567 
 274   0.0000       0.560495        15.2518 
 275   0.0000       0.563615        15.3367 
 276   0.0000       0.573105        15.5950 
 277   0.0000       0.576940        15.6993 
 278   0.0000       0.581466        15.8225 
 279   0.0000       0.585510        15.9325 
 280   0.0000       0.589347        16.0370 
 281   0.0000       0.591168        16.0865 
 282   0.0000       0.594537        16.1782 
 283   0.0000       0.596667        16.2361 
 284   0.0000       0.599653        16.3174 
 285   0.0000       0.602402        16.3922 
 286   0.0000       0.603645        16.4260 
 287   0.0000       0.608659        16.5624 
 288   0.0000       0.610732        16.6189 
 289   0.0000       0.614558        16.7230 
 290   0.0000       0.617305        16.7977 
 291   0.0000       0.627636        17.0788 
 292   0.0000       0.639923        17.4132 
 293   0.0000       0.640899        17.4397 
 294   0.0000       0.642757        17.4903 
 295   0.0000       0.650385        17.6979 
 296   0.0000       0.658055        17.9066 
 297   0.0000       0.658931        17.9304 
 298   0.0000       0.661020        17.9873 
 299   0.0000       0.662875        18.0377 
 300   0.0000       0.671963        18.2851 
 301   0.0000       0.672590        18.3021 
 302   0.0000       0.678072        18.4513 
 303   0.0000       0.681604        18.5474 
 304   0.0000       0.682792        18.5797 
 305   0.0000       0.685186        18.6449 
 306   0.0000       0.689875        18.7724 
 307   0.0000       0.695918        18.9369 
 308   0.0000       0.697674        18.9847 
 309   0.0000       0.702837        19.1252 
 310   0.0000       0.703626        19.1466 
 311   0.0000       0.706143        19.2151 
 312   0.0000       0.707520        19.2526 
 313   0.0000       0.708362        19.2755 
 314   0.0000       0.710986        19.3469 
 315   0.0000       0.714236        19.4353 
 316   0.0000       0.716270        19.4907 
 317   0.0000       0.718200        19.5432 
 318   0.0000       0.719786        19.5864 
 319   0.0000       0.721944        19.6451 
 320   0.0000       0.724251        19.7079 
 321   0.0000       0.728684        19.8285 
 322   0.0000       0.730167        19.8689 
 323   0.0000       0.733952        19.9719 
 324   0.0000       0.739704        20.1284 
 325   0.0000       0.742565        20.2062 
 326   0.0000       0.744969        20.2716 
 327   0.0000       0.746232        20.3060 
 328   0.0000       0.747562        20.3422 
 329   0.0000       0.748947        20.3799 
 330   0.0000       0.751966        20.4620 
 331   0.0000       0.753939        20.5157 
 332   0.0000       0.756944        20.5975 
 333   0.0000       0.761188        20.7130 
 334   0.0000       0.763809        20.7843 
 335   0.0000       0.769120        20.9288 
 336   0.0000       0.775843        21.1118 
 337   0.0000       0.779751        21.2181 
 338   0.0000       0.785034        21.3619 
 339   0.0000       0.785726        21.3807 
 340   0.0000       0.791737        21.5443 
 341   0.0000       0.793264        21.5858 
 342   0.0000       0.796907        21.6849 
 343   0.0000       0.799059        21.7435 
 344   0.0000       0.803053        21.8522 
 345   0.0000       0.807964        21.9858 
 346   0.0000       0.811281        22.0761 
 347   0.0000       0.812400        22.1065 
 348   0.0000       0.813397        22.1337 
 349   0.0000       0.816535        22.2190 
 350   0.0000       0.818943        22.2846 
 351   0.0000       0.822845        22.3908 
 352   0.0000       0.824885        22.4463 
 353   0.0000       0.827687        22.5225 
 354   0.0000       0.830791        22.6070 
 355   0.0000       0.832911        22.6647 
 356   0.0000       0.834634        22.7115 
 357   0.0000       0.836451        22.7610 
 358   0.0000       0.837421        22.7874 
 359   0.0000       0.838090        22.8056 
 360   0.0000       0.840244        22.8642 
 361   0.0000       0.841233        22.8911 
 362   0.0000       0.842857        22.9353 
 363   0.0000       0.844978        22.9930 
 364   0.0000       0.846350        23.0303 
 365   0.0000       0.848271        23.0826 
 366   0.0000       0.849367        23.1124 
 367   0.0000       0.853776        23.2324 
 368   0.0000       0.859013        23.3749 
 369   0.0000       0.860459        23.4143 
 370   0.0000       0.865464        23.5505 
 371   0.0000       0.866630        23.5822 
 372   0.0000       0.870382        23.6843 
 373   0.0000       0.876942        23.8628 
 374   0.0000       0.879207        23.9244 
 375   0.0000       0.880319        23.9547 
 376   0.0000       0.884776        24.0760 
 377   0.0000       0.889800        24.2127 
 378   0.0000       0.895881        24.3782 
 379   0.0000       0.896373        24.3916 
 380   0.0000       0.899745        24.4833 
 381   0.0000       0.901150        24.5215 
 382   0.0000       0.903704        24.5910 
 383   0.0000       0.904193        24.6043 
 384   0.0000       0.905059        24.6279 
 385   0.0000       0.906911        24.6783 
 386   0.0000       0.909409        24.7463 
 387   0.0000       0.910282        24.7700 
 388   0.0000       0.913435        24.8558 
 389   0.0000       0.914969        24.8976 
 390   0.0000       0.916636        24.9429 
 391   0.0000       0.919824        25.0297 
 392   0.0000       0.923424        25.1276 
 393   0.0000       0.925103        25.1733 
 394   0.0000       0.925950        25.1964 
 395   0.0000       0.931839        25.3566 
 396   0.0000       0.932704        25.3802 
 397   0.0000       0.937576        25.5127 
 398   0.0000       0.938587        25.5402 
 399   0.0000       0.941416        25.6172 
 400   0.0000       0.941892        25.6302 
 401   0.0000       0.945481        25.7279 
 402   0.0000       0.948120        25.7996 
 403   0.0000       0.951176        25.8828 
 404   0.0000       0.952612        25.9219 
 405   0.0000       0.955991        26.0138 
 406   0.0000       0.957470        26.0541 
 407   0.0000       0.963889        26.2288 
 408   0.0000       0.967460        26.3259 
 409   0.0000       0.970070        26.3970 
 410   0.0000       0.972042        26.4506 
 411   0.0000       0.976101        26.5610 
 412   0.0000       0.982947        26.7473 
 413   0.0000       0.985862        26.8267 
 414   0.0000       0.989407        26.9231 
 415   0.0000       0.989852        26.9352 
 416   0.0000       0.999626        27.2012 
 417   0.0000       1.000491        27.2247 
 418   0.0000       1.008317        27.4377 
 419   0.0000       1.013943        27.5908 
 420   0.0000       1.024610        27.8810 
 421   0.0000       1.025137        27.8954 
 422   0.0000       1.032250        28.0890 
 423   0.0000       1.038704        28.2646 
 424   0.0000       1.045355        28.4456 
 425   0.0000       1.049211        28.5505 
 426   0.0000       1.051425        28.6107 
 427   0.0000       1.062740        28.9186 
 428   0.0000       1.064973        28.9794 
 429   0.0000       1.074570        29.2405 
 430   0.0000       1.077646        29.3242 
 431   0.0000       1.079858        29.3844 
 432   0.0000       1.086465        29.5642 
 433   0.0000       1.090605        29.6769 
 434   0.0000       1.093109        29.7450 
 435   0.0000       1.106085        30.0981 
 436   0.0000       1.108297        30.1583 
 437   0.0000       1.110801        30.2264 
 438   0.0000       1.116032        30.3688 
 439   0.0000       1.119637        30.4669 
 440   0.0000       1.120005        30.4769 
 441   0.0000       1.124971        30.6120 
 442   0.0000       1.130801        30.7707 
 443   0.0000       1.132008        30.8035 
 444   0.0000       1.133934        30.8559 
 445   0.0000       1.134736        30.8777 
 446   0.0000       1.136553        30.9272 
 447   0.0000       1.138935        30.9920 
 448   0.0000       1.144302        31.1380 
 449   0.0000       1.145883        31.1811 
 450   0.0000       1.150588        31.3091 
 451   0.0000       1.152309        31.3559 
 452   0.0000       1.153934        31.4001 
 453   0.0000       1.156797        31.4780 
 454   0.0000       1.160103        31.5680 
 455   0.0000       1.165546        31.7161 
 456   0.0000       1.175577        31.9891 
 457   0.0000       1.177857        32.0511 
 458   0.0000       1.181619        32.1535 
 459   0.0000       1.184438        32.2302 
 460   0.0000       1.187764        32.3207 
 461   0.0000       1.190708        32.4008 
 462   0.0000       1.199126        32.6299 
 463   0.0000       1.205171        32.7944 
 464   0.0000       1.207062        32.8458 
 465   0.0000       1.208562        32.8866 
 466   0.0000       1.215603        33.0782 
 467   0.0000       1.216355        33.0987 
 468   0.0000       1.221872        33.2488 
 469   0.0000       1.229423        33.4543 
 470   0.0000       1.234927        33.6041 
 471   0.0000       1.235193        33.6113 
 472   0.0000       1.236532        33.6478 
 473   0.0000       1.241828        33.7919 
 474   0.0000       1.242813        33.8187 
 475   0.0000       1.245962        33.9043 
 476   0.0000       1.250652        34.0320 
 477   0.0000       1.252209        34.0743 
 478   0.0000       1.255369        34.1603 
 479   0.0000       1.257102        34.2075 
 480   0.0000       1.258318        34.2406 
 481   0.0000       1.263629        34.3851 
 482   0.0000       1.267849        34.4999 
 483   0.0000       1.270214        34.5643 
 484   0.0000       1.276280        34.7294 
 485   0.0000       1.277401        34.7598 
 486   0.0000       1.282947        34.9108 
 487   0.0000       1.285883        34.9907 
 488   0.0000       1.289673        35.0938 
 489   0.0000       1.290550        35.1176 
 490   0.0000       1.293147        35.1883 
 491   0.0000       1.300006        35.3750 
 492   0.0000       1.303925        35.4816 
 493   0.0000       1.309269        35.6270 
 494   0.0000       1.313666        35.7467 
 495   0.0000       1.316710        35.8295 
 496   0.0000       1.318126        35.8680 
 497   0.0000       1.322125        35.9768 
 498   0.0000       1.325890        36.0793 
 499   0.0000       1.331057        36.2199 
 500   0.0000       1.332993        36.2726 
 501   0.0000       1.336699        36.3734 
 502   0.0000       1.340476        36.4762 
 503   0.0000       1.343947        36.5707 
 504   0.0000       1.350489        36.7487 
 505   0.0000       1.352510        36.8037 
 506   0.0000       1.354699        36.8632 
 507   0.0000       1.355606        36.8879 
 508   0.0000       1.357774        36.9469 
 509   0.0000       1.361690        37.0535 
 510   0.0000       1.364926        37.1415 
 511   0.0000       1.368751        37.2456 
[...]
 76 H s       :     0.891434  s :     0.891434
      pz      :     0.021976  p :     0.079578
      px      :     0.043313
      py      :     0.014289
 77 H s       :     0.888940  s :     0.888940
      pz      :     0.047640  p :     0.078904
      px      :     0.015012
      py      :     0.016251
 78 H s       :     0.889357  s :     0.889357
      pz      :     0.025709  p :     0.078841
      px      :     0.020553
      py      :     0.032579
 79 H s       :     0.909022  s :     0.909022
      pz      :     0.022087  p :     0.086695
      px      :     0.021764
      py      :     0.042844
 80 H s       :     0.870600  s :     0.870600
      pz      :     0.038889  p :     0.084145
      px      :     0.029944
      py      :     0.015312
 81 H s       :     0.887163  s :     0.887163
      pz      :     0.037760  p :     0.083876
      px      :     0.016141
      py      :     0.029975
 82 H s       :     0.915327  s :     0.915327
      pz      :     0.022130  p :     0.086854
      px      :     0.031362
      py      :     0.033363
 83 H s       :     0.872758  s :     0.872758
      pz      :     0.039247  p :     0.083988
      px      :     0.015257
      py      :     0.029484
 84 H s       :     0.887156  s :     0.887156
      pz      :     0.035786  p :     0.083712
      px      :     0.031722
      py      :     0.016203
 85 H s       :     0.893695  s :     0.893695
      pz      :     0.022498  p :     0.079732
      px      :     0.014089
      py      :     0.043145
 86 H s       :     0.890773  s :     0.890773
      pz      :     0.024725  p :     0.078859
      px      :     0.032994
      py      :     0.021141
 87 H s       :     0.890129  s :     0.890129
      pz      :     0.047971  p :     0.078708
      px      :     0.015607
      py      :     0.015130
 88 H s       :     0.913803  s :     0.913803
      pz      :     0.022061  p :     0.086963
      px      :     0.042527
      py      :     0.022375
 89 H s       :     0.872021  s :     0.872021
      pz      :     0.037926  p :     0.083913
      px      :     0.030505
      py      :     0.015482


                      *****************************
                      * MAYER POPULATION ANALYSIS *
                      *****************************

  NA   - Mulliken gross atomic population
  ZA   - Total nuclear charge
  QA   - Mulliken gross atomic charge
  VA   - Mayer's total valence
  BVA  - Mayer's bonded valence
  FA   - Mayer's free valence

  ATOM       NA         ZA         QA         VA         BVA        FA
  0 C      5.7943     6.0000     0.2057     3.8317     3.8317    -0.0000
  1 N      7.4437     7.0000    -0.4437     3.3624     3.3624    -0.0000
  2 C      6.0650     6.0000    -0.0650     3.9181     3.9181    -0.0000
  3 N      7.3378     7.0000    -0.3378     3.4464     3.4464     0.0000
  4 C      6.0739     6.0000    -0.0739     3.9842     3.9842     0.0000
  5 N      7.5619     7.0000    -0.5619     3.0867     3.0867    -0.0000
  6 C      6.0648     6.0000    -0.0648     3.9978     3.9978     0.0000
  7 N      7.3385     7.0000    -0.3385     3.4398     3.4398     0.0000
  8 C      5.7967     6.0000     0.2033     3.8288     3.8288    -0.0000
  9 N      7.5629     7.0000    -0.5629     3.0836     3.0836    -0.0000
 10 C      5.8846     6.0000     0.1154     3.8966     3.8966     0.0000
 11 N      7.4373     7.0000    -0.4373     3.3850     3.3850     0.0000
 12 C      6.0695     6.0000    -0.0695     3.9170     3.9170    -0.0000
 13 N      7.4383     7.0000    -0.4383     3.3858     3.3858    -0.0000
 14 C      5.7650     6.0000     0.2350     3.7922     3.7922     0.0000
 15 N      7.4408     7.0000    -0.4408     3.3715     3.3715     0.0000
 16 C      5.7655     6.0000     0.2345     3.7885     3.7885    -0.0000
 17 C      6.0706     6.0000    -0.0706     3.9965     3.9965    -0.0000
 18 C      6.1939     6.0000    -0.1939     3.7521     3.7521    -0.0000
 19 C      5.7751     6.0000     0.2249     3.8774     3.8774     0.0000
 20 C      5.7908     6.0000     0.2092     3.8254     3.8254     0.0000
 21 C      6.0775     6.0000    -0.0775     3.9068     3.9068     0.0000
 22 C      6.0860     6.0000    -0.0860     3.9832     3.9832    -0.0000
 23 C      6.0479     6.0000    -0.0479     3.9902     3.9902    -0.0000
 24 C      5.7949     6.0000     0.2051     3.8231     3.8231    -0.0000
 25 C      5.8863     6.0000     0.1137     3.8895     3.8895     0.0000
 26 C      6.0732     6.0000    -0.0732     3.9033     3.9033    -0.0000
 27 C      5.7787     6.0000     0.2213     3.8808     3.8808    -0.0000
 28 C      6.0532     6.0000    -0.0532     3.9880     3.9880     0.0000
 29 C      6.1846     6.0000    -0.1846     3.7361     3.7361    -0.0000
 30 C      5.7631     6.0000     0.2369     3.7932     3.7932    -0.0000
 31 C      5.7861     6.0000     0.2139     3.8258     3.8258    -0.0000
 32 C      6.0644     6.0000    -0.0644     3.9186     3.9186    -0.0000
 33 C      6.0785     6.0000    -0.0785     3.9828     3.9828    -0.0000
 34 C      6.0498     6.0000    -0.0498     3.9908     3.9908     0.0000
 35 C      5.7929     6.0000     0.2071     3.8237     3.8237    -0.0000
 36 C      5.8867     6.0000     0.1133     3.8892     3.8892     0.0000
 37 C      6.0662     6.0000    -0.0662     3.9176     3.9176     0.0000
 38 C      5.7633     6.0000     0.2367     3.7999     3.7999     0.0000
 39 C      6.0613     6.0000    -0.0613     3.9900     3.9900    -0.0000
 40 C      6.1879     6.0000    -0.1879     3.7389     3.7389    -0.0000
 41 C      5.7792     6.0000     0.2208     3.8816     3.8816    -0.0000
 42 C      5.7976     6.0000     0.2024     3.8273     3.8273     0.0000
 43 C      6.0737     6.0000    -0.0737     3.9027     3.9027     0.0000
 44 C      6.0892     6.0000    -0.0892     3.9854     3.9854     0.0000
 45 C      6.0540     6.0000    -0.0540     3.9925     3.9925    -0.0000
 46 C      5.7958     6.0000     0.2042     3.8261     3.8261     0.0000
 47 C      5.8844     6.0000     0.1156     3.8938     3.8938     0.0000
 48 C      6.0740     6.0000    -0.0740     3.9045     3.9045    -0.0000
 49 C      5.7726     6.0000     0.2274     3.8855     3.8855     0.0000
 50 C      6.0520     6.0000    -0.0520     3.9903     3.9903    -0.0000
 51 C      6.1905     6.0000    -0.1905     3.7371     3.7371     0.0000
 52 H      0.9477     1.0000     0.0523     0.9852     0.9852    -0.0000
 53 H      1.0145     1.0000    -0.0145     0.9990     0.9990     0.0000
 54 H      0.9555     1.0000     0.0445     1.0105     1.0105     0.0000
 55 H      0.9492     1.0000     0.0508     0.9858     0.9858    -0.0000
 56 H      0.9425     1.0000     0.0575     0.9712     0.9712    -0.0000
 57 H      0.9446     1.0000     0.0554     0.9830     0.9830    -0.0000
 58 H      0.9451     1.0000     0.0549     0.9861     0.9861    -0.0000
 59 H      1.0118     1.0000    -0.0118     1.0004     1.0004    -0.0000
 60 H      0.9542     1.0000     0.0458     1.0077     1.0077    -0.0000
 61 H      0.8275     1.0000     0.1725     1.0424     1.0424     0.0000
 62 H      0.8267     1.0000     0.1733     1.0435     1.0435     0.0000
 63 H      0.9429     1.0000     0.0571     0.9854     0.9854    -0.0000
 64 H      1.0181     1.0000    -0.0181     0.9950     0.9950     0.0000
 65 H      0.9534     1.0000     0.0466     1.0093     1.0093     0.0000
 66 H      0.9423     1.0000     0.0577     0.9850     0.9850    -0.0000
 67 H      0.9367     1.0000     0.0633     0.9720     0.9720     0.0000
 68 H      0.9417     1.0000     0.0583     0.9868     0.9868    -0.0000
 69 H      0.9411     1.0000     0.0589     0.9830     0.9830     0.0000
 70 H      1.0251     1.0000    -0.0251     0.9938     0.9938    -0.0000
 71 H      0.9518     1.0000     0.0482     1.0065     1.0065     0.0000
 72 H      0.9416     1.0000     0.0584     0.9848     0.9848    -0.0000
 73 H      1.0133     1.0000    -0.0133     0.9989     0.9989     0.0000
 74 H      0.9515     1.0000     0.0485     1.0100     1.0100    -0.0000
 75 H      0.9426     1.0000     0.0574     0.9853     0.9853    -0.0000
 76 H      0.9363     1.0000     0.0637     0.9717     0.9717     0.0000
 77 H      0.9406     1.0000     0.0594     0.9851     0.9851     0.0000
 78 H      0.9414     1.0000     0.0586     0.9848     0.9848    -0.0000
 79 H      1.0140     1.0000    -0.0140     0.9993     0.9993     0.0000
 80 H      0.9512     1.0000     0.0488     1.0070     1.0070     0.0000
 81 H      0.9464     1.0000     0.0536     0.9855     0.9855     0.0000
 82 H      1.0241     1.0000    -0.0241     0.9940     0.9940     0.0000
 83 H      0.9573     1.0000     0.0427     1.0092     1.0092    -0.0000
 84 H      0.9469     1.0000     0.0531     0.9855     0.9855     0.0000
 85 H      0.9409     1.0000     0.0591     0.9716     0.9716    -0.0000
 86 H      0.9439     1.0000     0.0561     0.9840     0.9840     0.0000
 87 H      0.9433     1.0000     0.0567     0.9856     0.9856     0.0000
 88 H      1.0211     1.0000    -0.0211     0.9947     0.9947     0.0000
 89 H      0.9547     1.0000     0.0453     1.0068     1.0068    -0.0000

  Mayer bond orders larger than 0.100000
B(  0-C ,  1-N ) :   1.1123 B(  0-C , 17-C ) :   1.6487 B(  0-C , 52-H ) :   0.9690 
B(  1-N ,  8-C ) :   1.1072 B(  1-N , 10-C ) :   0.9650 B(  2-C , 12-C ) :   1.5331 
B(  2-C , 16-C ) :   1.3266 B(  2-C , 53-H ) :   0.9777 B(  3-N , 14-C ) :   1.2053 
B(  3-N , 16-C ) :   1.1944 B(  3-N , 61-H ) :   0.8986 B(  4-C ,  6-C ) :   1.2556 
B(  4-C , 17-C ) :   1.2534 B(  4-C , 18-C ) :   1.2964 B(  5-N , 19-C ) :   1.4248 
B(  5-N , 27-C ) :   1.4014 B(  6-C ,  8-C ) :   1.6495 B(  6-C , 54-H ) :   0.9703 
B(  7-N , 30-C ) :   1.1925 B(  7-N , 38-C ) :   1.2005 B(  7-N , 62-H ) :   0.8980 
B(  8-C , 55-H ) :   0.9703 B(  9-N , 41-C ) :   1.4052 B(  9-N , 49-C ) :   1.4186 
B( 10-C , 56-H ) :   0.9763 B( 10-C , 57-H ) :   0.9825 B( 10-C , 58-H ) :   0.9831 
B( 11-N , 20-C ) :   1.1265 B( 11-N , 24-C ) :   1.1224 B( 11-N , 25-C ) :   0.9578 
B( 12-C , 14-C ) :   1.3290 B( 12-C , 59-H ) :   0.9768 B( 13-N , 31-C ) :   1.1295 
B( 13-N , 35-C ) :   1.1222 B( 13-N , 36-C ) :   0.9573 B( 14-C , 18-C ) :   1.1876 
B( 15-N , 42-C ) :   1.1144 B( 15-N , 46-C ) :   1.1156 B( 15-N , 47-C ) :   0.9623 
B( 16-C , 51-C ) :   1.1975 B( 17-C , 60-H ) :   0.9708 B( 18-C , 19-C ) :   1.2003 
B( 19-C , 21-C ) :   1.2178 B( 20-C , 28-C ) :   1.6223 B( 20-C , 63-H ) :   0.9702 
B( 21-C , 26-C ) :   1.6373 B( 21-C , 64-H ) :   0.9733 B( 22-C , 23-C ) :   1.2853 
B( 22-C , 28-C ) :   1.2747 B( 22-C , 29-C ) :   1.2262 B( 23-C , 24-C ) :   1.6170 
B( 23-C , 65-H ) :   0.9709 B( 24-C , 66-H ) :   0.9692 B( 25-C , 67-H ) :   0.9762 
B( 25-C , 68-H ) :   0.9829 B( 25-C , 69-H ) :   0.9821 B( 26-C , 27-C ) :   1.2143 
B( 26-C , 70-H ) :   0.9729 B( 27-C , 29-C ) :   1.2262 B( 28-C , 71-H ) :   0.9715 
B( 29-C , 30-C ) :   1.2180 B( 30-C , 32-C ) :   1.3060 B( 31-C , 39-C ) :   1.6248 
B( 31-C , 72-H ) :   0.9694 B( 32-C , 37-C ) :   1.5524 B( 32-C , 73-H ) :   0.9779 
B( 33-C , 34-C ) :   1.2800 B( 33-C , 39-C ) :   1.2726 B( 33-C , 40-C ) :   1.2385 
B( 34-C , 35-C ) :   1.6217 B( 34-C , 74-H ) :   0.9703 B( 35-C , 75-H ) :   0.9694 
B( 36-C , 76-H ) :   0.9763 B( 36-C , 77-H ) :   0.9820 B( 36-C , 78-H ) :   0.9830 
B( 37-C , 38-C ) :   1.3079 B( 37-C , 79-H ) :   0.9776 B( 38-C , 40-C ) :   1.2129 
B( 39-C , 80-H ) :   0.9714 B( 40-C , 41-C ) :   1.2218 B( 41-C , 43-C ) :   1.2119 
B( 42-C , 50-C ) :   1.6338 B( 42-C , 81-H ) :   0.9696 B( 43-C , 48-C ) :   1.6395 
B( 43-C , 82-H ) :   0.9734 B( 44-C , 45-C ) :   1.2693 B( 44-C , 50-C ) :   1.2674 
B( 44-C , 51-C ) :   1.2572 B( 45-C , 46-C ) :   1.6332 B( 45-C , 83-H ) :   0.9713 
B( 46-C , 84-H ) :   0.9702 B( 47-C , 85-H ) :   0.9761 B( 47-C , 86-H ) :   0.9828 
B( 47-C , 87-H ) :   0.9826 B( 48-C , 49-C ) :   1.2122 B( 48-C , 88-H ) :   0.9740 
B( 49-C , 51-C ) :   1.2194 B( 50-C , 89-H ) :   0.9712 

-------
TIMINGS
-------

Total SCF time: 0 days 0 hours 40 min 8 sec 

Total time                  ....    2408.731 sec
Sum of individual times     ....    2405.925 sec  ( 99.9%)

Fock matrix formation       ....    2389.105 sec  ( 99.2%)
Diagonalization             ....       4.692 sec  (  0.2%)
Density matrix formation    ....       0.452 sec  (  0.0%)
Population analysis         ....       0.299 sec  (  0.0%)
Initial guess               ....       2.278 sec  (  0.1%)
Orbital Transformation      ....       0.000 sec  (  0.0%)
Orbital Orthonormalization  ....       0.000 sec  (  0.0%)
DIIS solution               ....       2.557 sec  (  0.1%)
SOSCF solution              ....       5.221 sec  (  0.2%)

Maximum memory used throughout the entire SCF-calculation: 304.1 MB


           ************************************************************
           *        Program running with 8 parallel MPI-processes     *
           *              working on a common directory               *
           ************************************************************

------------------------------------------------------------------------------
                                ORCA  MP2 
------------------------------------------------------------------------------

Freezing NCore=104 chemical core electrons

----------
MP2 ENERGY (disk based algorithm)
----------

Dimension of the basis                    ...  918
Memory devoted to MP2                     ... 7000 MB   
Data format for buffers                   ... DOUBLE
Compression type for matrix containers    ... UNCOMPRESSED

-------------------------------
PARTIAL EXCHANGE TRANSFORMATION
-------------------------------

Transformation type                        ... one-operator
Generation of integrals (i,mue|j,nue)      ... ON
Generation of integrals (mue,kappa|nue,tau)... OFF
Generation of integrals (i,mue|a,nue)      ... OFF
Dimension of the basis                     ...  918
Number of internal MOs                     ...  127 (  52- 178)
Pair cutoff                                ... 2.500e-12 Eh
Number of AO pairs in the trafo            ... 421821
Total Number of distinct AO pairs          ... 421821
Memory devoted for trafo                   ... 7000.0 MB 
Max. Number of MO pairs treated together   ... 1088      
Number Format for Storage                  ... Double (8 Byte)
Integral package used                      ... LIBINT

Starting integral evaluation:
    ... done with AO integral generation
Closing buffer AOK     (38.27 GB; CompressionRatio= 1.32)
Collecting buffer AOK 
Number of MO pairs included in the trafo   ... 8128
------------------------
SORTING OF (i,mue|j,nue)
------------------------

IBATCH = 1 of  1
Closing buffer KAO     (51.03 GB; CompressionRatio= 1.00)
Collecting buffer KAO 
N(AO-Batches) Done                         ... 172817067 
N(AO-Batches) Skipped                      ... 168329581 
N(IJ)-pairs Skipped                        ...         0 
TOTAL TIME for half transformation         ...  1647.901 sec
AO-integral generation                     ...   256.198 sec
Half transformation                        ...   485.487 sec
K-integral sorting                         ...   605.935 sec

Finished integral transformation - now doing MP2 part

OPERATOR COMBINATION   0   0: ij=( 52..178, 52..178)
Process 5:   Internal MO 132
Process 2:   Internal MO  84
Process 0:   Internal MO  54
Process 0:   Internal MO  57
Process 1:   Internal MO  69
Process 0:   Internal MO  60
Process 4:   Internal MO 117
Process 0:   Internal MO  63
Process 1:   Internal MO  72
Process 3:   Internal MO 102
Process 2:   Internal MO  87
Process 0:   Internal MO  66
Process 7:   Internal MO 165
Process 1:   Internal MO  75
Process 6:   Internal MO 150
Process 2:   Internal MO  90
Process 1:   Internal MO  78
Process 5:   Internal MO 135
Process 3:   Internal MO 105
Process 4:   Internal MO 120
Process 1:   Internal MO  81
Process 2:   Internal MO  93
Process 3:   Internal MO 108
Process 7:   Internal MO 168
Process 2:   Internal MO  96
Process 4:   Internal MO 123
Process 5:   Internal MO 138
Process 6:   Internal MO 153
Process 3:   Internal MO 111
Process 2:   Internal MO  99
Process 4:   Internal MO 126
Process 5:   Internal MO 141
Process 3:   Internal MO 114
Process 6:   Internal MO 156
Process 7:   Internal MO 171
Process 4:   Internal MO 129
Process 5:   Internal MO 144
Process 6:   Internal MO 159
Process 7:   Internal MO 174
Process 5:   Internal MO 147
Process 6:   Internal MO 162
Process 7:   Internal MO 177
-----------------------------------------------
 MP2 CORRELATION ENERGY   :     -7.289339140 Eh
-----------------------------------------------


-------
TIMINGS
-------
Total time                : 1797.282 sec
Integral trafo            : 1653.619 sec ( 92.0%)
K(i,j)                    :    9.125 sec (  0.5%)
T(i,j)                    :    0.110 sec (  0.0%)

---------------------------------------
MP2 TOTAL ENERGY:    -2130.915531147 Eh
---------------------------------------

Maximum memory used throughout the entire MP2-calculation: 6735.7 MB

-------------------------   --------------------
FINAL SINGLE POINT ENERGY     -2130.915531146869
-------------------------   --------------------


                            ***************************************
                            *     ORCA property calculations      *
                            ***************************************


  WARNING: The energy has been calculated at the MP2 level but the densities
           used in the property calculations are still SCF densities
           MP2 response densities have not been calculated 
           use %mp2 Density relaxed end
           or  %mp2 Density unrelaxed end

                                    ---------------------
                                    Active property flags
                                    ---------------------
   (+) Dipole Moment


------------------------------------------------------------------------------
                       ORCA ELECTRIC PROPERTIES CALCULATION
------------------------------------------------------------------------------

Dipole Moment Calculation                       ... on
Quadrupole Moment Calculation                   ... off
Polarizability Calculation                      ... off
GBWName                                         ... /scratch/chu_02/allen/tmpyp4_amber_gaff2/conf1/conf1/Conf303.orca.gbw
Electron density                                ... /scratch/chu_02/allen/tmpyp4_amber_gaff2/conf1/conf1/Conf303.orca.scfp
The origin for moment calculation is the CENTER OF MASS  = (-0.000777, -0.004591 -0.000746)

-------------
DIPOLE MOMENT
-------------
                                X             Y             Z
Electronic contribution:      0.05320      -1.32440      -0.05828
Nuclear contribution   :      0.02122       0.20187       0.07227
                        -----------------------------------------
Total Dipole Moment    :      0.07442      -1.12253       0.01398
                        -----------------------------------------
Magnitude (a.u.)       :      1.12508
Magnitude (Debye)      :      2.85972



--------------------
Rotational spectrum 
--------------------
 
Rotational constants in cm-1:     0.001500     0.001473     0.000762 
Rotational constants in MHz :    44.959247    44.168897    22.845042 

 Dipole components along the rotational axes: 
x,y,z [a.u.] :     0.435848    -1.037108     0.015623 
x,y,z [Debye]:     1.107839    -2.636120     0.039712 

 

Timings for individual modules:

Sum of individual times         ...     4214.555 sec (=  70.243 min)
GTO integral calculation        ...        4.350 sec (=   0.073 min)   0.1 %
SCF iterations                  ...     2411.184 sec (=  40.186 min)  57.2 %
MP2 module                      ...     1799.021 sec (=  29.984 min)  42.7 %
                             ****ORCA TERMINATED NORMALLY****
TOTAL RUN TIME: 0 days 1 hours 10 minutes 24 seconds 343 msec
# of primitive gaussian functions

