
                                 *****************
                                 * O   R   C   A *
                                 *****************

                                            #,                                       
                                            ###                                      
                                            ####                                     
                                            #####                                    
                                            ######                                   
                                           ########,                                 
                                     ,,################,,,,,                         
                               ,,#################################,,                 
                          ,,##########################################,,             
                       ,#########################################, ''#####,          
                    ,#############################################,,   '####,        
                  ,##################################################,,,,####,       
                ,###########''''           ''''###############################       
              ,#####''   ,,,,##########,,,,          '''####'''          '####       
            ,##' ,,,,###########################,,,                        '##       
           ' ,,###''''                  '''############,,,                           
         ,,##''                                '''############,,,,        ,,,,,,###''
      ,#''                                            '''#######################'''  
     '                                                          ''''####''''         
             ,#######,   #######,   ,#######,      ##                                
            ,#'     '#,  ##    ##  ,#'     '#,    #''#        ######   ,####,        
            ##       ##  ##   ,#'  ##            #'  '#       #        #'  '#        
            ##       ##  #######   ##           ,######,      #####,   #    #        
            '#,     ,#'  ##    ##  '#,     ,#' ,#      #,         ##   #,  ,#        
             '#######'   ##     ##  '#######'  #'      '#     #####' # '####'        



                  #######################################################
                  #                        -***-                        #
                  #          Department of theory and spectroscopy      #
                  #    Directorship and core code : Frank Neese         #
                  #        Max Planck Institute fuer Kohlenforschung    #
                  #                Kaiser Wilhelm Platz 1               #
                  #                 D-45470 Muelheim/Ruhr               #
                  #                      Germany                        #
                  #                                                     #
                  #                  All rights reserved                #
                  #                        -***-                        #
                  #######################################################


                         Program Version 5.0.4 -  RELEASE  -


 With contributions from (in alphabetic order):
   Daniel Aravena         : Magnetic Suceptibility
   Michael Atanasov       : Ab Initio Ligand Field Theory (pilot matlab implementation)
   Alexander A. Auer      : GIAO ZORA, VPT2 properties, NMR spectrum
   Ute Becker             : Parallelization
   Giovanni Bistoni       : ED, misc. LED, open-shell LED, HFLD
   Martin Brehm           : Molecular dynamics
   Dmytro Bykov           : SCF Hessian
   Vijay G. Chilkuri      : MRCI spin determinant printing, contributions to CSF-ICE
   Dipayan Datta          : RHF DLPNO-CCSD density
   Achintya Kumar Dutta   : EOM-CC, STEOM-CC
   Dmitry Ganyushin       : Spin-Orbit,Spin-Spin,Magnetic field MRCI
   Miquel Garcia          : C-PCM and meta-GGA Hessian, CC/C-PCM, Gaussian charge scheme
   Yang Guo               : DLPNO-NEVPT2, F12-NEVPT2, CIM, IAO-localization
   Andreas Hansen         : Spin unrestricted coupled pair/coupled cluster methods
   Benjamin Helmich-Paris : MC-RPA, TRAH-SCF, COSX integrals
   Lee Huntington         : MR-EOM, pCC
   Robert Izsak           : Overlap fitted RIJCOSX, COSX-SCS-MP3, EOM
   Marcus Kettner         : VPT2
   Christian Kollmar      : KDIIS, OOCD, Brueckner-CCSD(T), CCSD density, CASPT2, CASPT2-K
   Simone Kossmann        : Meta GGA functionals, TD-DFT gradient, OOMP2, MP2 Hessian
   Martin Krupicka        : Initial AUTO-CI
   Lucas Lang             : DCDCAS
   Marvin Lechner         : AUTO-CI (C++ implementation), FIC-MRCC
   Dagmar Lenk            : GEPOL surface, SMD
   Dimitrios Liakos       : Extrapolation schemes; Compound Job, initial MDCI parallelization
   Dimitrios Manganas     : Further ROCIS development; embedding schemes
   Dimitrios Pantazis     : SARC Basis sets
   Anastasios Papadopoulos: AUTO-CI, single reference methods and gradients
   Taras Petrenko         : DFT Hessian,TD-DFT gradient, ASA, ECA, R-Raman, ABS, FL, XAS/XES, NRVS
   Peter Pinski           : DLPNO-MP2, DLPNO-MP2 Gradient
   Christoph Reimann      : Effective Core Potentials
   Marius Retegan         : Local ZFS, SOC
   Christoph Riplinger    : Optimizer, TS searches, QM/MM, DLPNO-CCSD(T), (RO)-DLPNO pert. Triples
   Tobias Risthaus        : Range-separated hybrids, TD-DFT gradient, RPA, STAB
   Michael Roemelt        : Original ROCIS implementation
   Masaaki Saitow         : Open-shell DLPNO-CCSD energy and density
   Barbara Sandhoefer     : DKH picture change effects
   Avijit Sen             : IP-ROCIS
   Kantharuban Sivalingam : CASSCF convergence, NEVPT2, FIC-MRCI
   Bernardo de Souza      : ESD, SOC TD-DFT
   Georgi Stoychev        : AutoAux, RI-MP2 NMR, DLPNO-MP2 response
   Willem Van den Heuvel  : Paramagnetic NMR
   Boris Wezisla          : Elementary symmetry handling
   Frank Wennmohs         : Technical directorship


 We gratefully acknowledge several colleagues who have allowed us to
 interface, adapt or use parts of their codes:
   Stefan Grimme, W. Hujo, H. Kruse, P. Pracht,  : VdW corrections, initial TS optimization,
                  C. Bannwarth, S. Ehlert          DFT functionals, gCP, sTDA/sTD-DF
   Ed Valeev, F. Pavosevic, A. Kumar             : LibInt (2-el integral package), F12 methods
   Garnet Chan, S. Sharma, J. Yang, R. Olivares  : DMRG
   Ulf Ekstrom                                   : XCFun DFT Library
   Mihaly Kallay                                 : mrcc  (arbitrary order and MRCC methods)
   Jiri Pittner, Ondrej Demel                    : Mk-CCSD
   Frank Weinhold                                : gennbo (NPA and NBO analysis)
   Christopher J. Cramer and Donald G. Truhlar   : smd solvation model
   Lars Goerigk                                  : TD-DFT with DH, B97 family of functionals
   V. Asgeirsson, H. Jonsson                     : NEB implementation
   FAccTs GmbH                                   : IRC, NEB, NEB-TS, DLPNO-Multilevel, CI-OPT
                                                   MM, QMMM, 2- and 3-layer-ONIOM, Crystal-QMMM,
                                                   LR-CPCM, SF, NACMEs, symmetry and pop. for TD-DFT,
                                                   nearIR, NL-DFT gradient (VV10), updates on ESD,
                                                   ML-optimized integration grids
   S Lehtola, MJT Oliveira, MAL Marques          : LibXC Library
   Liviu Ungur et al                             : ANISO software


 Your calculation uses the libint2 library for the computation of 2-el integrals
 For citations please refer to: http://libint.valeyev.net

 Your ORCA version has been built with support for libXC version: 5.1.0
 For citations please refer to: https://tddft.org/programs/libxc/

 This ORCA versions uses:
   CBLAS   interface :  Fast vector & matrix operations
   LAPACKE interface :  Fast linear algebra routines
   SCALAPACK package :  Parallel linear algebra routines
   Shared memory     :  Shared parallel matrices
   BLAS/LAPACK       :  OpenBLAS 0.3.15  USE64BITINT DYNAMIC_ARCH NO_AFFINITY Sandybridge SINGLE_THREADED
        Core in use  :  Sandybridge
   Copyright (c) 2011-2014, The OpenBLAS Project


================================================================================

----- Orbital basis set information -----
Your calculation utilizes the basis: cc-pVDZ 
       H, B-Ne : Obtained from the ccRepo (grant-hill.group.shef.ac.uk/ccrepo) Feb. 2017
                 T. H. Dunning, Jr., J. Chem. Phys. 90, 1007 (1989)
            He : Obtained from the ccRepo (grant-hill.group.shef.ac.uk/ccrepo) Feb. 2017
                 D. E. Woon, T. H. Dunning, Jr., J. Chem. Phys. 100, 2975 (1994)
  Li-Be, Na-Mg : Obtained from the ccRepo (grant-hill.group.shef.ac.uk/ccrepo) Feb. 2017
                 B. P. Prascher, D. E. Woon, K. A. Peterson, T. H. Dunning, Jr., A. K. Wilson, Theor. Chem. Acc. 128, 69 (2011)
         Al-Ar : Obtained from the ccRepo (grant-hill.group.shef.ac.uk/ccrepo) Feb. 2017
                 D. E. Woon, T. H. Dunning, Jr., J. Chem. Phys. 98, 1358 (1993)
            Ca : Obtained from the Peterson Research Group Website (tyr0.chem.wsu.edu/~kipeters) Feb. 2017
                 J. Koput, K. A. Peterson, J. Phys. Chem. 106, 9595 (2002)
         Sc-Zn : Obtained from the ccRepo (grant-hill.group.shef.ac.uk/ccrepo) Feb. 2017
                 N. B. Balabanov, K. A. Peterson, J. Chem. Phys. 123, 064107 (2005)
                 N. B. Balabanov, K. A. Peterson, J. Chem. Phys. 125, 074110 (2006)
         Ga-Kr : Obtained from the ccRepo (grant-hill.group.shef.ac.uk/ccrepo) Feb. 2017
                 A. K. Wilson, D. E. Woon, K. A. Peterson, T. H. Dunning, Jr., J. Chem. Phys. 110, 7667 (1999)

================================================================================
                                        WARNINGS
                       Please study these warnings very carefully!
================================================================================


WARNING: No MP2 level density has been requested!
         To caclulate MP2 level properties use
         %mp2 Density relaxed end
         or
         %mp2 Density unrelaxed end

WARNING: Post HF methods need fully converged wavefunctions
  ===> : Setting SCFConvForced true
         You can overwrite this default with %scf ConvForced false 


INFO   : the flag for use of the SHARK integral package has been found!

================================================================================
                                       INPUT FILE
================================================================================
NAME = /scratch/allen/tmpyp4_amber_gaff2/2.Mdgx/conf11/conf11/Conf315.orca
|  1> ! PAL2
|  2> ! mp2 cc-pvdz TightSCF  NoKeepInts
|  3> 
|  4> %scf
|  5>   MaxCore 2000
|  6> end
|  7> %mp2
|  8>   MaxCore 2000
|  9> end
| 10> * xyz 0 1
| 11>    C       -3.34300         6.26600         0.94800
| 12>    C        1.47400         4.04100         0.05700
| 13>    C       -2.80200         4.09300         0.04900
| 14>    C       -3.89300         4.23800        -0.82100
| 15>    C       -4.66500         5.38200        -0.78100
| 16>    C       -5.21000         7.60400         0.08900
| 17>    C        0.13200         4.30700         0.06100
| 18>    C       -0.56900         3.05600         0.04700
| 19>    C        1.64900         2.61800         0.02300
| 20>    C       -2.53800         5.14300         0.94200
| 21>    N       -4.38800         6.37500         0.09700
| 22>    N        0.38800         2.06700         0.02500
| 23>    N       -2.01000         0.39500        -0.07500
| 24>    N       -0.38800        -2.07400        -0.02700
| 25>    N        2.01000        -0.40100         0.06500
| 26>    C       -1.96000         2.86100         0.02400
| 27>    C       -2.62300         1.61500        -0.01800
| 28>    C       -5.57300        -4.32900         1.06600
| 29>    C       -4.07300         1.47100         0.05600
| 30>    C       -4.10600        -2.75600        -0.02600
| 31>    C       -4.99500        -2.75700        -1.11100
| 32>    C       -6.13200        -3.54200        -1.07600
| 33>    C       -7.65100        -5.11300         0.04000
| 34>    C       -4.32400         0.14100         0.03700
| 35>    C       -3.02500        -0.52000        -0.04800
| 36>    C       -4.42200        -3.56600         1.07500
| 37>    N       -6.40700        -4.31300         0.00100
| 38>    C       -2.86700        -1.92200        -0.04000
| 39>    C       -1.65000        -2.62400        -0.02700
| 40>    C        3.56800        -6.14200        -1.04000
| 41>    C       -1.47600        -4.04900        -0.03400
| 42>    C        2.80300        -4.09900        -0.00800
| 43>    C        3.65700        -4.38400         1.06900
| 44>    C        4.42700        -5.53000         1.05900
| 45>    C        5.24500        -7.58800         0.01400
| 46>    C       -0.13400        -4.31500        -0.02200
| 47>    C        0.56800        -3.06400        -0.02700
| 48>    C        2.77500        -5.01200        -1.07400
| 49>    N        4.37600        -6.39100         0.01700
| 50>    C        1.95900        -2.86900        -0.00900
| 51>    C        2.62100        -1.62200         0.00900
| 52>    C        5.54300         4.33900        -1.13000
| 53>    C        4.07000        -1.47900        -0.09400
| 54>    C        4.10400         2.75100        -0.02100
| 55>    C        5.02700         2.72900         1.03600
| 56>    C        6.16600         3.50900         0.97800
| 57>    C        7.61900         5.15300        -0.11500
| 58>    C        4.32100        -0.14800        -0.09200
| 59>    C        3.02500         0.51400         0.01500
| 60>    C        4.38700         3.58200        -1.11500
| 61>    C        2.86600         1.91600         0.01300
| 62>    N        6.41300         4.29600        -0.09500
| 63>    H       -3.18400         7.09500         1.62800
| 64>    H        2.27400         4.76600         0.08100
| 65>    H       -4.14200         3.46700        -1.54000
| 66>    H       -5.51000         5.54300        -1.43800
| 67>    H       -4.81100         8.29500        -0.65800
| 68>    H       -6.23800         7.33800        -0.15900
| 69>    H       -5.17100         8.05900         1.07800
| 70>    H       -0.33200         5.28200         0.06900
| 71>    H       -1.71900         5.08500         1.64900
| 72>    H        0.18200         1.07200         0.00500
| 73>    H       -0.18300        -1.08000        -0.02100
| 74>    H       -5.86400        -4.96200         1.89500
| 75>    H       -4.79400         2.27200         0.13900
| 76>    H       -4.80000        -2.16000        -1.99400
| 77>    H       -6.84100        -3.58200        -1.89300
| 78>    H       -8.42800        -4.53600         0.54600
| 79>    H       -7.95600        -5.33700        -0.98100
| 80>    H       -7.45600        -6.03700         0.58400
| 81>    H       -5.28700        -0.34400         0.10000
| 82>    H       -3.78000        -3.60100         1.94700
| 83>    H        3.58700        -6.86800        -1.84300
| 84>    H       -2.27600        -4.77400        -0.05000
| 85>    H        3.71400        -3.72400         1.92600
| 86>    H        5.09200        -5.79500         1.87100
| 87>    H        6.20500        -7.32900        -0.43900
| 88>    H        5.39300        -7.91700         1.04200
| 89>    H        4.75900        -8.37300        -0.56400
| 90>    H        0.32900        -5.29000        -0.00800
| 91>    H        2.14600        -4.84200        -1.94000
| 92>    H        5.80800         4.98600        -1.95600
| 93>    H        4.78800        -2.28100        -0.18500
| 94>    H        4.86000         2.11400         1.91200
| 95>    H        6.90100         3.53100         1.77200
| 96>    H        7.38300         6.10900         0.35600
| 97>    H        8.41400         4.65200         0.43500
| 98>    H        7.92100         5.31000        -1.15000
| 99>    H        5.28300         0.33600        -0.17900
|100>    H        3.72000         3.63200        -1.96700
|101> *
|102> 
|103>                          ****END OF INPUT****
================================================================================

                       ****************************
                       * Single Point Calculation *
                       ****************************

---------------------------------
CARTESIAN COORDINATES (ANGSTROEM)
---------------------------------
  C     -3.343000    6.266000    0.948000
  C      1.474000    4.041000    0.057000
  C     -2.802000    4.093000    0.049000
  C     -3.893000    4.238000   -0.821000
  C     -4.665000    5.382000   -0.781000
  C     -5.210000    7.604000    0.089000
  C      0.132000    4.307000    0.061000
  C     -0.569000    3.056000    0.047000
  C      1.649000    2.618000    0.023000
  C     -2.538000    5.143000    0.942000
  N     -4.388000    6.375000    0.097000
  N      0.388000    2.067000    0.025000
  N     -2.010000    0.395000   -0.075000
  N     -0.388000   -2.074000   -0.027000
  N      2.010000   -0.401000    0.065000
  C     -1.960000    2.861000    0.024000
  C     -2.623000    1.615000   -0.018000
  C     -5.573000   -4.329000    1.066000
  C     -4.073000    1.471000    0.056000
  C     -4.106000   -2.756000   -0.026000
  C     -4.995000   -2.757000   -1.111000
  C     -6.132000   -3.542000   -1.076000
  C     -7.651000   -5.113000    0.040000
  C     -4.324000    0.141000    0.037000
  C     -3.025000   -0.520000   -0.048000
  C     -4.422000   -3.566000    1.075000
  N     -6.407000   -4.313000    0.001000
  C     -2.867000   -1.922000   -0.040000
  C     -1.650000   -2.624000   -0.027000
  C      3.568000   -6.142000   -1.040000
  C     -1.476000   -4.049000   -0.034000
  C      2.803000   -4.099000   -0.008000
  C      3.657000   -4.384000    1.069000
  C      4.427000   -5.530000    1.059000
  C      5.245000   -7.588000    0.014000
  C     -0.134000   -4.315000   -0.022000
  C      0.568000   -3.064000   -0.027000
  C      2.775000   -5.012000   -1.074000
  N      4.376000   -6.391000    0.017000
  C      1.959000   -2.869000   -0.009000
  C      2.621000   -1.622000    0.009000
  C      5.543000    4.339000   -1.130000
  C      4.070000   -1.479000   -0.094000
  C      4.104000    2.751000   -0.021000
  C      5.027000    2.729000    1.036000
  C      6.166000    3.509000    0.978000
  C      7.619000    5.153000   -0.115000
  C      4.321000   -0.148000   -0.092000
  C      3.025000    0.514000    0.015000
  C      4.387000    3.582000   -1.115000
  C      2.866000    1.916000    0.013000
  N      6.413000    4.296000   -0.095000
  H     -3.184000    7.095000    1.628000
  H      2.274000    4.766000    0.081000
  H     -4.142000    3.467000   -1.540000
  H     -5.510000    5.543000   -1.438000
  H     -4.811000    8.295000   -0.658000
  H     -6.238000    7.338000   -0.159000
  H     -5.171000    8.059000    1.078000
  H     -0.332000    5.282000    0.069000
  H     -1.719000    5.085000    1.649000
  H      0.182000    1.072000    0.005000
  H     -0.183000   -1.080000   -0.021000
  H     -5.864000   -4.962000    1.895000
  H     -4.794000    2.272000    0.139000
  H     -4.800000   -2.160000   -1.994000
  H     -6.841000   -3.582000   -1.893000
  H     -8.428000   -4.536000    0.546000
  H     -7.956000   -5.337000   -0.981000
  H     -7.456000   -6.037000    0.584000
  H     -5.287000   -0.344000    0.100000
  H     -3.780000   -3.601000    1.947000
  H      3.587000   -6.868000   -1.843000
  H     -2.276000   -4.774000   -0.050000
  H      3.714000   -3.724000    1.926000
  H      5.092000   -5.795000    1.871000
  H      6.205000   -7.329000   -0.439000
  H      5.393000   -7.917000    1.042000
  H      4.759000   -8.373000   -0.564000
  H      0.329000   -5.290000   -0.008000
  H      2.146000   -4.842000   -1.940000
  H      5.808000    4.986000   -1.956000
  H      4.788000   -2.281000   -0.185000
  H      4.860000    2.114000    1.912000
  H      6.901000    3.531000    1.772000
  H      7.383000    6.109000    0.356000
  H      8.414000    4.652000    0.435000
  H      7.921000    5.310000   -1.150000
  H      5.283000    0.336000   -0.179000
  H      3.720000    3.632000   -1.967000

----------------------------
CARTESIAN COORDINATES (A.U.)
----------------------------
  NO LB      ZA    FRAG     MASS         X           Y           Z
   0 C     6.0000    0    12.011   -6.317354   11.841024    1.791460
   1 C     6.0000    0    12.011    2.785456    7.636383    0.107714
   2 C     6.0000    0    12.011   -5.295013    7.734649    0.092597
   3 C     6.0000    0    12.011   -7.356704    8.008659   -1.551465
   4 C     6.0000    0    12.011   -8.815572   10.170506   -1.475876
   5 C     6.0000    0    12.011   -9.845473   14.369478    0.168186
   6 C     6.0000    0    12.011    0.249444    8.139050    0.115273
   7 C     6.0000    0    12.011   -1.075254    5.775003    0.088817
   8 C     6.0000    0    12.011    3.116158    4.947303    0.043464
   9 C     6.0000    0    12.011   -4.796125    9.718862    1.780122
  10 N     7.0000    0    14.007   -8.292118   12.047004    0.183303
  11 N     7.0000    0    14.007    0.733214    3.906064    0.047243
  12 N     7.0000    0    14.007   -3.798350    0.746442   -0.141729
  13 N     7.0000    0    14.007   -0.733214   -3.919292   -0.051023
  14 N     7.0000    0    14.007    3.798350   -0.757780    0.122832
  15 C     6.0000    0    12.011   -3.703863    5.406506    0.045353
  16 C     6.0000    0    12.011   -4.956752    3.051908   -0.034015
  17 C     6.0000    0    12.011  -10.531444   -8.180624    2.014448
  18 C     6.0000    0    12.011   -7.696855    2.779787    0.105825
  19 C     6.0000    0    12.011   -7.759216   -5.208085   -0.049133
  20 C     6.0000    0    12.011   -9.439182   -5.209975   -2.099486
  21 C     6.0000    0    12.011  -11.587801   -6.693410   -2.033345
  22 C     6.0000    0    12.011  -14.458295   -9.662170    0.075589
  23 C     6.0000    0    12.011   -8.171176    0.266451    0.069920
  24 C     6.0000    0    12.011   -5.716422   -0.982658   -0.090707
  25 C     6.0000    0    12.011   -8.356369   -6.738763    2.031456
  26 N     7.0000    0    14.007  -12.107475   -8.150389    0.001890
  27 C     6.0000    0    12.011   -5.417845   -3.632054   -0.075589
  28 C     6.0000    0    12.011   -3.118048   -4.958641   -0.051023
  29 C     6.0000    0    12.011    6.742543  -11.606698   -1.965315
  30 C     6.0000    0    12.011   -2.789236   -7.651501   -0.064251
  31 C     6.0000    0    12.011    5.296902   -7.745987   -0.015118
  32 C     6.0000    0    12.011    6.910728   -8.284559    2.020117
  33 C     6.0000    0    12.011    8.365818  -10.450186    2.001220
  34 C     6.0000    0    12.011    9.911614  -14.339242    0.026456
  35 C     6.0000    0    12.011   -0.253223   -8.154168   -0.041574
  36 C     6.0000    0    12.011    1.073364   -5.790121   -0.051023
  37 C     6.0000    0    12.011    5.243990   -9.471307   -2.029566
  38 N     7.0000    0    14.007    8.269442  -12.077240    0.032125
  39 C     6.0000    0    12.011    3.701973   -5.421624   -0.017008
  40 C     6.0000    0    12.011    4.952972   -3.065136    0.017008
  41 C     6.0000    0    12.011   10.474752    8.199522   -2.135391
  42 C     6.0000    0    12.011    7.691185   -2.794905   -0.177634
  43 C     6.0000    0    12.011    7.755436    5.198637   -0.039684
  44 C     6.0000    0    12.011    9.499653    5.157063    1.957756
  45 C     6.0000    0    12.011   11.652051    6.631049    1.848152
  46 C     6.0000    0    12.011   14.397823    9.737759   -0.217319
  47 C     6.0000    0    12.011    8.165507   -0.279679   -0.173855
  48 C     6.0000    0    12.011    5.716422    0.971319    0.028346
  49 C     6.0000    0    12.011    8.290229    6.768999   -2.107045
  50 C     6.0000    0    12.011    5.415955    3.620715    0.024566
  51 N     7.0000    0    14.007   12.118814    8.118263   -0.179524
  52 H     1.0000    0     1.008   -6.016888   13.407607    3.076474
  53 H     1.0000    0     1.008    4.297237    9.006435    0.153068
  54 H     1.0000    0     1.008   -7.827246    6.551681   -2.910178
  55 H     1.0000    0     1.008  -10.412391   10.474752   -2.717426
  56 H     1.0000    0     1.008   -9.091472   15.675278   -1.243440
  57 H     1.0000    0     1.008  -11.788112   13.866810   -0.300466
  58 H     1.0000    0     1.008   -9.771774   15.229303    2.037125
  59 H     1.0000    0     1.008   -0.627389    9.981533    0.130391
  60 H     1.0000    0     1.008   -3.248439    9.609257    3.116158
  61 H     1.0000    0     1.008    0.343930    2.025786    0.009449
  62 H     1.0000    0     1.008   -0.345820   -2.040904   -0.039684
  63 H     1.0000    0     1.008  -11.081354   -9.376821    3.581031
  64 H     1.0000    0     1.008   -9.059347    4.293458    0.262672
  65 H     1.0000    0     1.008   -9.070685   -4.081808   -3.768114
  66 H     1.0000    0     1.008  -12.927616   -6.768999   -3.577252
  67 H     1.0000    0     1.008  -15.926612   -8.571798    1.031790
  68 H     1.0000    0     1.008  -15.034661  -10.085468   -1.853821
  69 H     1.0000    0     1.008  -14.089798  -11.408277    1.103600
  70 H     1.0000    0     1.008   -9.990982   -0.650066    0.188973
  71 H     1.0000    0     1.008   -7.143165   -6.804904    3.679297
  72 H     1.0000    0     1.008    6.778448  -12.978639   -3.482765
  73 H     1.0000    0     1.008   -4.301017   -9.021553   -0.094486
  74 H     1.0000    0     1.008    7.018443   -7.037340    3.639613
  75 H     1.0000    0     1.008    9.622485  -10.950963    3.535678
  76 H     1.0000    0     1.008   11.725751  -13.849803   -0.829590
  77 H     1.0000    0     1.008   10.191293  -14.960962    1.969095
  78 H     1.0000    0     1.008    8.993207  -15.822677   -1.065806
  79 H     1.0000    0     1.008    0.621720   -9.996651   -0.015118
  80 H     1.0000    0     1.008    4.055352   -9.150054   -3.666069
  81 H     1.0000    0     1.008   10.975529    9.422175   -3.696304
  82 H     1.0000    0     1.008    9.048009   -4.310465   -0.349599
  83 H     1.0000    0     1.008    9.184069    3.994881    3.613156
  84 H     1.0000    0     1.008   13.041000    6.672623    3.348595
  85 H     1.0000    0     1.008   13.951848   11.544337    0.672743
  86 H     1.0000    0     1.008   15.900156    8.791006    0.822031
  87 H     1.0000    0     1.008   14.968521   10.034446   -2.173185
  88 H     1.0000    0     1.008    9.983423    0.634948   -0.338261
  89 H     1.0000    0     1.008    7.029781    6.863485   -3.717091

--------------------------------
INTERNAL COORDINATES (ANGSTROEM)
--------------------------------
 C      0   0   0     0.000000000000     0.00000000     0.00000000
 C      1   0   0     5.380334097433     0.00000000     0.00000000
 C      1   2   0     2.413050144527    50.59306294     0.00000000
 C      3   1   2     1.402927653160    87.91465339   217.42693987
 C      4   3   1     1.380695476925   120.16490498     0.12332130
 C      5   4   3     2.447694629646   152.49399184     1.67388803
 C      2   1   3     1.368114030335    16.44395264    13.40350519
 C      7   2   1     1.434084376876   108.05010202   214.46420696
 C      2   1   3     1.434123425651   121.56805897   335.15481135
 C      1   2   3     1.381734417318    30.85966480    36.35573516
 N      1   2   3     1.352075071880   128.39434871   309.21745255
 N      9   2   1     1.376127174356   106.58526707     9.86937638
 N     12   9   2     2.925062050624   168.53581413   171.12065651
 N     13  12   9     2.954513327098    91.55032014    11.12112580
 N     14  13  12     2.925371258490    88.43092389   359.84326247
 C      8   7   2     1.404790019896   127.24786865   181.11170171
 C     13  12   9     1.366535034311    81.72106996   188.00453233
 C     14  13  12     5.758810554272    80.56209567   166.76250791
 C     17  13  12     1.459010623676   111.08861209   183.82872609
 C     18  14  13     2.412235892279    27.27532823    36.33507194
 C     20  18  14     1.402692767501    87.95206320   148.94598259
 C     21  20  18     1.382106725257   120.14573887   359.70382047
 C     18  14  13     2.446510985056   144.15733107    82.80075377
 C     19  17  13     1.353610726908   106.29293361   359.75308708
 C     13  12   9     1.366813447402   172.21332906    33.46711076
 C     18  14  13     1.380960173213    15.08449437   309.23336894
 N     22  21  20     1.352773077792   120.73759875     0.27865223
 C     25  13  17     1.410897586645   125.60330303   182.37774668
 C     14  13  12     1.376642291955    80.24689249   177.85461986
 C     14  13  12     5.764089607215   164.51507311   312.20821879
 C     29  14  13     1.435600919476   106.58649366   178.76395472
 C     30  14  13     2.413316804732    27.10625047    82.12560436
 C     32  30  14     1.403734305344    87.90059683   149.76154742
 C     33  32  30     1.380694028378   120.14881443   359.74174632
 C     34  33  32     2.448777858443   152.49203239     2.45173620
 C     31  29  14     1.368160809262   108.16950133     0.70383075
 C     14  13  12     1.376239804685   169.26375223   353.09862627
 C     30  14  13     1.380907310430    14.68948582   353.70041132
 N     34  33  32     1.352658863128   120.85575621     0.19603406
 C     37  14  29     1.404717053360   126.01551127   180.90772073
 C     15  14  13     1.366491126938    81.61824056   183.09049352
 C      2   1   3     4.249062720177   150.99963355   143.11341643
 C     41  15  14     1.459677704153   111.05201287   175.08990246
 C     42   2   1     2.412953791518    41.78584867   166.60931469
 C     44  42   2     1.403446472082    87.95153797   233.97558675
 C     45  44  42     1.381696421071   120.11137308     0.19721020
 C     42   2   1     2.450019795838   135.97209175    76.92416380
 C     43  41  15     1.354461516618   106.26758155     0.30894352
 C     15  14  13     1.367461151185   171.87382904   332.35056460
 C     42   2   1     1.381886391857    32.59078432   215.46459389
 C      9   2   1     1.404988612053   126.98745415   190.87371391
 N     42   2   1     1.352765315936   113.57249190   104.66075299
 H      1   2   3     1.083938190120   106.78853846   162.68253647
 H      2   1   3     1.079907866440   112.45303130   164.83483892
 H      4   3   1     1.083237277793   121.11833944   179.52742432
 H      5   4   3     1.082402420544   122.83094502   179.40914556
 H      6   5   4     1.093019213006   104.46009880   100.10004367
 H      6   5   4     1.090432941542    84.69977203   209.47462950
 H      6   5   4     1.089342462222   133.93919394   322.29008215
 H      7   2   1     1.079807853278   126.66122480    34.70262074
 H     10   1   2     1.083500807568   118.75409169    66.70003314
 H     12   9   2     1.016297692608   125.29023241   180.00180175
 H     14  13  12     1.014936943854    44.97226959   359.42596618
 H     18  14  13     1.082871645210   128.03556573   234.20482432
 H     19  17  13     1.080893611786   126.41830519   178.11313280
 H     21  20  18     1.083569563987   121.05669627   180.67006309
 H     22  21  20     1.082483256222   122.73097286   180.59748951
 H     23  18  14     1.092105306278   103.92715769   234.93429879
 H     23  18  14     1.088871893291   134.19244188    12.25587044
 H     23  18  14     1.089833473518    84.85857450   125.45241208
 H     24  19  17     1.080075460327   127.28078426   178.44613241
 H     26  18  14     1.083408048706   118.76995697   244.94906660
 H     30  14  13     1.082703098730   127.99711412   279.66882698
 H     31  29  14     1.079759695488   125.22293469   180.92530585
 H     33  32  30     1.083188810873   121.01964473   180.74284758
 H     34  33  32     1.082494341787   122.70821597   180.59516895
 H     35  34  33     1.092652735319   105.73575241    97.19771933
 H     35  34  33     1.089462711615    84.05943581   206.43036958
 H     35  34  33     1.089268102902   133.08365142   318.50306270
 H     36  31  29     1.079439669458   126.61599965   178.98859863
 H     38  30  73     1.083742127999   118.77264435   359.90091293
 H     42   2   1     1.082178358682   119.31790784   321.29228344
 H     43  41  15     1.080281907652   126.36969097   182.06329380
 H     45  44  42     1.083277434455   121.10105945   179.58025624
 H     46  45  44     1.082194529648   122.72144639   179.46906377
 H     47  42   2     1.091546151109   106.65128841   315.16475048
 H     47  42   2     1.088818625851   132.46019523    94.52397119
 H     47  42   2     1.089531091801    83.63838232   206.04504406
 H     48  43  41     1.080402239909   127.23657387   181.62955349
 H     50  42   2     1.083186502870   118.77001737    94.71359229

---------------------------
INTERNAL COORDINATES (A.U.)
---------------------------
 C      0   0   0     0.000000000000     0.00000000     0.00000000
 C      1   0   0    10.167357953147     0.00000000     0.00000000
 C      1   2   0     4.560003920574    50.59306294     0.00000000
 C      3   1   2     2.651149050177    87.91465339   217.42693987
 C      4   3   1     2.609136325731   120.16490498     0.12332130
 C      5   4   3     4.625472509502   152.49399184     1.67388803
 C      2   1   3     2.585360837309    16.44395264    13.40350519
 C      7   2   1     2.710026725231   108.05010202   214.46420696
 C      2   1   3     2.710100516721   121.56805897   335.15481135
 C      1   2   3     2.611099638544    30.85966480    36.35573516
 N      1   2   3     2.555051598356   128.39434871   309.21745255
 N      9   2   1     2.600503484979   106.58526707     9.86937638
 N     12   9   2     5.527566200405   168.53581413   171.12065651
 N     13  12   9     5.583221047236    91.55032014    11.12112580
 N     14  13  12     5.528150518591    88.43092389   359.84326247
 C      8   7   2     2.654668413270   127.24786865   181.11170171
 C     13  12   9     2.582376967257    81.72106996   188.00453233
 C     14  13  12    10.882574804710    80.56209567   166.76250791
 C     17  13  12     2.757130505230   111.08861209   183.82872609
 C     18  14  13     4.558465206823    27.27532823    36.33507194
 C     20  18  14     2.650705180609    87.95206320   148.94598259
 C     21  20  18     2.611803198586   120.14573887   359.70382047
 C     18  14  13     4.623235745386   144.15733107    82.80075377
 C     19  17  13     2.557953565794   106.29293361   359.75308708
 C     13  12   9     2.582903091751   172.21332906    33.46711076
 C     18  14  13     2.609636529225    15.08449437   309.23336894
 N     22  21  20     2.556370638369   120.73759875     0.27865223
 C     25  13  17     2.666210041769   125.60330303   182.37774668
 C     14  13  12     2.601476916169    80.24689249   177.85461986
 C     14  13  12    10.892550769017   164.51507311   312.20821879
 C     29  14  13     2.712892575415   106.58649366   178.76395472
 C     30  14  13     4.560507835333    27.10625047    82.12560436
 C     32  30  14     2.652673401891    87.90059683   149.76154742
 C     33  32  30     2.609133588376   120.14881443   359.74174632
 C     34  33  32     4.627519515267   152.49203239     2.45173620
 C     31  29  14     2.585449236669   108.16950133     0.70383075
 C     14  13  12     2.600716325456   169.26375223   353.09862627
 C     30  14  13     2.609536633043    14.68948582   353.70041132
 N     34  33  32     2.556154803934   120.85575621     0.19603406
 C     37  14  29     2.654530526499   126.01551127   180.90772073
 C     15  14  13     2.582293994346    81.61824056   183.09049352
 C      2   1   3     8.029564866989   150.99963355   143.11341643
 C     41  15  14     2.758391104639   111.05201287   175.08990246
 C     42   2   1     4.559821839776    41.78584867   166.60931469
 C     44  42   2     2.652129475853    87.95153797   233.97558675
 C     45  44  42     2.611027836043   120.11137308     0.19721020
 C     42   2   1     4.629866436820   135.97209175    76.92416380
 C     43  41  15     2.559561325344   106.26758155     0.30894352
 C     15  14  13     2.584127074516   171.87382904   332.35056460
 C     42   2   1     2.611386828803    32.59078432   215.46459389
 C      9   2   1     2.655043698059   126.98745415   190.87371391
 N     42   2   1     2.556355970587   113.57249190   104.66075299
 H      1   2   3     2.048346325425   106.78853846   162.68253647
 H      2   1   3     2.040730117440   112.45303130   164.83483892
 H      4   3   1     2.047021793083   121.11833944   179.52742432
 H      5   4   3     2.045444141522   122.83094502   179.40914556
 H      6   5   4     2.065506971695   104.46009880   100.10004367
 H      6   5   4     2.060619626921    84.69977203   209.47462950
 H      6   5   4     2.058558919651   133.93919394   322.29008215
 H      7   2   1     2.040541119952   126.66122480    34.70262074
 H     10   1   2     2.047519792186   118.75409169    66.70003314
 H     12   9   2     1.920524309565   125.29023241   180.00180175
 H     14  13  12     1.917952867083    44.97226959   359.42596618
 H     18  14  13     2.046330847636   128.03556573   234.20482432
 H     19  17  13     2.042592906181   126.41830519   178.11313280
 H     21  20  18     2.047649722989   121.05669627   180.67006309
 H     22  21  20     2.045596898814   122.73097286   180.59748951
 H     23  18  14     2.063779938267   103.92715769   234.93429879
 H     23  18  14     2.057669673245   134.19244188    12.25587044
 H     23  18  14     2.059486796529    84.85857450   125.45241208
 H     24  19  17     2.041046823986   127.28078426   178.44613241
 H     26  18  14     2.047344503340   118.76995697   244.94906660
 H     30  14  13     2.046012340948   127.99711412   279.66882698
 H     31  29  14     2.040450114918   125.22293469   180.92530585
 H     33  32  30     2.046930203877   121.01964473   180.74284758
 H     34  33  32     2.045617847496   122.70821597   180.59516895
 H     35  34  33     2.064814429233   105.73575241    97.19771933
 H     35  34  33     2.058786158072    84.05943581   206.43036958
 H     35  34  33     2.058418400901   133.08365142   318.50306270
 H     36  31  29     2.039845353366   126.61599965   178.98859863
 H     38  30  73     2.047975821711   118.77264435   359.90091293
 H     42   2   1     2.045020725966   119.31790784   321.29228344
 H     43  41  15     2.041436952892   126.36969097   182.06329380
 H     45  44  42     2.047097678177   121.10105945   179.58025624
 H     46  45  44     2.045051284662   122.72144639   179.46906377
 H     47  42   2     2.062723288131   106.65128841   315.16475048
 H     47  42   2     2.057569012371   132.46019523    94.52397119
 H     47  42   2     2.058915377895    83.63838232   206.04504406
 H     48  43  41     2.041664347903   127.23657387   181.62955349
 H     50  42   2     2.046925842384   118.77001737    94.71359229

---------------------
BASIS SET INFORMATION
---------------------
There are 3 groups of distinct atoms

 Group   1 Type C   : 17s4p1d contracted to 3s2p1d pattern {881/31/1}
 Group   2 Type N   : 17s4p1d contracted to 3s2p1d pattern {881/31/1}
 Group   3 Type H   : 4s1p contracted to 2s1p pattern {31/1}

Atom   0C    basis set group =>   1
Atom   1N    basis set group =>   2
Atom   2C    basis set group =>   1
Atom   3N    basis set group =>   2
Atom   4C    basis set group =>   1
Atom   5N    basis set group =>   2
Atom   6C    basis set group =>   1
Atom   7N    basis set group =>   2
Atom   8C    basis set group =>   1
Atom   9N    basis set group =>   2
Atom  10C    basis set group =>   1
Atom  11N    basis set group =>   2
Atom  12C    basis set group =>   1
Atom  13N    basis set group =>   2
Atom  14C    basis set group =>   1
Atom  15N    basis set group =>   2
Atom  16C    basis set group =>   1
Atom  17C    basis set group =>   1
Atom  18C    basis set group =>   1
Atom  19C    basis set group =>   1
Atom  20C    basis set group =>   1
Atom  21C    basis set group =>   1
Atom  22C    basis set group =>   1
Atom  23C    basis set group =>   1
Atom  24C    basis set group =>   1
Atom  25C    basis set group =>   1
Atom  26C    basis set group =>   1
Atom  27C    basis set group =>   1
Atom  28C    basis set group =>   1
Atom  29C    basis set group =>   1
Atom  30C    basis set group =>   1
Atom  31C    basis set group =>   1
Atom  32C    basis set group =>   1
Atom  33C    basis set group =>   1
Atom  34C    basis set group =>   1
Atom  35C    basis set group =>   1
Atom  36C    basis set group =>   1
Atom  37C    basis set group =>   1
Atom  38C    basis set group =>   1
Atom  39C    basis set group =>   1
Atom  40C    basis set group =>   1
Atom  41C    basis set group =>   1
Atom  42C    basis set group =>   1
Atom  43C    basis set group =>   1
Atom  44C    basis set group =>   1
Atom  45C    basis set group =>   1
Atom  46C    basis set group =>   1
Atom  47C    basis set group =>   1
Atom  48C    basis set group =>   1
Atom  49C    basis set group =>   1
Atom  50C    basis set group =>   1
Atom  51C    basis set group =>   1
Atom  52H    basis set group =>   3
Atom  53H    basis set group =>   3
Atom  54H    basis set group =>   3
Atom  55H    basis set group =>   3
Atom  56H    basis set group =>   3
Atom  57H    basis set group =>   3
Atom  58H    basis set group =>   3
Atom  59H    basis set group =>   3
Atom  60H    basis set group =>   3
Atom  61H    basis set group =>   3
Atom  62H    basis set group =>   3
Atom  63H    basis set group =>   3
Atom  64H    basis set group =>   3
Atom  65H    basis set group =>   3
Atom  66H    basis set group =>   3
Atom  67H    basis set group =>   3
Atom  68H    basis set group =>   3
Atom  69H    basis set group =>   3
Atom  70H    basis set group =>   3
Atom  71H    basis set group =>   3
Atom  72H    basis set group =>   3
Atom  73H    basis set group =>   3
Atom  74H    basis set group =>   3
Atom  75H    basis set group =>   3
Atom  76H    basis set group =>   3
Atom  77H    basis set group =>   3
Atom  78H    basis set group =>   3
Atom  79H    basis set group =>   3
Atom  80H    basis set group =>   3
Atom  81H    basis set group =>   3
Atom  82H    basis set group =>   3
Atom  83H    basis set group =>   3
Atom  84H    basis set group =>   3
Atom  85H    basis set group =>   3
Atom  86H    basis set group =>   3
Atom  87H    basis set group =>   3
Atom  88H    basis set group =>   3
Atom  89H    basis set group =>   3


           ************************************************************
           *        Program running with 8 parallel MPI-processes     *
           *              working on a common directory               *
           ************************************************************
------------------------------------------------------------------------------
                           ORCA GTO INTEGRAL CALCULATION
------------------------------------------------------------------------------
------------------------------------------------------------------------------
                   ___                                                        
                  /   \      - P O W E R E D   B Y -                         
                 /     \                                                     
                 |  |  |   _    _      __       _____    __    __             
                 |  |  |  | |  | |    /  \     |  _  \  |  |  /  |          
                  \  \/   | |  | |   /    \    | | | |  |  | /  /          
                 / \  \   | |__| |  /  /\  \   | |_| |  |  |/  /          
                |  |  |   |  __  | /  /__\  \  |    /   |      \           
                |  |  |   | |  | | |   __   |  |    \   |  |\   \          
                \     /   | |  | | |  |  |  |  | |\  \  |  | \   \       
                 \___/    |_|  |_| |__|  |__|  |_| \__\ |__|  \__/        
                                                                              
                      - O R C A' S   B I G   F R I E N D -                    
                                      &                                       
                       - I N T E G R A L  F E E D E R -                       
                                                                              
 v1 FN, 2020, v2 2021                                                         
------------------------------------------------------------------------------


Reading SHARK input file /scratch/chu_02/allen/tmpyp4_amber_gaff2/conf1/conf1/Conf315.orca.SHARKINP.tmp ... ok
----------------------
SHARK INTEGRAL PACKAGE
----------------------

Number of atoms                             ...     90
Number of basis functions                   ...   1230
Number of shells                            ...    738
Maximum angular momentum                    ...      2
Integral batch strategy                     ... SHARK/LIBINT Hybrid
RI-J (if used) integral strategy            ... SPLIT-RIJ (Revised 2003 algorithm where possible)
Printlevel                                  ...      1
Contraction scheme used                     ... PARTIAL GENERAL contraction
Coulomb Range Separation                    ... NOT USED
Exchange Range Separation                   ... NOT USED
Finite Nucleus Model                        ... NOT USED
Auxiliary Coulomb fitting basis             ... NOT available
Auxiliary J/K fitting basis                 ... NOT available
Auxiliary Correlation fitting basis         ... NOT available
Auxiliary 'external' fitting basis          ... NOT available
Integral threshold                          ...     2.500000e-11
Primitive cut-off                           ...     2.500000e-12
Primitive pair pre-selection threshold      ...     2.500000e-12

Calculating pre-screening integrals         ... done (  0.1 sec) Dimension = 738
Calculating pre-screening integrals (ORCA)  ... done (  0.3 sec) Dimension = 426
Organizing shell pair data                  ... done (  0.4 sec)
Shell pair information
Total number of shell pairs                 ...    272691
Shell pairs after pre-screening             ...     71613
Total number of primitive shell pairs       ...    422091
Primitive shell pairs kept                  ...     92399
          la=0 lb=0:  29414 shell pairs
          la=1 lb=0:  25971 shell pairs
          la=1 lb=1:   4702 shell pairs
          la=2 lb=0:   7874 shell pairs
          la=2 lb=1:   3122 shell pairs
          la=2 lb=2:    530 shell pairs

Calculating one electron integrals          ... done (  0.2 sec)
Calculating Nuclear repulsion               ... done (  0.0 sec) ENN=   6227.416638706550 Eh

SHARK setup successfully completed in   1.5 seconds

Maximum memory used throughout the entire GTOINT-calculation: 99.0 MB


           ************************************************************
           *        Program running with 8 parallel MPI-processes     *
           *              working on a common directory               *
           ************************************************************
-------------------------------------------------------------------------------
                                 ORCA SCF
-------------------------------------------------------------------------------

------------
SCF SETTINGS
------------
Hamiltonian:
 Ab initio Hamiltonian  Method          .... Hartree-Fock(GTOs)


General Settings:
 Integral files         IntName         .... /scratch/chu_02/allen/tmpyp4_amber_gaff2/conf1/conf1/Conf315.orca
 Hartree-Fock type      HFTyp           .... RHF
 Total Charge           Charge          ....    0
 Multiplicity           Mult            ....    1
 Number of Electrons    NEL             ....  358
 Basis Dimension        Dim             ....  918
 Nuclear Repulsion      ENuc            ....   6227.4166387065 Eh

Convergence Acceleration:
 DIIS                   CNVDIIS         .... on
   Start iteration      DIISMaxIt       ....    12
   Startup error        DIISStart       ....  0.200000
   # of expansion vecs  DIISMaxEq       ....     5
   Bias factor          DIISBfac        ....   1.050
   Max. coefficient     DIISMaxC        ....  10.000
 Trust-Rad. Augm. Hess. CNVTRAH         .... auto
   Auto Start mean grad. ratio tolernc. ....  1.125000
   Auto Start start iteration           ....    20
   Auto Start num. interpolation iter.  ....    10
   Max. Number of Micro iterations      ....    16
   Max. Number of Macro iterations      .... Maxiter - #DIIS iter
   Number of Davidson start vectors     ....     2
   Converg. threshold I  (grad. norm)   ....   1.000e-05
   Converg. threshold II (energy diff.) ....   1.000e-08
   Grad. Scal. Fac. for Micro threshold ....   0.100
   Minimum threshold for Micro iter.    ....   0.010
   NR start threshold (gradient norm)   ....   0.001
   Initial trust radius                 ....   0.400
   Minimum AH scaling param. (alpha)    ....   1.000
   Maximum AH scaling param. (alpha)    .... 1000.000
   Orbital update algorithm             .... Taylor
   White noise on init. David. guess    .... on
   Maximum white noise                  ....   0.010
   Quad. conv. algorithm                .... NR
 SOSCF                  CNVSOSCF        .... on
   Start iteration      SOSCFMaxIt      ....   150
   Startup grad/error   SOSCFStart      ....  0.003300
 Level Shifting         CNVShift        .... on
   Level shift para.    LevelShift      ....    0.2500
   Turn off err/grad.   ShiftErr        ....    0.0010
 Zerner damping         CNVZerner       .... off
 Static damping         CNVDamp         .... on
   Fraction old density DampFac         ....    0.7000
   Max. Damping (<1)    DampMax         ....    0.9800
   Min. Damping (>=0)   DampMin         ....    0.0000
   Turn off err/grad.   DampErr         ....    0.1000
 Fernandez-Rico         CNVRico         .... off

SCF Procedure:
 Maximum # iterations   MaxIter         ....   125
 SCF integral mode      SCFMode         .... Direct
   Integral package                     .... SHARK and LIBINT hybrid scheme
 Reset frequency        DirectResetFreq ....    20
 Integral Threshold     Thresh          ....  2.500e-11 Eh
 Primitive CutOff       TCut            ....  2.500e-12 Eh

Convergence Tolerance:
 Convergence Check Mode ConvCheckMode   .... Total+1el-Energy
 Convergence forced     ConvForced      .... 1
 Energy Change          TolE            ....  1.000e-08 Eh
 1-El. energy change                    ....  1.000e-05 Eh
 Orbital Gradient       TolG            ....  1.000e-05
 Orbital Rotation angle TolX            ....  1.000e-05
 DIIS Error             TolErr          ....  5.000e-07


Diagonalization of the overlap matrix:
Smallest eigenvalue                        ... 2.242e-04
Time for diagonalization                   ...    0.208 sec
Threshold for overlap eigenvalues          ... 1.000e-08
Number of eigenvalues below threshold      ... 0
Time for construction of square roots      ...    0.122 sec
Total time needed                          ...    0.335 sec

Time for model grid setup =    1.316 sec

------------------------------
INITIAL GUESS: MODEL POTENTIAL
------------------------------
Loading Hartree-Fock densities                     ... done
Calculating cut-offs                               ... done
Initializing the effective Hamiltonian             ... done
Setting up the integral package (SHARK)            ... done
Starting the Coulomb interaction                   ... done (   1.6 sec)
Reading the grid                                   ... done
Mapping shells                                     ... done
Starting the XC term evaluation                    ... done (   0.3 sec)
Transforming the Hamiltonian                       ... done (   0.1 sec)
Diagonalizing the Hamiltonian                      ... done (   0.2 sec)
Back transforming the eigenvectors                 ... done (   0.0 sec)
Now organizing SCF variables                       ... done
                      ------------------
                      INITIAL GUESS DONE (   3.6 sec)
                      ------------------
--------------
SCF ITERATIONS
--------------
ITER       Energy         Delta-E        Max-DP      RMS-DP      [F,P]     Damp
               ***  Starting incremental Fock matrix formation  ***
  0  -2121.6911407453   0.000000000000 0.06875746  0.00120715  0.2325911 0.7000
  1  -2122.3516115453  -0.660470799965 0.05212980  0.00098022  0.1439886 0.7000
                               ***Turning on DIIS***
  2  -2122.7618628190  -0.410251273715 0.11786731  0.00222358  0.0802390 0.0000
  3  -2117.8323481530   4.929514666006 0.03018571  0.00067322  0.0441087 0.0000
  4  -2123.4299259044  -5.597577751343 0.00887907  0.00022623  0.0072577 0.0000
  5  -2123.5995783548  -0.169652450470 0.00514100  0.00013328  0.0049910 0.0000
  6  -2123.5823301120   0.017248242837 0.00346874  0.00008595  0.0019464 0.0000
  7  -2123.6839076645  -0.101577552510 0.00293991  0.00006750  0.0015328 0.0000
  8  -2123.6980198747  -0.014112210203 0.00306382  0.00006317  0.0014238 0.0000
  9  -2123.6649726006   0.033047274061 0.00245854  0.00004344  0.0011289 0.0000
 10  -2123.6762484161  -0.011275815432 0.00501442  0.00008725  0.0008653 0.0000
                      *** Initiating the SOSCF procedure ***
                           *** Shutting down DIIS ***
                      *** Re-Reading the Fockian *** 
                      *** Removing any level shift *** 
ITER      Energy       Delta-E        Grad      Rot      Max-DP    RMS-DP
 11  -2123.56467447   0.1115739489  0.000240  0.000240  0.000261  0.000006
               *** Restarting incremental Fock matrix formation ***
 12  -2123.62936051  -0.0646860410  0.000853  0.005739  0.001211  0.000030
 13  -2123.62943948  -0.0000789739  0.000979  0.026684  0.005762  0.000113
 14  -2123.62956470  -0.0001252163  0.000417  0.001903  0.000530  0.000012
 15  -2123.62957972  -0.0000150216  0.000180  0.003842  0.000951  0.000018
 16  -2123.62958943  -0.0000097059  0.000158  0.004269  0.000703  0.000015
 17  -2123.62959362  -0.0000041933  0.000141  0.002893  0.000381  0.000009
 18  -2123.62959579  -0.0000021717  0.000076  0.001314  0.000300  0.000005
 19  -2123.62959681  -0.0000010234  0.000055  0.000509  0.000160  0.000003
 20  -2123.62959712  -0.0000003036  0.000025  0.000479  0.000114  0.000002
 21  -2123.62959728  -0.0000001605  0.000024  0.000243  0.000076  0.000001
 22  -2123.62959736  -0.0000000856  0.000014  0.000331  0.000099  0.000002
 23  -2123.62959742  -0.0000000570  0.000009  0.000152  0.000043  0.000001
 24  -2123.62959744  -0.0000000220  0.000005  0.000110  0.000028  0.000000
 25  -2123.62959745  -0.0000000102  0.000004  0.000071  0.000018  0.000000
                  ***Gradient check signals convergence***
              ***Rediagonalizing the Fockian in SOSCF/NRSCF***

               *****************************************************
               *                     SUCCESS                       *
               *           SCF CONVERGED AFTER  26 CYCLES          *
               *****************************************************


----------------
TOTAL SCF ENERGY
----------------

Total Energy       :        -2123.62959746 Eh          -57786.89918 eV

Components:
Nuclear Repulsion  :         6227.41663871 Eh          169456.62175 eV
Electronic Energy  :        -8351.04623617 Eh         -227243.52092 eV
One Electron Energy:       -15295.81279232 Eh         -416220.22631 eV
Two Electron Energy:         6944.76655616 Eh          188976.70538 eV

Virial components:
Potential Energy   :        -4245.66199667 Eh         -115530.33638 eV
Kinetic Energy     :         2122.03239921 Eh           57743.43720 eV
Virial Ratio       :            2.00075267


---------------
SCF CONVERGENCE
---------------

  Last Energy change         ...   -7.7416e-09  Tolerance :   1.0000e-08
  Last MAX-Density change    ...    1.4811e-05  Tolerance :   1.0000e-07
  Last RMS-Density change    ...    3.0353e-07  Tolerance :   5.0000e-09
  Last Orbital Gradient      ...    2.3903e-06  Tolerance :   1.0000e-05
  Last Orbital Rotation      ...    8.1724e-05  Tolerance :   1.0000e-05

             **** THE GBW FILE WAS UPDATED (/scratch/chu_02/allen/tmpyp4_amber_gaff2/conf1/conf1/Conf315.orca.gbw) ****
             **** DENSITY /scratch/chu_02/allen/tmpyp4_amber_gaff2/conf1/conf1/Conf315.orca.scfp WAS UPDATED ****
             **** ENERGY FILE WAS UPDATED (/scratch/chu_02/allen/tmpyp4_amber_gaff2/conf1/conf1/Conf315.orca.en.tmp) ****
             **** THE GBW FILE WAS UPDATED (/scratch/chu_02/allen/tmpyp4_amber_gaff2/conf1/conf1/Conf315.orca.gbw) ****
             **** DENSITY /scratch/chu_02/allen/tmpyp4_amber_gaff2/conf1/conf1/Conf315.orca.scfp WAS UPDATED ****
----------------
ORBITAL ENERGIES
----------------

  NO   OCC          E(Eh)            E(eV) 
   0   2.0000     -15.659090      -426.1055 
   1   2.0000     -15.638784      -425.5530 
   2   2.0000     -15.628616      -425.2763 
   3   2.0000     -15.602342      -424.5613 
   4   2.0000     -15.522872      -422.3988 
   5   2.0000     -15.515708      -422.2039 
   6   2.0000     -15.448642      -420.3789 
   7   2.0000     -15.443670      -420.2436 
   8   2.0000     -11.315114      -307.8999 
   9   2.0000     -11.312693      -307.8340 
  10   2.0000     -11.310283      -307.7684 
  11   2.0000     -11.302278      -307.5506 
  12   2.0000     -11.296131      -307.3834 
  13   2.0000     -11.295769      -307.3735 
  14   2.0000     -11.292079      -307.2731 
  15   2.0000     -11.287181      -307.1398 
  16   2.0000     -11.284558      -307.0684 
  17   2.0000     -11.280615      -306.9611 
  18   2.0000     -11.266615      -306.5802 
  19   2.0000     -11.264522      -306.5232 
  20   2.0000     -11.262533      -306.4691 
  21   2.0000     -11.248744      -306.0939 
  22   2.0000     -11.247834      -306.0691 
  23   2.0000     -11.242296      -305.9184 
  24   2.0000     -11.234541      -305.7074 
  25   2.0000     -11.233969      -305.6918 
  26   2.0000     -11.233232      -305.6718 
  27   2.0000     -11.226999      -305.5022 
  28   2.0000     -11.226782      -305.4963 
  29   2.0000     -11.211834      -305.0895 
  30   2.0000     -11.206961      -304.9569 
  31   2.0000     -11.206760      -304.9514 
  32   2.0000     -11.206750      -304.9512 
  33   2.0000     -11.205704      -304.9227 
  34   2.0000     -11.190986      -304.5222 
  35   2.0000     -11.190667      -304.5135 
  36   2.0000     -11.181942      -304.2761 
  37   2.0000     -11.178984      -304.1956 
  38   2.0000     -11.178459      -304.1813 
  39   2.0000     -11.173950      -304.0586 
  40   2.0000     -11.167770      -303.8905 
  41   2.0000     -11.167737      -303.8896 
  42   2.0000     -11.165354      -303.8247 
  43   2.0000     -11.165069      -303.8170 
  44   2.0000     -11.164432      -303.7997 
  45   2.0000     -11.161969      -303.7326 
  46   2.0000     -11.151700      -303.4532 
  47   2.0000     -11.149628      -303.3968 
  48   2.0000     -11.147994      -303.3523 
  49   2.0000     -11.145670      -303.2891 
  50   2.0000     -11.137531      -303.0676 
  51   2.0000     -11.132482      -302.9302 
  52   2.0000      -1.342738       -36.5378 
  53   2.0000      -1.325343       -36.0644 
  54   2.0000      -1.316679       -35.8287 
  55   2.0000      -1.295202       -35.2442 
  56   2.0000      -1.222730       -33.2722 
  57   2.0000      -1.211024       -32.9536 
  58   2.0000      -1.166206       -31.7341 
  59   2.0000      -1.155414       -31.4404 
  60   2.0000      -1.128690       -30.7132 
  61   2.0000      -1.113555       -30.3014 
  62   2.0000      -1.106187       -30.1009 
  63   2.0000      -1.089103       -29.6360 
  64   2.0000      -1.065667       -28.9983 
  65   2.0000      -1.049290       -28.5526 
  66   2.0000      -1.041379       -28.3374 
  67   2.0000      -1.031979       -28.0816 
  68   2.0000      -1.021993       -27.8099 
  69   2.0000      -1.013345       -27.5745 
  70   2.0000      -1.009394       -27.4670 
  71   2.0000      -0.993409       -27.0320 
  72   2.0000      -0.986916       -26.8553 
  73   2.0000      -0.975347       -26.5405 
  74   2.0000      -0.973022       -26.4773 
  75   2.0000      -0.958855       -26.0918 
  76   2.0000      -0.950806       -25.8727 
  77   2.0000      -0.947281       -25.7768 
  78   2.0000      -0.937254       -25.5040 
  79   2.0000      -0.921929       -25.0870 
  80   2.0000      -0.897764       -24.4294 
  81   2.0000      -0.888715       -24.1832 
  82   2.0000      -0.876215       -23.8430 
  83   2.0000      -0.869461       -23.6592 
  84   2.0000      -0.863956       -23.5094 
  85   2.0000      -0.854740       -23.2587 
  86   2.0000      -0.846119       -23.0241 
  87   2.0000      -0.839399       -22.8412 
  88   2.0000      -0.822025       -22.3684 
  89   2.0000      -0.798775       -21.7358 
  90   2.0000      -0.795477       -21.6460 
  91   2.0000      -0.742933       -20.2162 
  92   2.0000      -0.736096       -20.0302 
  93   2.0000      -0.731368       -19.9015 
  94   2.0000      -0.722899       -19.6711 
  95   2.0000      -0.719525       -19.5793 
  96   2.0000      -0.713254       -19.4086 
  97   2.0000      -0.705157       -19.1883 
  98   2.0000      -0.701335       -19.0843 
  99   2.0000      -0.695874       -18.9357 
 100   2.0000      -0.692367       -18.8403 
 101   2.0000      -0.681540       -18.5456 
 102   2.0000      -0.678845       -18.4723 
 103   2.0000      -0.674237       -18.3469 
 104   2.0000      -0.670968       -18.2580 
 105   2.0000      -0.670459       -18.2441 
 106   2.0000      -0.663947       -18.0669 
 107   2.0000      -0.662235       -18.0203 
 108   2.0000      -0.656908       -17.8754 
 109   2.0000      -0.654588       -17.8122 
 110   2.0000      -0.650519       -17.7015 
 111   2.0000      -0.647656       -17.6236 
 112   2.0000      -0.643661       -17.5149 
 113   2.0000      -0.636398       -17.3173 
 114   2.0000      -0.632336       -17.2067 
 115   2.0000      -0.631031       -17.1712 
 116   2.0000      -0.623116       -16.9558 
 117   2.0000      -0.616082       -16.7644 
 118   2.0000      -0.613556       -16.6957 
 119   2.0000      -0.611593       -16.6423 
 120   2.0000      -0.608675       -16.5629 
 121   2.0000      -0.601767       -16.3749 
 122   2.0000      -0.598049       -16.2737 
 123   2.0000      -0.590093       -16.0572 
 124   2.0000      -0.589553       -16.0425 
 125   2.0000      -0.584575       -15.9071 
 126   2.0000      -0.578411       -15.7394 
 127   2.0000      -0.576441       -15.6858 
 128   2.0000      -0.563371       -15.3301 
 129   2.0000      -0.558533       -15.1984 
 130   2.0000      -0.554201       -15.0806 
 131   2.0000      -0.549650       -14.9567 
 132   2.0000      -0.542127       -14.7520 
 133   2.0000      -0.538180       -14.6446 
 134   2.0000      -0.534251       -14.5377 
 135   2.0000      -0.532232       -14.4828 
 136   2.0000      -0.525345       -14.2954 
 137   2.0000      -0.523539       -14.2462 
 138   2.0000      -0.517573       -14.0839 
 139   2.0000      -0.516460       -14.0536 
 140   2.0000      -0.509847       -13.8736 
 141   2.0000      -0.508896       -13.8478 
 142   2.0000      -0.508197       -13.8287 
 143   2.0000      -0.501960       -13.6590 
 144   2.0000      -0.500373       -13.6159 
 145   2.0000      -0.497464       -13.5367 
 146   2.0000      -0.493970       -13.4416 
 147   2.0000      -0.487682       -13.2705 
 148   2.0000      -0.487130       -13.2555 
 149   2.0000      -0.469103       -12.7650 
 150   2.0000      -0.463029       -12.5997 
 151   2.0000      -0.455006       -12.3814 
 152   2.0000      -0.448208       -12.1964 
 153   2.0000      -0.447037       -12.1645 
 154   2.0000      -0.445993       -12.1361 
 155   2.0000      -0.439999       -11.9730 
 156   2.0000      -0.433783       -11.8038 
 157   2.0000      -0.429305       -11.6820 
 158   2.0000      -0.398065       -10.8319 
 159   2.0000      -0.384863       -10.4727 
 160   2.0000      -0.379171       -10.3178 
 161   2.0000      -0.373747       -10.1702 
 162   2.0000      -0.370923       -10.0933 
 163   2.0000      -0.359786        -9.7903 
 164   2.0000      -0.353217        -9.6115 
 165   2.0000      -0.337400        -9.1811 
 166   2.0000      -0.336159        -9.1473 
 167   2.0000      -0.335219        -9.1218 
 168   2.0000      -0.328651        -8.9430 
 169   2.0000      -0.301150        -8.1947 
 170   2.0000      -0.299807        -8.1582 
 171   2.0000      -0.287482        -7.8228 
 172   2.0000      -0.285242        -7.7618 
 173   2.0000      -0.258420        -7.0320 
 174   2.0000      -0.246351        -6.7036 
 175   2.0000      -0.189158        -5.1472 
 176   2.0000      -0.179290        -4.8787 
 177   2.0000      -0.070620        -1.9217 
 178   2.0000      -0.056610        -1.5404 
 179   0.0000       0.029449         0.8013 
 180   0.0000       0.068660         1.8683 
 181   0.0000       0.092511         2.5174 
 182   0.0000       0.103133         2.8064 
 183   0.0000       0.120128         3.2688 
 184   0.0000       0.134072         3.6483 
 185   0.0000       0.141594         3.8530 
 186   0.0000       0.151748         4.1293 
 187   0.0000       0.160314         4.3624 
 188   0.0000       0.162323         4.4170 
 189   0.0000       0.162895         4.4326 
 190   0.0000       0.167668         4.5625 
 191   0.0000       0.180536         4.9126 
 192   0.0000       0.191343         5.2067 
 193   0.0000       0.194757         5.2996 
 194   0.0000       0.202244         5.5033 
 195   0.0000       0.205745         5.5986 
 196   0.0000       0.207755         5.6533 
 197   0.0000       0.210772         5.7354 
 198   0.0000       0.220075         5.9885 
 199   0.0000       0.225396         6.1333 
 200   0.0000       0.226637         6.1671 
 201   0.0000       0.237106         6.4520 
 202   0.0000       0.241675         6.5763 
 203   0.0000       0.244257         6.6466 
 204   0.0000       0.252485         6.8705 
 205   0.0000       0.254674         6.9300 
 206   0.0000       0.255326         6.9478 
 207   0.0000       0.259240         7.0543 
 208   0.0000       0.262284         7.1371 
 209   0.0000       0.262837         7.1522 
 210   0.0000       0.265656         7.2289 
 211   0.0000       0.269782         7.3411 
 212   0.0000       0.271610         7.3909 
 213   0.0000       0.273977         7.4553 
 214   0.0000       0.276780         7.5316 
 215   0.0000       0.278913         7.5896 
 216   0.0000       0.280929         7.6445 
 217   0.0000       0.281603         7.6628 
 218   0.0000       0.283072         7.7028 
 219   0.0000       0.288000         7.8369 
 220   0.0000       0.290142         7.8952 
 221   0.0000       0.293487         7.9862 
 222   0.0000       0.293753         7.9934 
 223   0.0000       0.295965         8.0536 
 224   0.0000       0.297893         8.1061 
 225   0.0000       0.299997         8.1633 
 226   0.0000       0.306720         8.3463 
 227   0.0000       0.307786         8.3753 
 228   0.0000       0.310384         8.4460 
 229   0.0000       0.315573         8.5872 
 230   0.0000       0.318545         8.6681 
 231   0.0000       0.323900         8.8138 
 232   0.0000       0.324581         8.8323 
 233   0.0000       0.330512         8.9937 
 234   0.0000       0.336386         9.1535 
 235   0.0000       0.342409         9.3174 
 236   0.0000       0.355136         9.6637 
 237   0.0000       0.382687        10.4134 
 238   0.0000       0.395207        10.7541 
 239   0.0000       0.398385        10.8406 
 240   0.0000       0.403266        10.9734 
 241   0.0000       0.415488        11.3060 
 242   0.0000       0.417812        11.3693 
 243   0.0000       0.424185        11.5427 
 244   0.0000       0.426311        11.6005 
 245   0.0000       0.433014        11.7829 
 246   0.0000       0.434374        11.8199 
 247   0.0000       0.438465        11.9312 
 248   0.0000       0.441108        12.0032 
 249   0.0000       0.443828        12.0772 
 250   0.0000       0.451152        12.2765 
 251   0.0000       0.457714        12.4550 
 252   0.0000       0.461189        12.5496 
 253   0.0000       0.461967        12.5708 
 254   0.0000       0.469907        12.7868 
 255   0.0000       0.474373        12.9084 
 256   0.0000       0.482852        13.1391 
 257   0.0000       0.483678        13.1615 
 258   0.0000       0.490226        13.3397 
 259   0.0000       0.498894        13.5756 
 260   0.0000       0.501169        13.6375 
 261   0.0000       0.503337        13.6965 
 262   0.0000       0.507236        13.8026 
 263   0.0000       0.509142        13.8545 
 264   0.0000       0.512930        13.9575 
 265   0.0000       0.515930        14.0392 
 266   0.0000       0.518740        14.1156 
 267   0.0000       0.523797        14.2532 
 268   0.0000       0.535312        14.5666 
 269   0.0000       0.538322        14.6485 
 270   0.0000       0.540878        14.7180 
 271   0.0000       0.545430        14.8419 
 272   0.0000       0.546000        14.8574 
 273   0.0000       0.554542        15.0899 
 274   0.0000       0.560212        15.2442 
 275   0.0000       0.565224        15.3805 
 276   0.0000       0.571199        15.5431 
 277   0.0000       0.576311        15.6822 
 278   0.0000       0.580638        15.8000 
 279   0.0000       0.584523        15.9057 
 280   0.0000       0.586809        15.9679 
 281   0.0000       0.590960        16.0809 
 282   0.0000       0.592631        16.1263 
 283   0.0000       0.597632        16.2624 
 284   0.0000       0.598514        16.2864 
 285   0.0000       0.599478        16.3126 
 286   0.0000       0.607033        16.5182 
 287   0.0000       0.611877        16.6500 
 288   0.0000       0.612310        16.6618 
 289   0.0000       0.619005        16.8440 
 290   0.0000       0.625615        17.0239 
 291   0.0000       0.627803        17.0834 
 292   0.0000       0.634820        17.2743 
 293   0.0000       0.636479        17.3195 
 294   0.0000       0.645681        17.5699 
 295   0.0000       0.650644        17.7049 
 296   0.0000       0.654572        17.8118 
 297   0.0000       0.658086        17.9074 
 298   0.0000       0.663409        18.0523 
 299   0.0000       0.666381        18.1332 
 300   0.0000       0.669287        18.2122 
 301   0.0000       0.670910        18.2564 
 302   0.0000       0.679353        18.4861 
 303   0.0000       0.682126        18.5616 
 304   0.0000       0.684681        18.6311 
 305   0.0000       0.687218        18.7001 
 306   0.0000       0.689362        18.7585 
 307   0.0000       0.693140        18.8613 
 308   0.0000       0.695516        18.9260 
 309   0.0000       0.697555        18.9814 
 310   0.0000       0.700867        19.0715 
 311   0.0000       0.704352        19.1664 
 312   0.0000       0.706160        19.2156 
 313   0.0000       0.708453        19.2780 
 314   0.0000       0.711360        19.3571 
 315   0.0000       0.713361        19.4115 
 316   0.0000       0.717310        19.5190 
 317   0.0000       0.718763        19.5585 
 318   0.0000       0.722024        19.6473 
 319   0.0000       0.723508        19.6877 
 320   0.0000       0.726800        19.7772 
 321   0.0000       0.729264        19.8443 
 322   0.0000       0.733429        19.9576 
 323   0.0000       0.736500        20.0412 
 324   0.0000       0.739129        20.1127 
 325   0.0000       0.740589        20.1525 
 326   0.0000       0.742851        20.2140 
 327   0.0000       0.744273        20.2527 
 328   0.0000       0.747690        20.3457 
 329   0.0000       0.749144        20.3853 
 330   0.0000       0.752521        20.4771 
 331   0.0000       0.754987        20.5442 
 332   0.0000       0.759880        20.6774 
 333   0.0000       0.762764        20.7559 
 334   0.0000       0.768269        20.9057 
 335   0.0000       0.772344        21.0165 
 336   0.0000       0.777609        21.1598 
 337   0.0000       0.781948        21.2779 
 338   0.0000       0.785254        21.3679 
 339   0.0000       0.787400        21.4263 
 340   0.0000       0.791518        21.5383 
 341   0.0000       0.792827        21.5739 
 342   0.0000       0.796820        21.6826 
 343   0.0000       0.800879        21.7930 
 344   0.0000       0.805285        21.9129 
 345   0.0000       0.806364        21.9423 
 346   0.0000       0.809174        22.0187 
 347   0.0000       0.812134        22.0993 
 348   0.0000       0.814665        22.1682 
 349   0.0000       0.816119        22.2077 
 350   0.0000       0.820331        22.3223 
 351   0.0000       0.823697        22.4139 
 352   0.0000       0.824936        22.4476 
 353   0.0000       0.827387        22.5143 
 354   0.0000       0.828445        22.5431 
 355   0.0000       0.831747        22.6330 
 356   0.0000       0.832857        22.6632 
 357   0.0000       0.835046        22.7228 
 358   0.0000       0.837692        22.7948 
 359   0.0000       0.838689        22.8219 
 360   0.0000       0.840748        22.8779 
 361   0.0000       0.842308        22.9204 
 362   0.0000       0.843216        22.9451 
 363   0.0000       0.846183        23.0258 
 364   0.0000       0.848457        23.0877 
 365   0.0000       0.848842        23.0982 
 366   0.0000       0.852848        23.2072 
 367   0.0000       0.857245        23.3268 
 368   0.0000       0.859678        23.3930 
 369   0.0000       0.863425        23.4950 
 370   0.0000       0.865331        23.5468 
 371   0.0000       0.871372        23.7112 
 372   0.0000       0.874490        23.7961 
 373   0.0000       0.878713        23.9110 
 374   0.0000       0.881626        23.9903 
 375   0.0000       0.883324        24.0365 
 376   0.0000       0.884498        24.0684 
 377   0.0000       0.889629        24.2080 
 378   0.0000       0.891139        24.2491 
 379   0.0000       0.892558        24.2877 
 380   0.0000       0.897216        24.4145 
 381   0.0000       0.899186        24.4681 
 382   0.0000       0.902938        24.5702 
 383   0.0000       0.903657        24.5897 
 384   0.0000       0.904179        24.6040 
 385   0.0000       0.905425        24.6379 
 386   0.0000       0.907939        24.7063 
 387   0.0000       0.909175        24.7399 
 388   0.0000       0.911323        24.7984 
 389   0.0000       0.915100        24.9011 
 390   0.0000       0.918714        24.9995 
 391   0.0000       0.919961        25.0334 
 392   0.0000       0.923846        25.1391 
 393   0.0000       0.926041        25.1988 
 394   0.0000       0.927985        25.2517 
 395   0.0000       0.930873        25.3303 
 396   0.0000       0.933200        25.3937 
 397   0.0000       0.935001        25.4427 
 398   0.0000       0.938308        25.5327 
 399   0.0000       0.941690        25.6247 
 400   0.0000       0.942906        25.6578 
 401   0.0000       0.948713        25.8158 
 402   0.0000       0.950142        25.8547 
 403   0.0000       0.956255        26.0210 
 404   0.0000       0.957287        26.0491 
 405   0.0000       0.958053        26.0700 
 406   0.0000       0.959466        26.1084 
 407   0.0000       0.963820        26.2269 
 408   0.0000       0.967007        26.3136 
 409   0.0000       0.973230        26.4829 
 410   0.0000       0.975260        26.5382 
 411   0.0000       0.981351        26.7039 
 412   0.0000       0.983255        26.7557 
 413   0.0000       0.986446        26.8426 
 414   0.0000       0.988132        26.8884 
 415   0.0000       0.994672        27.0664 
 416   0.0000       1.000259        27.2184 
 417   0.0000       1.003734        27.3130 
 418   0.0000       1.006234        27.3810 
 419   0.0000       1.015593        27.6357 
 420   0.0000       1.021926        27.8080 
 421   0.0000       1.028016        27.9737 
 422   0.0000       1.031761        28.0756 
 423   0.0000       1.040982        28.3266 
 424   0.0000       1.044150        28.4128 
 425   0.0000       1.050172        28.5766 
 426   0.0000       1.054846        28.7038 
 427   0.0000       1.062133        28.9021 
 428   0.0000       1.064874        28.9767 
 429   0.0000       1.070167        29.1207 
 430   0.0000       1.077328        29.3156 
 431   0.0000       1.082188        29.4478 
 432   0.0000       1.084637        29.5145 
 433   0.0000       1.088438        29.6179 
 434   0.0000       1.099113        29.9084 
 435   0.0000       1.104897        30.0658 
 436   0.0000       1.107367        30.1330 
 437   0.0000       1.110846        30.2277 
 438   0.0000       1.115181        30.3456 
 439   0.0000       1.116489        30.3812 
 440   0.0000       1.121467        30.5167 
 441   0.0000       1.124052        30.5870 
 442   0.0000       1.127307        30.6756 
 443   0.0000       1.128740        30.7146 
 444   0.0000       1.132803        30.8251 
 445   0.0000       1.133784        30.8518 
 446   0.0000       1.137577        30.9550 
 447   0.0000       1.142136        31.0791 
 448   0.0000       1.144122        31.1331 
 449   0.0000       1.148505        31.2524 
 450   0.0000       1.150845        31.3161 
 451   0.0000       1.152252        31.3544 
 452   0.0000       1.155283        31.4368 
 453   0.0000       1.157622        31.5005 
 454   0.0000       1.161535        31.6070 
 455   0.0000       1.169909        31.8348 
 456   0.0000       1.171736        31.8846 
 457   0.0000       1.177056        32.0293 
 458   0.0000       1.179846        32.1052 
 459   0.0000       1.185206        32.2511 
 460   0.0000       1.187279        32.3075 
 461   0.0000       1.193714        32.4826 
 462   0.0000       1.201945        32.7066 
 463   0.0000       1.202764        32.7289 
 464   0.0000       1.206231        32.8232 
 465   0.0000       1.207815        32.8663 
 466   0.0000       1.213076        33.0095 
 467   0.0000       1.215080        33.0640 
 468   0.0000       1.221534        33.2396 
 469   0.0000       1.228403        33.4265 
 470   0.0000       1.230485        33.4832 
 471   0.0000       1.233048        33.5529 
 472   0.0000       1.234977        33.6054 
 473   0.0000       1.236224        33.6394 
 474   0.0000       1.242179        33.8014 
 475   0.0000       1.246904        33.9300 
 476   0.0000       1.251912        34.0663 
 477   0.0000       1.252371        34.0787 
 478   0.0000       1.253009        34.0961 
 479   0.0000       1.255786        34.1717 
 480   0.0000       1.259542        34.2739 
 481   0.0000       1.263868        34.3916 
 482   0.0000       1.270112        34.5615 
 483   0.0000       1.272400        34.6238 
 484   0.0000       1.273519        34.6542 
 485   0.0000       1.276077        34.7238 
 486   0.0000       1.279445        34.8155 
 487   0.0000       1.282840        34.9078 
 488   0.0000       1.287892        35.0453 
 489   0.0000       1.290683        35.1213 
 490   0.0000       1.293940        35.2099 
 491   0.0000       1.298922        35.3455 
 492   0.0000       1.300408        35.3859 
 493   0.0000       1.306076        35.5401 
 494   0.0000       1.310812        35.6690 
 495   0.0000       1.314539        35.7704 
 496   0.0000       1.316348        35.8196 
 497   0.0000       1.323372        36.0108 
 498   0.0000       1.324630        36.0450 
 499   0.0000       1.328933        36.1621 
 500   0.0000       1.333170        36.2774 
 501   0.0000       1.336639        36.3718 
 502   0.0000       1.341815        36.5126 
 503   0.0000       1.348780        36.7022 
 504   0.0000       1.350262        36.7425 
 505   0.0000       1.351889        36.7868 
 506   0.0000       1.353542        36.8318 
 507   0.0000       1.357448        36.9380 
 508   0.0000       1.362040        37.0630 
 509   0.0000       1.363535        37.1037 
 510   0.0000       1.364887        37.1405 
 511   0.0000       1.367542        37.2127 
[...]
 76 H s       :     0.888602  s :     0.888602
      pz      :     0.022041  p :     0.079677
      px      :     0.043459
      py      :     0.014176
 77 H s       :     0.886870  s :     0.886870
      pz      :     0.047803  p :     0.079086
      px      :     0.015017
      py      :     0.016266
 78 H s       :     0.887291  s :     0.887291
      pz      :     0.025790  p :     0.079031
      px      :     0.020506
      py      :     0.032736
 79 H s       :     0.909641  s :     0.909641
      pz      :     0.021956  p :     0.086535
      px      :     0.021716
      py      :     0.042863
 80 H s       :     0.867770  s :     0.867770
      pz      :     0.039122  p :     0.084468
      px      :     0.030106
      py      :     0.015240
 81 H s       :     0.887162  s :     0.887162
      pz      :     0.037781  p :     0.084005
      px      :     0.016175
      py      :     0.030049
 82 H s       :     0.915771  s :     0.915771
      pz      :     0.022053  p :     0.086784
      px      :     0.031493
      py      :     0.033237
 83 H s       :     0.873376  s :     0.873376
      pz      :     0.039234  p :     0.084016
      px      :     0.015272
      py      :     0.029510
 84 H s       :     0.887185  s :     0.887185
      pz      :     0.035759  p :     0.083572
      px      :     0.031699
      py      :     0.016115
 85 H s       :     0.893510  s :     0.893510
      pz      :     0.022488  p :     0.079750
      px      :     0.014088
      py      :     0.043174
 86 H s       :     0.891065  s :     0.891065
      pz      :     0.024721  p :     0.078828
      px      :     0.032975
      py      :     0.021133
 87 H s       :     0.890133  s :     0.890133
      pz      :     0.047983  p :     0.078711
      px      :     0.015596
      py      :     0.015133
 88 H s       :     0.912210  s :     0.912210
      pz      :     0.021874  p :     0.087005
      px      :     0.042715
      py      :     0.022416
 89 H s       :     0.871714  s :     0.871714
      pz      :     0.037932  p :     0.083856
      px      :     0.030477
      py      :     0.015448


                      *****************************
                      * MAYER POPULATION ANALYSIS *
                      *****************************

  NA   - Mulliken gross atomic population
  ZA   - Total nuclear charge
  QA   - Mulliken gross atomic charge
  VA   - Mayer's total valence
  BVA  - Mayer's bonded valence
  FA   - Mayer's free valence

  ATOM       NA         ZA         QA         VA         BVA        FA
  0 C      5.7948     6.0000     0.2052     3.8397     3.8397     0.0000
  1 N      7.4505     7.0000    -0.4505     3.3387     3.3387     0.0000
  2 C      6.0642     6.0000    -0.0642     3.9205     3.9205    -0.0000
  3 N      7.3362     7.0000    -0.3362     3.4546     3.4546    -0.0000
  4 C      6.0574     6.0000    -0.0574     3.9870     3.9870    -0.0000
  5 N      7.5607     7.0000    -0.5607     3.0923     3.0923     0.0000
  6 C      6.0915     6.0000    -0.0915     4.0077     4.0077     0.0000
  7 N      7.3394     7.0000    -0.3394     3.4369     3.4369    -0.0000
  8 C      5.7987     6.0000     0.2013     3.8358     3.8358     0.0000
  9 N      7.5627     7.0000    -0.5627     3.0809     3.0809    -0.0000
 10 C      5.8826     6.0000     0.1174     3.9047     3.9047     0.0000
 11 N      7.4375     7.0000    -0.4375     3.3836     3.3836     0.0000
 12 C      6.0770     6.0000    -0.0770     3.9162     3.9162    -0.0000
 13 N      7.4343     7.0000    -0.4343     3.4056     3.4056     0.0000
 14 C      5.7669     6.0000     0.2331     3.7829     3.7829    -0.0000
 15 N      7.4412     7.0000    -0.4412     3.3702     3.3702     0.0000
 16 C      5.7694     6.0000     0.2306     3.7833     3.7833    -0.0000
 17 C      6.0990     6.0000    -0.0990     4.0070     4.0070     0.0000
 18 C      6.1872     6.0000    -0.1872     3.7679     3.7679    -0.0000
 19 C      5.7801     6.0000     0.2199     3.8651     3.8651    -0.0000
 20 C      5.7876     6.0000     0.2124     3.8270     3.8270    -0.0000
 21 C      6.0873     6.0000    -0.0873     3.9089     3.9089    -0.0000
 22 C      6.0876     6.0000    -0.0876     3.9824     3.9824    -0.0000
 23 C      6.0438     6.0000    -0.0438     3.9914     3.9914    -0.0000
 24 C      5.7998     6.0000     0.2002     3.8221     3.8221     0.0000
 25 C      5.8861     6.0000     0.1139     3.8898     3.8898     0.0000
 26 C      6.0736     6.0000    -0.0736     3.9058     3.9058     0.0000
 27 C      5.7850     6.0000     0.2150     3.8717     3.8717    -0.0000
 28 C      6.0571     6.0000    -0.0571     3.9884     3.9884     0.0000
 29 C      6.1817     6.0000    -0.1817     3.7410     3.7410    -0.0000
 30 C      5.7589     6.0000     0.2411     3.7958     3.7958    -0.0000
 31 C      5.7778     6.0000     0.2222     3.8223     3.8223    -0.0000
 32 C      6.0629     6.0000    -0.0629     3.9212     3.9212     0.0000
 33 C      6.0703     6.0000    -0.0703     3.9785     3.9785    -0.0000
 34 C      6.0496     6.0000    -0.0496     3.9877     3.9877     0.0000
 35 C      5.7838     6.0000     0.2162     3.8206     3.8206    -0.0000
 36 C      5.8890     6.0000     0.1110     3.8826     3.8826     0.0000
 37 C      6.0653     6.0000    -0.0653     3.9176     3.9176     0.0000
 38 C      5.7653     6.0000     0.2347     3.8010     3.8010     0.0000
 39 C      6.0602     6.0000    -0.0602     3.9868     3.9868    -0.0000
 40 C      6.1841     6.0000    -0.1841     3.7335     3.7335    -0.0000
 41 C      5.7776     6.0000     0.2224     3.8837     3.8837    -0.0000
 42 C      5.8007     6.0000     0.1993     3.8268     3.8268    -0.0000
 43 C      6.0732     6.0000    -0.0732     3.9012     3.9012    -0.0000
 44 C      6.0904     6.0000    -0.0904     3.9856     3.9856     0.0000
 45 C      6.0579     6.0000    -0.0579     3.9923     3.9923     0.0000
 46 C      5.7929     6.0000     0.2071     3.8276     3.8276    -0.0000
 47 C      5.8843     6.0000     0.1157     3.8939     3.8939    -0.0000
 48 C      6.0709     6.0000    -0.0709     3.9070     3.9070    -0.0000
 49 C      5.7673     6.0000     0.2327     3.8901     3.8901    -0.0000
 50 C      6.0492     6.0000    -0.0492     3.9906     3.9906    -0.0000
 51 C      6.1918     6.0000    -0.1918     3.7368     3.7368     0.0000
 52 H      0.9544     1.0000     0.0456     0.9856     0.9856     0.0000
 53 H      1.0155     1.0000    -0.0155     0.9986     0.9986    -0.0000
 54 H      0.9526     1.0000     0.0474     1.0119     1.0119     0.0000
 55 H      0.9565     1.0000     0.0435     0.9865     0.9865     0.0000
 56 H      0.9482     1.0000     0.0518     0.9703     0.9703     0.0000
 57 H      0.9489     1.0000     0.0511     0.9825     0.9825     0.0000
 58 H      0.9498     1.0000     0.0502     0.9856     0.9856     0.0000
 59 H      1.0041     1.0000    -0.0041     1.0027     1.0027     0.0000
 60 H      0.9528     1.0000     0.0472     1.0090     1.0090     0.0000
 61 H      0.8284     1.0000     0.1716     1.0420     1.0420     0.0000
 62 H      0.8255     1.0000     0.1745     1.0436     1.0436    -0.0000
 63 H      0.9431     1.0000     0.0569     0.9853     0.9853     0.0000
 64 H      1.0099     1.0000    -0.0099     0.9962     0.9962    -0.0000
 65 H      0.9531     1.0000     0.0469     1.0096     1.0096     0.0000
 66 H      0.9428     1.0000     0.0572     0.9852     0.9852     0.0000
 67 H      0.9365     1.0000     0.0635     0.9720     0.9720     0.0000
 68 H      0.9419     1.0000     0.0581     0.9868     0.9868     0.0000
 69 H      0.9419     1.0000     0.0581     0.9829     0.9829     0.0000
 70 H      1.0268     1.0000    -0.0268     0.9931     0.9931     0.0000
 71 H      0.9528     1.0000     0.0472     1.0062     1.0062    -0.0000
 72 H      0.9355     1.0000     0.0645     0.9842     0.9842    -0.0000
 73 H      1.0107     1.0000    -0.0107     0.9998     0.9998     0.0000
 74 H      0.9458     1.0000     0.0542     1.0101     1.0101     0.0000
 75 H      0.9363     1.0000     0.0637     0.9847     0.9847    -0.0000
 76 H      0.9310     1.0000     0.0690     0.9719     0.9719    -0.0000
 77 H      0.9365     1.0000     0.0635     0.9853     0.9853     0.0000
 78 H      0.9374     1.0000     0.0626     0.9851     0.9851     0.0000
 79 H      1.0149     1.0000    -0.0149     0.9985     0.9985    -0.0000
 80 H      0.9454     1.0000     0.0546     1.0071     1.0071    -0.0000
 81 H      0.9464     1.0000     0.0536     0.9856     0.9856     0.0000
 82 H      1.0247     1.0000    -0.0247     0.9936     0.9936    -0.0000
 83 H      0.9583     1.0000     0.0417     1.0087     1.0087     0.0000
 84 H      0.9469     1.0000     0.0531     0.9854     0.9854    -0.0000
 85 H      0.9405     1.0000     0.0595     0.9716     0.9716    -0.0000
 86 H      0.9445     1.0000     0.0555     0.9839     0.9839    -0.0000
 87 H      0.9433     1.0000     0.0567     0.9856     0.9856     0.0000
 88 H      1.0178     1.0000    -0.0178     0.9958     0.9958    -0.0000
 89 H      0.9541     1.0000     0.0459     1.0069     1.0069    -0.0000

  Mayer bond orders larger than 0.100000
B(  0-C ,  1-N ) :   1.0992 B(  0-C , 17-C ) :   1.6814 B(  0-C , 52-H ) :   0.9684 
B(  1-N ,  8-C ) :   1.0904 B(  1-N , 10-C ) :   0.9735 B(  2-C , 12-C ) :   1.5226 
B(  2-C , 16-C ) :   1.3404 B(  2-C , 53-H ) :   0.9770 B(  3-N , 14-C ) :   1.2130 
B(  3-N , 16-C ) :   1.1934 B(  3-N , 61-H ) :   0.8992 B(  4-C ,  6-C ) :   1.2275 
B(  4-C , 17-C ) :   1.2257 B(  4-C , 18-C ) :   1.3720 B(  5-N , 19-C ) :   1.4411 
B(  5-N , 27-C ) :   1.3891 B(  6-C ,  8-C ) :   1.6838 B(  6-C , 54-H ) :   0.9674 
B(  7-N , 30-C ) :   1.1935 B(  7-N , 38-C ) :   1.1962 B(  7-N , 62-H ) :   0.8973 
B(  8-C , 55-H ) :   0.9698 B(  9-N , 41-C ) :   1.3979 B(  9-N , 49-C ) :   1.4242 
B( 10-C , 56-H ) :   0.9764 B( 10-C , 57-H ) :   0.9828 B( 10-C , 58-H ) :   0.9833 
B( 11-N , 20-C ) :   1.1301 B( 11-N , 24-C ) :   1.1160 B( 11-N , 25-C ) :   0.9582 
B( 12-C , 14-C ) :   1.3435 B( 12-C , 59-H ) :   0.9750 B( 13-N , 31-C ) :   1.1448 
B( 13-N , 35-C ) :   1.1384 B( 13-N , 36-C ) :   0.9499 B( 14-C , 18-C ) :   1.1587 
B( 15-N , 42-C ) :   1.1098 B( 15-N , 46-C ) :   1.1186 B( 15-N , 47-C ) :   0.9624 
B( 16-C , 51-C ) :   1.1839 B( 17-C , 60-H ) :   0.9679 B( 18-C , 19-C ) :   1.1658 
B( 19-C , 21-C ) :   1.2302 B( 20-C , 28-C ) :   1.6238 B( 20-C , 63-H ) :   0.9702 
B( 21-C , 26-C ) :   1.6283 B( 21-C , 64-H ) :   0.9716 B( 22-C , 23-C ) :   1.2892 
B( 22-C , 28-C ) :   1.2709 B( 22-C , 29-C ) :   1.2215 B( 23-C , 24-C ) :   1.6165 
B( 23-C , 65-H ) :   0.9706 B( 24-C , 66-H ) :   0.9693 B( 25-C , 67-H ) :   0.9761 
B( 25-C , 68-H ) :   0.9828 B( 25-C , 69-H ) :   0.9822 B( 26-C , 27-C ) :   1.2252 
B( 26-C , 70-H ) :   0.9720 B( 27-C , 29-C ) :   1.2212 B( 28-C , 71-H ) :   0.9717 
B( 29-C , 30-C ) :   1.2306 B( 30-C , 32-C ) :   1.2931 B( 31-C , 39-C ) :   1.6079 
B( 31-C , 72-H ) :   0.9688 B( 32-C , 37-C ) :   1.5658 B( 32-C , 73-H ) :   0.9782 
B( 33-C , 34-C ) :   1.2935 B( 33-C , 39-C ) :   1.2864 B( 33-C , 40-C ) :   1.2080 
B( 34-C , 35-C ) :   1.6044 B( 34-C , 74-H ) :   0.9700 B( 35-C , 75-H ) :   0.9689 
B( 36-C , 76-H ) :   0.9765 B( 36-C , 77-H ) :   0.9818 B( 36-C , 78-H ) :   0.9827 
B( 37-C , 38-C ) :   1.2961 B( 37-C , 79-H ) :   0.9772 B( 38-C , 40-C ) :   1.2232 
B( 39-C , 80-H ) :   0.9710 B( 40-C , 41-C ) :   1.2357 B( 41-C , 43-C ) :   1.2000 
B( 42-C , 50-C ) :   1.6351 B( 42-C , 81-H ) :   0.9696 B( 43-C , 48-C ) :   1.6516 
B( 43-C , 82-H ) :   0.9728 B( 44-C , 45-C ) :   1.2650 B( 44-C , 50-C ) :   1.2686 
B( 44-C , 51-C ) :   1.2619 B( 45-C , 46-C ) :   1.6356 B( 45-C , 83-H ) :   0.9716 
B( 46-C , 84-H ) :   0.9702 B( 47-C , 85-H ) :   0.9762 B( 47-C , 86-H ) :   0.9829 
B( 47-C , 87-H ) :   0.9825 B( 48-C , 49-C ) :   1.2022 B( 48-C , 88-H ) :   0.9745 
B( 49-C , 51-C ) :   1.2280 B( 50-C , 89-H ) :   0.9711 

-------
TIMINGS
-------

Total SCF time: 0 days 0 hours 41 min 3 sec 

Total time                  ....    2463.272 sec
Sum of individual times     ....    2460.430 sec  ( 99.9%)

Fock matrix formation       ....    2443.764 sec  ( 99.2%)
Diagonalization             ....       4.691 sec  (  0.2%)
Density matrix formation    ....       0.455 sec  (  0.0%)
Population analysis         ....       0.307 sec  (  0.0%)
Initial guess               ....       2.279 sec  (  0.1%)
Orbital Transformation      ....       0.000 sec  (  0.0%)
Orbital Orthonormalization  ....       0.000 sec  (  0.0%)
DIIS solution               ....       2.515 sec  (  0.1%)
SOSCF solution              ....       5.104 sec  (  0.2%)

Maximum memory used throughout the entire SCF-calculation: 304.2 MB


           ************************************************************
           *        Program running with 8 parallel MPI-processes     *
           *              working on a common directory               *
           ************************************************************

------------------------------------------------------------------------------
                                ORCA  MP2 
------------------------------------------------------------------------------

Freezing NCore=104 chemical core electrons

----------
MP2 ENERGY (disk based algorithm)
----------

Dimension of the basis                    ...  918
Memory devoted to MP2                     ... 7000 MB   
Data format for buffers                   ... DOUBLE
Compression type for matrix containers    ... UNCOMPRESSED

-------------------------------
PARTIAL EXCHANGE TRANSFORMATION
-------------------------------

Transformation type                        ... one-operator
Generation of integrals (i,mue|j,nue)      ... ON
Generation of integrals (mue,kappa|nue,tau)... OFF
Generation of integrals (i,mue|a,nue)      ... OFF
Dimension of the basis                     ...  918
Number of internal MOs                     ...  127 (  52- 178)
Pair cutoff                                ... 2.500e-12 Eh
Number of AO pairs in the trafo            ... 421821
Total Number of distinct AO pairs          ... 421821
Memory devoted for trafo                   ... 7000.0 MB 
Max. Number of MO pairs treated together   ... 1088      
Number Format for Storage                  ... Double (8 Byte)
Integral package used                      ... LIBINT

Starting integral evaluation:
    ... done with AO integral generation
Closing buffer AOK     (38.23 GB; CompressionRatio= 1.33)
Collecting buffer AOK 
Number of MO pairs included in the trafo   ... 8128
------------------------
SORTING OF (i,mue|j,nue)
------------------------

IBATCH = 1 of  1
Closing buffer KAO     (51.03 GB; CompressionRatio= 1.00)
Collecting buffer KAO 
N(AO-Batches) Done                         ... 174232518 
N(AO-Batches) Skipped                      ... 167091996 
N(IJ)-pairs Skipped                        ...         0 
TOTAL TIME for half transformation         ...  1356.102 sec
AO-integral generation                     ...   254.470 sec
Half transformation                        ...   474.816 sec
K-integral sorting                         ...   327.445 sec

Finished integral transformation - now doing MP2 part

OPERATOR COMBINATION   0   0: ij=( 52..178, 52..178)
Process 2:   Internal MO  84
Process 5:   Internal MO 132
Process 0:   Internal MO  54
Process 0:   Internal MO  57
Process 1:   Internal MO  69
Process 0:   Internal MO  60
Process 4:   Internal MO 117
Process 0:   Internal MO  63
Process 1:   Internal MO  72
Process 3:   Internal MO 102
Process 2:   Internal MO  87
Process 0:   Internal MO  66
Process 7:   Internal MO 165
Process 1:   Internal MO  75
Process 6:   Internal MO 150
Process 2:   Internal MO  90
Process 1:   Internal MO  78
Process 5:   Internal MO 135
Process 3:   Internal MO 105
Process 4:   Internal MO 120
Process 1:   Internal MO  81
Process 2:   Internal MO  93
Process 3:   Internal MO 108
Process 2:   Internal MO  96
Process 7:   Internal MO 168
Process 4:   Internal MO 123
Process 6:   Internal MO 153
Process 5:   Internal MO 138
Process 3:   Internal MO 111
Process 2:   Internal MO  99
Process 4:   Internal MO 126
Process 5:   Internal MO 141
Process 3:   Internal MO 114
Process 6:   Internal MO 156
Process 7:   Internal MO 171
Process 4:   Internal MO 129
Process 5:   Internal MO 144
Process 6:   Internal MO 159
Process 7:   Internal MO 174
Process 5:   Internal MO 147
Process 6:   Internal MO 162
Process 7:   Internal MO 177
-----------------------------------------------
 MP2 CORRELATION ENERGY   :     -7.285005623 Eh
-----------------------------------------------


-------
TIMINGS
-------
Total time                : 1513.704 sec
Integral trafo            : 1364.927 sec ( 90.2%)
K(i,j)                    :    9.427 sec (  0.6%)
T(i,j)                    :    0.152 sec (  0.0%)

---------------------------------------
MP2 TOTAL ENERGY:    -2130.914603084 Eh
---------------------------------------

Maximum memory used throughout the entire MP2-calculation: 6735.7 MB

-------------------------   --------------------
FINAL SINGLE POINT ENERGY     -2130.914603084251
-------------------------   --------------------


                            ***************************************
                            *     ORCA property calculations      *
                            ***************************************


  WARNING: The energy has been calculated at the MP2 level but the densities
           used in the property calculations are still SCF densities
           MP2 response densities have not been calculated 
           use %mp2 Density relaxed end
           or  %mp2 Density unrelaxed end

                                    ---------------------
                                    Active property flags
                                    ---------------------
   (+) Dipole Moment


------------------------------------------------------------------------------
                       ORCA ELECTRIC PROPERTIES CALCULATION
------------------------------------------------------------------------------

Dipole Moment Calculation                       ... on
Quadrupole Moment Calculation                   ... off
Polarizability Calculation                      ... off
GBWName                                         ... /scratch/chu_02/allen/tmpyp4_amber_gaff2/conf1/conf1/Conf315.orca.gbw
Electron density                                ... /scratch/chu_02/allen/tmpyp4_amber_gaff2/conf1/conf1/Conf315.orca.scfp
The origin for moment calculation is the CENTER OF MASS  = (-0.001106, -0.004856 -0.000227)

-------------
DIPOLE MOMENT
-------------
                                X             Y             Z
Electronic contribution:      1.23231      -2.89464      -0.05924
Nuclear contribution   :      0.00867       0.19655       0.07001
                        -----------------------------------------
Total Dipole Moment    :      1.24098      -2.69809       0.01077
                        -----------------------------------------
Magnitude (a.u.)       :      2.96982
Magnitude (Debye)      :      7.54868



--------------------
Rotational spectrum 
--------------------
 
Rotational constants in cm-1:     0.001501     0.001475     0.000761 
Rotational constants in MHz :    44.989746    44.204878    22.827845 

 Dipole components along the rotational axes: 
x,y,z [a.u.] :     1.958383    -2.232578     0.012705 
x,y,z [Debye]:     4.977815    -5.674762     0.032293 

 

Timings for individual modules:

Sum of individual times         ...     3982.316 sec (=  66.372 min)
GTO integral calculation        ...        2.780 sec (=   0.046 min)   0.1 %
SCF iterations                  ...     2464.552 sec (=  41.076 min)  61.9 %
MP2 module                      ...     1514.984 sec (=  25.250 min)  38.0 %
                             ****ORCA TERMINATED NORMALLY****
TOTAL RUN TIME: 0 days 1 hours 6 minutes 25 seconds 117 msec
# of primitive gaussian functions

