
                                 *****************
                                 * O   R   C   A *
                                 *****************

                                            #,                                       
                                            ###                                      
                                            ####                                     
                                            #####                                    
                                            ######                                   
                                           ########,                                 
                                     ,,################,,,,,                         
                               ,,#################################,,                 
                          ,,##########################################,,             
                       ,#########################################, ''#####,          
                    ,#############################################,,   '####,        
                  ,##################################################,,,,####,       
                ,###########''''           ''''###############################       
              ,#####''   ,,,,##########,,,,          '''####'''          '####       
            ,##' ,,,,###########################,,,                        '##       
           ' ,,###''''                  '''############,,,                           
         ,,##''                                '''############,,,,        ,,,,,,###''
      ,#''                                            '''#######################'''  
     '                                                          ''''####''''         
             ,#######,   #######,   ,#######,      ##                                
            ,#'     '#,  ##    ##  ,#'     '#,    #''#        ######   ,####,        
            ##       ##  ##   ,#'  ##            #'  '#       #        #'  '#        
            ##       ##  #######   ##           ,######,      #####,   #    #        
            '#,     ,#'  ##    ##  '#,     ,#' ,#      #,         ##   #,  ,#        
             '#######'   ##     ##  '#######'  #'      '#     #####' # '####'        



                  #######################################################
                  #                        -***-                        #
                  #          Department of theory and spectroscopy      #
                  #    Directorship and core code : Frank Neese         #
                  #        Max Planck Institute fuer Kohlenforschung    #
                  #                Kaiser Wilhelm Platz 1               #
                  #                 D-45470 Muelheim/Ruhr               #
                  #                      Germany                        #
                  #                                                     #
                  #                  All rights reserved                #
                  #                        -***-                        #
                  #######################################################


                         Program Version 5.0.4 -  RELEASE  -


 With contributions from (in alphabetic order):
   Daniel Aravena         : Magnetic Suceptibility
   Michael Atanasov       : Ab Initio Ligand Field Theory (pilot matlab implementation)
   Alexander A. Auer      : GIAO ZORA, VPT2 properties, NMR spectrum
   Ute Becker             : Parallelization
   Giovanni Bistoni       : ED, misc. LED, open-shell LED, HFLD
   Martin Brehm           : Molecular dynamics
   Dmytro Bykov           : SCF Hessian
   Vijay G. Chilkuri      : MRCI spin determinant printing, contributions to CSF-ICE
   Dipayan Datta          : RHF DLPNO-CCSD density
   Achintya Kumar Dutta   : EOM-CC, STEOM-CC
   Dmitry Ganyushin       : Spin-Orbit,Spin-Spin,Magnetic field MRCI
   Miquel Garcia          : C-PCM and meta-GGA Hessian, CC/C-PCM, Gaussian charge scheme
   Yang Guo               : DLPNO-NEVPT2, F12-NEVPT2, CIM, IAO-localization
   Andreas Hansen         : Spin unrestricted coupled pair/coupled cluster methods
   Benjamin Helmich-Paris : MC-RPA, TRAH-SCF, COSX integrals
   Lee Huntington         : MR-EOM, pCC
   Robert Izsak           : Overlap fitted RIJCOSX, COSX-SCS-MP3, EOM
   Marcus Kettner         : VPT2
   Christian Kollmar      : KDIIS, OOCD, Brueckner-CCSD(T), CCSD density, CASPT2, CASPT2-K
   Simone Kossmann        : Meta GGA functionals, TD-DFT gradient, OOMP2, MP2 Hessian
   Martin Krupicka        : Initial AUTO-CI
   Lucas Lang             : DCDCAS
   Marvin Lechner         : AUTO-CI (C++ implementation), FIC-MRCC
   Dagmar Lenk            : GEPOL surface, SMD
   Dimitrios Liakos       : Extrapolation schemes; Compound Job, initial MDCI parallelization
   Dimitrios Manganas     : Further ROCIS development; embedding schemes
   Dimitrios Pantazis     : SARC Basis sets
   Anastasios Papadopoulos: AUTO-CI, single reference methods and gradients
   Taras Petrenko         : DFT Hessian,TD-DFT gradient, ASA, ECA, R-Raman, ABS, FL, XAS/XES, NRVS
   Peter Pinski           : DLPNO-MP2, DLPNO-MP2 Gradient
   Christoph Reimann      : Effective Core Potentials
   Marius Retegan         : Local ZFS, SOC
   Christoph Riplinger    : Optimizer, TS searches, QM/MM, DLPNO-CCSD(T), (RO)-DLPNO pert. Triples
   Tobias Risthaus        : Range-separated hybrids, TD-DFT gradient, RPA, STAB
   Michael Roemelt        : Original ROCIS implementation
   Masaaki Saitow         : Open-shell DLPNO-CCSD energy and density
   Barbara Sandhoefer     : DKH picture change effects
   Avijit Sen             : IP-ROCIS
   Kantharuban Sivalingam : CASSCF convergence, NEVPT2, FIC-MRCI
   Bernardo de Souza      : ESD, SOC TD-DFT
   Georgi Stoychev        : AutoAux, RI-MP2 NMR, DLPNO-MP2 response
   Willem Van den Heuvel  : Paramagnetic NMR
   Boris Wezisla          : Elementary symmetry handling
   Frank Wennmohs         : Technical directorship


 We gratefully acknowledge several colleagues who have allowed us to
 interface, adapt or use parts of their codes:
   Stefan Grimme, W. Hujo, H. Kruse, P. Pracht,  : VdW corrections, initial TS optimization,
                  C. Bannwarth, S. Ehlert          DFT functionals, gCP, sTDA/sTD-DF
   Ed Valeev, F. Pavosevic, A. Kumar             : LibInt (2-el integral package), F12 methods
   Garnet Chan, S. Sharma, J. Yang, R. Olivares  : DMRG
   Ulf Ekstrom                                   : XCFun DFT Library
   Mihaly Kallay                                 : mrcc  (arbitrary order and MRCC methods)
   Jiri Pittner, Ondrej Demel                    : Mk-CCSD
   Frank Weinhold                                : gennbo (NPA and NBO analysis)
   Christopher J. Cramer and Donald G. Truhlar   : smd solvation model
   Lars Goerigk                                  : TD-DFT with DH, B97 family of functionals
   V. Asgeirsson, H. Jonsson                     : NEB implementation
   FAccTs GmbH                                   : IRC, NEB, NEB-TS, DLPNO-Multilevel, CI-OPT
                                                   MM, QMMM, 2- and 3-layer-ONIOM, Crystal-QMMM,
                                                   LR-CPCM, SF, NACMEs, symmetry and pop. for TD-DFT,
                                                   nearIR, NL-DFT gradient (VV10), updates on ESD,
                                                   ML-optimized integration grids
   S Lehtola, MJT Oliveira, MAL Marques          : LibXC Library
   Liviu Ungur et al                             : ANISO software


 Your calculation uses the libint2 library for the computation of 2-el integrals
 For citations please refer to: http://libint.valeyev.net

 Your ORCA version has been built with support for libXC version: 5.1.0
 For citations please refer to: https://tddft.org/programs/libxc/

 This ORCA versions uses:
   CBLAS   interface :  Fast vector & matrix operations
   LAPACKE interface :  Fast linear algebra routines
   SCALAPACK package :  Parallel linear algebra routines
   Shared memory     :  Shared parallel matrices
   BLAS/LAPACK       :  OpenBLAS 0.3.15  USE64BITINT DYNAMIC_ARCH NO_AFFINITY Sandybridge SINGLE_THREADED
        Core in use  :  Sandybridge
   Copyright (c) 2011-2014, The OpenBLAS Project


================================================================================

----- Orbital basis set information -----
Your calculation utilizes the basis: cc-pVDZ 
       H, B-Ne : Obtained from the ccRepo (grant-hill.group.shef.ac.uk/ccrepo) Feb. 2017
                 T. H. Dunning, Jr., J. Chem. Phys. 90, 1007 (1989)
            He : Obtained from the ccRepo (grant-hill.group.shef.ac.uk/ccrepo) Feb. 2017
                 D. E. Woon, T. H. Dunning, Jr., J. Chem. Phys. 100, 2975 (1994)
  Li-Be, Na-Mg : Obtained from the ccRepo (grant-hill.group.shef.ac.uk/ccrepo) Feb. 2017
                 B. P. Prascher, D. E. Woon, K. A. Peterson, T. H. Dunning, Jr., A. K. Wilson, Theor. Chem. Acc. 128, 69 (2011)
         Al-Ar : Obtained from the ccRepo (grant-hill.group.shef.ac.uk/ccrepo) Feb. 2017
                 D. E. Woon, T. H. Dunning, Jr., J. Chem. Phys. 98, 1358 (1993)
            Ca : Obtained from the Peterson Research Group Website (tyr0.chem.wsu.edu/~kipeters) Feb. 2017
                 J. Koput, K. A. Peterson, J. Phys. Chem. 106, 9595 (2002)
         Sc-Zn : Obtained from the ccRepo (grant-hill.group.shef.ac.uk/ccrepo) Feb. 2017
                 N. B. Balabanov, K. A. Peterson, J. Chem. Phys. 123, 064107 (2005)
                 N. B. Balabanov, K. A. Peterson, J. Chem. Phys. 125, 074110 (2006)
         Ga-Kr : Obtained from the ccRepo (grant-hill.group.shef.ac.uk/ccrepo) Feb. 2017
                 A. K. Wilson, D. E. Woon, K. A. Peterson, T. H. Dunning, Jr., J. Chem. Phys. 110, 7667 (1999)

================================================================================
                                        WARNINGS
                       Please study these warnings very carefully!
================================================================================


WARNING: No MP2 level density has been requested!
         To caclulate MP2 level properties use
         %mp2 Density relaxed end
         or
         %mp2 Density unrelaxed end

WARNING: Post HF methods need fully converged wavefunctions
  ===> : Setting SCFConvForced true
         You can overwrite this default with %scf ConvForced false 


INFO   : the flag for use of the SHARK integral package has been found!

================================================================================
                                       INPUT FILE
================================================================================
NAME = /scratch/allen/tmpyp4_amber_gaff2/2.Mdgx/conf11/conf11/Conf184.orca
|  1> ! PAL2
|  2> ! mp2 cc-pvdz TightSCF  NoKeepInts
|  3> 
|  4> %scf
|  5>   MaxCore 2000
|  6> end
|  7> %mp2
|  8>   MaxCore 2000
|  9> end
| 10> * xyz 0 1
| 11>    C       -4.95500         5.18100         0.10100
| 12>    C        1.47400         4.04100         0.05700
| 13>    C       -2.80200         4.09300         0.04900
| 14>    C       -2.21500         5.36800         0.02700
| 15>    C       -3.01000         6.49700         0.04500
| 16>    C       -5.18100         7.62400         0.13600
| 17>    C        0.13200         4.30700         0.06100
| 18>    C       -0.56900         3.05600         0.04700
| 19>    C        1.64900         2.61800         0.02300
| 20>    C       -4.20300         4.02300         0.09000
| 21>    N       -4.35900         6.39500         0.07900
| 22>    N        0.38800         2.06700         0.02500
| 23>    N       -2.01000         0.39500        -0.07500
| 24>    N       -0.38800        -2.07400        -0.02700
| 25>    N        2.01000        -0.40100         0.06500
| 26>    C       -1.96000         2.86100         0.02400
| 27>    C       -2.62300         1.61500        -0.01800
| 28>    C       -5.57300        -4.32900         1.06600
| 29>    C       -4.07300         1.47100         0.05600
| 30>    C       -4.10600        -2.75600        -0.02600
| 31>    C       -4.99500        -2.75700        -1.11100
| 32>    C       -6.13200        -3.54200        -1.07600
| 33>    C       -7.65100        -5.11300         0.04000
| 34>    C       -4.32400         0.14100         0.03700
| 35>    C       -3.02500        -0.52000        -0.04800
| 36>    C       -4.42200        -3.56600         1.07500
| 37>    N       -6.40700        -4.31300         0.00100
| 38>    C       -2.86700        -1.92200        -0.04000
| 39>    C       -1.65000        -2.62400        -0.02700
| 40>    C        3.56800        -6.14200        -1.04000
| 41>    C       -1.47600        -4.04900        -0.03400
| 42>    C        2.80300        -4.09900        -0.00800
| 43>    C        3.65700        -4.38400         1.06900
| 44>    C        4.42700        -5.53000         1.05900
| 45>    C        5.24500        -7.58800         0.01400
| 46>    C       -0.13400        -4.31500        -0.02200
| 47>    C        0.56800        -3.06400        -0.02700
| 48>    C        2.77500        -5.01200        -1.07400
| 49>    N        4.37600        -6.39100         0.01700
| 50>    C        1.95900        -2.86900        -0.00900
| 51>    C        2.62100        -1.62200         0.00900
| 52>    C        5.54300         4.33900        -1.13000
| 53>    C        4.07000        -1.47900        -0.09400
| 54>    C        4.10400         2.75100        -0.02100
| 55>    C        5.02700         2.72900         1.03600
| 56>    C        6.16600         3.50900         0.97800
| 57>    C        7.61900         5.15300        -0.11500
| 58>    C        4.32100        -0.14800        -0.09200
| 59>    C        3.02500         0.51400         0.01500
| 60>    C        4.38700         3.58200        -1.11500
| 61>    C        2.86600         1.91600         0.01300
| 62>    N        6.41300         4.29600        -0.09500
| 63>    H       -6.03800         5.17500         0.12000
| 64>    H        2.27400         4.76600         0.08100
| 65>    H       -1.13900         5.48800         0.00500
| 66>    H       -2.60300         7.50000         0.03800
| 67>    H       -5.28300         7.93500         1.17800
| 68>    H       -4.68600         8.40400        -0.44200
| 69>    H       -6.16100         7.41000        -0.28900
| 70>    H       -0.33200         5.28200         0.06900
| 71>    H       -4.71600         3.06800         0.09400
| 72>    H        0.18200         1.07200         0.00500
| 73>    H       -0.18300        -1.08000        -0.02100
| 74>    H       -5.86400        -4.96200         1.89500
| 75>    H       -4.79400         2.27200         0.13900
| 76>    H       -4.80000        -2.16000        -1.99400
| 77>    H       -6.84100        -3.58200        -1.89300
| 78>    H       -8.42800        -4.53600         0.54600
| 79>    H       -7.95600        -5.33700        -0.98100
| 80>    H       -7.45600        -6.03700         0.58400
| 81>    H       -5.28700        -0.34400         0.10000
| 82>    H       -3.78000        -3.60100         1.94700
| 83>    H        3.58700        -6.86800        -1.84300
| 84>    H       -2.27600        -4.77400        -0.05000
| 85>    H        3.71400        -3.72400         1.92600
| 86>    H        5.09200        -5.79500         1.87100
| 87>    H        6.20500        -7.32900        -0.43900
| 88>    H        5.39300        -7.91700         1.04200
| 89>    H        4.75900        -8.37300        -0.56400
| 90>    H        0.32900        -5.29000        -0.00800
| 91>    H        2.14600        -4.84200        -1.94000
| 92>    H        5.80800         4.98600        -1.95600
| 93>    H        4.78800        -2.28100        -0.18500
| 94>    H        4.86000         2.11400         1.91200
| 95>    H        6.90100         3.53100         1.77200
| 96>    H        7.38300         6.10900         0.35600
| 97>    H        8.41400         4.65200         0.43500
| 98>    H        7.92100         5.31000        -1.15000
| 99>    H        5.28300         0.33600        -0.17900
|100>    H        3.72000         3.63200        -1.96700
|101> *
|102> 
|103>                          ****END OF INPUT****
================================================================================

                       ****************************
                       * Single Point Calculation *
                       ****************************

---------------------------------
CARTESIAN COORDINATES (ANGSTROEM)
---------------------------------
  C     -4.955000    5.181000    0.101000
  C      1.474000    4.041000    0.057000
  C     -2.802000    4.093000    0.049000
  C     -2.215000    5.368000    0.027000
  C     -3.010000    6.497000    0.045000
  C     -5.181000    7.624000    0.136000
  C      0.132000    4.307000    0.061000
  C     -0.569000    3.056000    0.047000
  C      1.649000    2.618000    0.023000
  C     -4.203000    4.023000    0.090000
  N     -4.359000    6.395000    0.079000
  N      0.388000    2.067000    0.025000
  N     -2.010000    0.395000   -0.075000
  N     -0.388000   -2.074000   -0.027000
  N      2.010000   -0.401000    0.065000
  C     -1.960000    2.861000    0.024000
  C     -2.623000    1.615000   -0.018000
  C     -5.573000   -4.329000    1.066000
  C     -4.073000    1.471000    0.056000
  C     -4.106000   -2.756000   -0.026000
  C     -4.995000   -2.757000   -1.111000
  C     -6.132000   -3.542000   -1.076000
  C     -7.651000   -5.113000    0.040000
  C     -4.324000    0.141000    0.037000
  C     -3.025000   -0.520000   -0.048000
  C     -4.422000   -3.566000    1.075000
  N     -6.407000   -4.313000    0.001000
  C     -2.867000   -1.922000   -0.040000
  C     -1.650000   -2.624000   -0.027000
  C      3.568000   -6.142000   -1.040000
  C     -1.476000   -4.049000   -0.034000
  C      2.803000   -4.099000   -0.008000
  C      3.657000   -4.384000    1.069000
  C      4.427000   -5.530000    1.059000
  C      5.245000   -7.588000    0.014000
  C     -0.134000   -4.315000   -0.022000
  C      0.568000   -3.064000   -0.027000
  C      2.775000   -5.012000   -1.074000
  N      4.376000   -6.391000    0.017000
  C      1.959000   -2.869000   -0.009000
  C      2.621000   -1.622000    0.009000
  C      5.543000    4.339000   -1.130000
  C      4.070000   -1.479000   -0.094000
  C      4.104000    2.751000   -0.021000
  C      5.027000    2.729000    1.036000
  C      6.166000    3.509000    0.978000
  C      7.619000    5.153000   -0.115000
  C      4.321000   -0.148000   -0.092000
  C      3.025000    0.514000    0.015000
  C      4.387000    3.582000   -1.115000
  C      2.866000    1.916000    0.013000
  N      6.413000    4.296000   -0.095000
  H     -6.038000    5.175000    0.120000
  H      2.274000    4.766000    0.081000
  H     -1.139000    5.488000    0.005000
  H     -2.603000    7.500000    0.038000
  H     -5.283000    7.935000    1.178000
  H     -4.686000    8.404000   -0.442000
  H     -6.161000    7.410000   -0.289000
  H     -0.332000    5.282000    0.069000
  H     -4.716000    3.068000    0.094000
  H      0.182000    1.072000    0.005000
  H     -0.183000   -1.080000   -0.021000
  H     -5.864000   -4.962000    1.895000
  H     -4.794000    2.272000    0.139000
  H     -4.800000   -2.160000   -1.994000
  H     -6.841000   -3.582000   -1.893000
  H     -8.428000   -4.536000    0.546000
  H     -7.956000   -5.337000   -0.981000
  H     -7.456000   -6.037000    0.584000
  H     -5.287000   -0.344000    0.100000
  H     -3.780000   -3.601000    1.947000
  H      3.587000   -6.868000   -1.843000
  H     -2.276000   -4.774000   -0.050000
  H      3.714000   -3.724000    1.926000
  H      5.092000   -5.795000    1.871000
  H      6.205000   -7.329000   -0.439000
  H      5.393000   -7.917000    1.042000
  H      4.759000   -8.373000   -0.564000
  H      0.329000   -5.290000   -0.008000
  H      2.146000   -4.842000   -1.940000
  H      5.808000    4.986000   -1.956000
  H      4.788000   -2.281000   -0.185000
  H      4.860000    2.114000    1.912000
  H      6.901000    3.531000    1.772000
  H      7.383000    6.109000    0.356000
  H      8.414000    4.652000    0.435000
  H      7.921000    5.310000   -1.150000
  H      5.283000    0.336000   -0.179000
  H      3.720000    3.632000   -1.967000

----------------------------
CARTESIAN COORDINATES (A.U.)
----------------------------
  NO LB      ZA    FRAG     MASS         X           Y           Z
   0 C     6.0000    0    12.011   -9.363593    9.790671    0.190862
   1 C     6.0000    0    12.011    2.785456    7.636383    0.107714
   2 C     6.0000    0    12.011   -5.295013    7.734649    0.092597
   3 C     6.0000    0    12.011   -4.185743   10.144050    0.051023
   4 C     6.0000    0    12.011   -5.688076   12.277551    0.085038
   5 C     6.0000    0    12.011   -9.790671   14.407272    0.257003
   6 C     6.0000    0    12.011    0.249444    8.139050    0.115273
   7 C     6.0000    0    12.011   -1.075254    5.775003    0.088817
   8 C     6.0000    0    12.011    3.116158    4.947303    0.043464
   9 C     6.0000    0    12.011   -7.942519    7.602368    0.170075
  10 N     7.0000    0    14.007   -8.237316   12.084799    0.149288
  11 N     7.0000    0    14.007    0.733214    3.906064    0.047243
  12 N     7.0000    0    14.007   -3.798350    0.746442   -0.141729
  13 N     7.0000    0    14.007   -0.733214   -3.919292   -0.051023
  14 N     7.0000    0    14.007    3.798350   -0.757780    0.122832
  15 C     6.0000    0    12.011   -3.703863    5.406506    0.045353
  16 C     6.0000    0    12.011   -4.956752    3.051908   -0.034015
  17 C     6.0000    0    12.011  -10.531444   -8.180624    2.014448
  18 C     6.0000    0    12.011   -7.696855    2.779787    0.105825
  19 C     6.0000    0    12.011   -7.759216   -5.208085   -0.049133
  20 C     6.0000    0    12.011   -9.439182   -5.209975   -2.099486
  21 C     6.0000    0    12.011  -11.587801   -6.693410   -2.033345
  22 C     6.0000    0    12.011  -14.458295   -9.662170    0.075589
  23 C     6.0000    0    12.011   -8.171176    0.266451    0.069920
  24 C     6.0000    0    12.011   -5.716422   -0.982658   -0.090707
  25 C     6.0000    0    12.011   -8.356369   -6.738763    2.031456
  26 N     7.0000    0    14.007  -12.107475   -8.150389    0.001890
  27 C     6.0000    0    12.011   -5.417845   -3.632054   -0.075589
  28 C     6.0000    0    12.011   -3.118048   -4.958641   -0.051023
  29 C     6.0000    0    12.011    6.742543  -11.606698   -1.965315
  30 C     6.0000    0    12.011   -2.789236   -7.651501   -0.064251
  31 C     6.0000    0    12.011    5.296902   -7.745987   -0.015118
  32 C     6.0000    0    12.011    6.910728   -8.284559    2.020117
  33 C     6.0000    0    12.011    8.365818  -10.450186    2.001220
  34 C     6.0000    0    12.011    9.911614  -14.339242    0.026456
  35 C     6.0000    0    12.011   -0.253223   -8.154168   -0.041574
  36 C     6.0000    0    12.011    1.073364   -5.790121   -0.051023
  37 C     6.0000    0    12.011    5.243990   -9.471307   -2.029566
  38 N     7.0000    0    14.007    8.269442  -12.077240    0.032125
  39 C     6.0000    0    12.011    3.701973   -5.421624   -0.017008
  40 C     6.0000    0    12.011    4.952972   -3.065136    0.017008
  41 C     6.0000    0    12.011   10.474752    8.199522   -2.135391
  42 C     6.0000    0    12.011    7.691185   -2.794905   -0.177634
  43 C     6.0000    0    12.011    7.755436    5.198637   -0.039684
  44 C     6.0000    0    12.011    9.499653    5.157063    1.957756
  45 C     6.0000    0    12.011   11.652051    6.631049    1.848152
  46 C     6.0000    0    12.011   14.397823    9.737759   -0.217319
  47 C     6.0000    0    12.011    8.165507   -0.279679   -0.173855
  48 C     6.0000    0    12.011    5.716422    0.971319    0.028346
  49 C     6.0000    0    12.011    8.290229    6.768999   -2.107045
  50 C     6.0000    0    12.011    5.415955    3.620715    0.024566
  51 N     7.0000    0    14.007   12.118814    8.118263   -0.179524
  52 H     1.0000    0     1.008  -11.410166    9.779333    0.226767
  53 H     1.0000    0     1.008    4.297237    9.006435    0.153068
  54 H     1.0000    0     1.008   -2.152398   10.370817    0.009449
  55 H     1.0000    0     1.008   -4.918957   14.172946    0.071810
  56 H     1.0000    0     1.008   -9.983423   14.994977    2.226097
  57 H     1.0000    0     1.008   -8.855257   15.881258   -0.835259
  58 H     1.0000    0     1.008  -11.642603   14.002871   -0.546131
  59 H     1.0000    0     1.008   -0.627389    9.981533    0.130391
  60 H     1.0000    0     1.008   -8.911948    5.797680    0.177634
  61 H     1.0000    0     1.008    0.343930    2.025786    0.009449
  62 H     1.0000    0     1.008   -0.345820   -2.040904   -0.039684
  63 H     1.0000    0     1.008  -11.081354   -9.376821    3.581031
  64 H     1.0000    0     1.008   -9.059347    4.293458    0.262672
  65 H     1.0000    0     1.008   -9.070685   -4.081808   -3.768114
  66 H     1.0000    0     1.008  -12.927616   -6.768999   -3.577252
  67 H     1.0000    0     1.008  -15.926612   -8.571798    1.031790
  68 H     1.0000    0     1.008  -15.034661  -10.085468   -1.853821
  69 H     1.0000    0     1.008  -14.089798  -11.408277    1.103600
  70 H     1.0000    0     1.008   -9.990982   -0.650066    0.188973
  71 H     1.0000    0     1.008   -7.143165   -6.804904    3.679297
  72 H     1.0000    0     1.008    6.778448  -12.978639   -3.482765
  73 H     1.0000    0     1.008   -4.301017   -9.021553   -0.094486
  74 H     1.0000    0     1.008    7.018443   -7.037340    3.639613
  75 H     1.0000    0     1.008    9.622485  -10.950963    3.535678
  76 H     1.0000    0     1.008   11.725751  -13.849803   -0.829590
  77 H     1.0000    0     1.008   10.191293  -14.960962    1.969095
  78 H     1.0000    0     1.008    8.993207  -15.822677   -1.065806
  79 H     1.0000    0     1.008    0.621720   -9.996651   -0.015118
  80 H     1.0000    0     1.008    4.055352   -9.150054   -3.666069
  81 H     1.0000    0     1.008   10.975529    9.422175   -3.696304
  82 H     1.0000    0     1.008    9.048009   -4.310465   -0.349599
  83 H     1.0000    0     1.008    9.184069    3.994881    3.613156
  84 H     1.0000    0     1.008   13.041000    6.672623    3.348595
  85 H     1.0000    0     1.008   13.951848   11.544337    0.672743
  86 H     1.0000    0     1.008   15.900156    8.791006    0.822031
  87 H     1.0000    0     1.008   14.968521   10.034446   -2.173185
  88 H     1.0000    0     1.008    9.983423    0.634948   -0.338261
  89 H     1.0000    0     1.008    7.029781    6.863485   -3.717091

--------------------------------
INTERNAL COORDINATES (ANGSTROEM)
--------------------------------
 C      0   0   0     0.000000000000     0.00000000     0.00000000
 C      1   0   0     6.529439256169     0.00000000     0.00000000
 C      1   2   0     2.412852461300    16.77375120     0.00000000
 C      3   1   2     1.403808391484    87.93171939   356.29617588
 C      4   3   1     1.380938086954   120.10680160     0.11595909
 C      5   4   3     2.447784917022   152.56088912     1.71472146
 C      2   1   3     1.368114030335     1.17658681   166.29745714
 C      7   2   4     1.434084376876   108.05010202   175.31155217
 C      2   1   3     1.434123425651   107.07049674   358.30337503
 C      1   2   7     1.380792888162    46.94393685   169.03268973
 N      1   2   7     1.352588629259    73.90305646   350.15520554
 N      9   2   1     1.376127174356   106.58526707   359.49517447
 N     12   9   2     2.925062050624   168.53581413   171.12065651
 N     13  12   9     2.954513327098    91.55032014    11.12112580
 N     14  13  12     2.925371258490    88.43092389   359.84326247
 C      8   7   2     1.404790019896   127.24786865   181.11170171
 C     13  12   9     1.366535034311    81.72106996   188.00453233
 C     14  13  12     5.758810554272    80.56209567   166.76250791
 C     17  13  12     1.459010623676   111.08861209   183.82872609
 C     18  14  13     2.412235892279    27.27532823    36.33507194
 C     20  18  14     1.402692767501    87.95206320   148.94598259
 C     21  20  18     1.382106725257   120.14573887   359.70382047
 C     18  14  13     2.446510985056   144.15733107    82.80075377
 C     19  17  13     1.353610726908   106.29293361   359.75308708
 C     13  12   9     1.366813447402   172.21332906    33.46711076
 C     18  14  13     1.380960173213    15.08449437   309.23336894
 N     22  21  20     1.352773077792   120.73759875     0.27865223
 C     25  13  17     1.410897586645   125.60330303   182.37774668
 C     14  13  12     1.376642291955    80.24689249   177.85461986
 C     14  13  12     5.764089607215   164.51507311   312.20821879
 C     29  14  13     1.435600919476   106.58649366   178.76395472
 C     30  14  13     2.413316804732    27.10625047    82.12560436
 C     32  30  14     1.403734305344    87.90059683   149.76154742
 C     33  32  30     1.380694028378   120.14881443   359.74174632
 C     34  33  32     2.448777858443   152.49203239     2.45173620
 C     31  29  14     1.368160809262   108.16950133     0.70383075
 C     14  13  12     1.376239804685   169.26375223   353.09862627
 C     30  14  13     1.380907310430    14.68948582   353.70041132
 N     34  33  32     1.352658863128   120.85575621     0.19603406
 C     37  14  29     1.404717053360   126.01551127   180.90772073
 C     15  14  13     1.366491126938    81.61824056   183.09049352
 C      2   1   3     4.249062720177   158.83269158   127.86572466
 C     41  15  14     1.459677704153   111.05201287   175.08990246
 C     42   2   1     2.412953791518    41.78584867   203.92046652
 C     44  42   2     1.403446472082    87.95153797   233.97558675
 C     45  44  42     1.381696421071   120.11137308     0.19721020
 C     42   2   1     2.450019795838   135.97209175   114.23531562
 C     43  41  15     1.354461516618   106.26758155     0.30894352
 C     15  14  13     1.367461151185   171.87382904   332.35056460
 C     42   2   1     1.381886391857    32.59078432   252.77574571
 C      9   2   1     1.404988612053   126.98745415   180.49951200
 N     42   2   1     1.352765315936   113.57249190   141.97190481
 H      1   2   7     1.083183271658   169.60968443   172.76563931
 H      2   1   3     1.079907866440   127.73748313   178.91020078
 H      4   3   1     1.082894270001   121.09447153   179.54962836
 H      5   4   3     1.082454156073   122.75210491   179.44981956
 H      6   5   4     1.092194579734   104.44202606   100.02160249
 H      6   5   4     1.089728865361    84.66134869   209.49488351
 H      6   5   4     1.089413144771   133.86028440   322.26326694
 H     55   4   3     0.835332867784   158.59863896   345.16641065
 H     10   1   2     1.084071030883   118.75387263   179.61031514
 H     12   9   2     1.016297692608   125.29023241   180.00180175
 H     14  13  12     1.014936943854    44.97226959   359.42596618
 H     18  14  13     1.082871645210   128.03556573   234.20482432
 H     61  10   1     0.801077399506   157.16685275   188.45302100
 H     21  20  18     1.083569563987   121.05669627   180.67006309
 H     22  21  20     1.082483256222   122.73097286   180.59748951
 H     23  18  14     1.092105306278   103.92715769   234.93429879
 H     23  18  14     1.088871893291   134.19244188    12.25587044
 H     23  18  14     1.089833473518    84.85857450   125.45241208
 H     24  19  17     1.080075460327   127.28078426   178.44613241
 H     26  18  14     1.083408048706   118.76995697   244.94906660
 H     30  14  13     1.082703098730   127.99711412   279.66882698
 H     31  29  14     1.079759695488   125.22293469   180.92530585
 H     33  32  30     1.083188810873   121.01964473   180.74284758
 H     34  33  32     1.082494341787   122.70821597   180.59516895
 H     35  34  33     1.092652735319   105.73575241    97.19771933
 H     35  34  33     1.089462711615    84.05943581   206.43036958
 H     35  34  33     1.089268102902   133.08365142   318.50306270
 H     36  31  29     1.079439669458   126.61599965   178.98859863
 H     38  30  73     1.083742127999   118.77264435   359.90091293
 H     42   2   1     1.082178358682   119.31790784   358.60343526
 H     43  41  15     1.080281907652   126.36969097   182.06329380
 H     45  44  42     1.083277434455   121.10105945   179.58025624
 H     46  45  44     1.082194529648   122.72144639   179.46906377
 H     47  42   2     1.091546151109   106.65128841   315.16475048
 H     47  42   2     1.088818625851   132.46019523    94.52397119
 H     47  42   2     1.089531091801    83.63838232   206.04504406
 H     48  43  41     1.080402239909   127.23657387   181.62955349
 H     50  42   2     1.083186502870   118.77001737    94.71359229

---------------------------
INTERNAL COORDINATES (A.U.)
---------------------------
 C      0   0   0     0.000000000000     0.00000000     0.00000000
 C      1   0   0    12.338852002234     0.00000000     0.00000000
 C      1   2   0     4.559630353414    16.77375120     0.00000000
 C      3   1   2     2.652813404405    87.93171939   356.29617588
 C      4   3   1     2.609594792244   120.10680160     0.11595909
 C      5   4   3     4.625643127915   152.56088912     1.71472146
 C      2   1   3     2.585360837309     1.17658681   166.29745714
 C      7   2   4     2.710026725231   108.05010202   175.31155217
 C      2   1   3     2.710100516721   107.07049674   358.30337503
 C      1   2   7     2.609320406293    46.94393685   169.03268973
 N      1   2   7     2.556022081155    73.90305646   350.15520554
 N      9   2   1     2.600503484979   106.58526707   359.49517447
 N     12   9   2     5.527566200405   168.53581413   171.12065651
 N     13  12   9     5.583221047236    91.55032014    11.12112580
 N     14  13  12     5.528150518591    88.43092389   359.84326247
 C      8   7   2     2.654668413270   127.24786865   181.11170171
 C     13  12   9     2.582376967257    81.72106996   188.00453233
 C     14  13  12    10.882574804710    80.56209567   166.76250791
 C     17  13  12     2.757130505230   111.08861209   183.82872609
 C     18  14  13     4.558465206823    27.27532823    36.33507194
 C     20  18  14     2.650705180609    87.95206320   148.94598259
 C     21  20  18     2.611803198586   120.14573887   359.70382047
 C     18  14  13     4.623235745386   144.15733107    82.80075377
 C     19  17  13     2.557953565794   106.29293361   359.75308708
 C     13  12   9     2.582903091751   172.21332906    33.46711076
 C     18  14  13     2.609636529225    15.08449437   309.23336894
 N     22  21  20     2.556370638369   120.73759875     0.27865223
 C     25  13  17     2.666210041769   125.60330303   182.37774668
 C     14  13  12     2.601476916169    80.24689249   177.85461986
 C     14  13  12    10.892550769017   164.51507311   312.20821879
 C     29  14  13     2.712892575415   106.58649366   178.76395472
 C     30  14  13     4.560507835333    27.10625047    82.12560436
 C     32  30  14     2.652673401891    87.90059683   149.76154742
 C     33  32  30     2.609133588376   120.14881443   359.74174632
 C     34  33  32     4.627519515267   152.49203239     2.45173620
 C     31  29  14     2.585449236669   108.16950133     0.70383075
 C     14  13  12     2.600716325456   169.26375223   353.09862627
 C     30  14  13     2.609536633043    14.68948582   353.70041132
 N     34  33  32     2.556154803934   120.85575621     0.19603406
 C     37  14  29     2.654530526499   126.01551127   180.90772073
 C     15  14  13     2.582293994346    81.61824056   183.09049352
 C      2   1   3     8.029564866989   158.83269158   127.86572466
 C     41  15  14     2.758391104639   111.05201287   175.08990246
 C     42   2   1     4.559821839776    41.78584867   203.92046652
 C     44  42   2     2.652129475853    87.95153797   233.97558675
 C     45  44  42     2.611027836043   120.11137308     0.19721020
 C     42   2   1     4.629866436820   135.97209175   114.23531562
 C     43  41  15     2.559561325344   106.26758155     0.30894352
 C     15  14  13     2.584127074516   171.87382904   332.35056460
 C     42   2   1     2.611386828803    32.59078432   252.77574571
 C      9   2   1     2.655043698059   126.98745415   180.49951200
 N     42   2   1     2.556355970587   113.57249190   141.97190481
 H      1   2   7     2.046919736279   169.60968443   172.76563931
 H      2   1   3     2.040730117440   127.73748313   178.91020078
 H      4   3   1     2.046373602294   121.09447153   179.54962836
 H      5   4   3     2.045541907503   122.75210491   179.44981956
 H      6   5   4     2.063948640650   104.44202606   100.02160249
 H      6   5   4     2.059289115760    84.66134869   209.49488351
 H      6   5   4     2.058692490311   133.86028440   322.26326694
 H     55   4   3     1.578550350775   158.59863896   345.16641065
 H     10   1   2     2.048597358087   118.75387263   179.61031514
 H     12   9   2     1.920524309565   125.29023241   180.00180175
 H     14  13  12     1.917952867083    44.97226959   359.42596618
 H     18  14  13     2.046330847636   128.03556573   234.20482432
 H     61  10   1     1.513816897141   157.16685275   188.45302100
 H     21  20  18     2.047649722989   121.05669627   180.67006309
 H     22  21  20     2.045596898814   122.73097286   180.59748951
 H     23  18  14     2.063779938267   103.92715769   234.93429879
 H     23  18  14     2.057669673245   134.19244188    12.25587044
 H     23  18  14     2.059486796529    84.85857450   125.45241208
 H     24  19  17     2.041046823986   127.28078426   178.44613241
 H     26  18  14     2.047344503340   118.76995697   244.94906660
 H     30  14  13     2.046012340948   127.99711412   279.66882698
 H     31  29  14     2.040450114918   125.22293469   180.92530585
 H     33  32  30     2.046930203877   121.01964473   180.74284758
 H     34  33  32     2.045617847496   122.70821597   180.59516895
 H     35  34  33     2.064814429233   105.73575241    97.19771933
 H     35  34  33     2.058786158072    84.05943581   206.43036958
 H     35  34  33     2.058418400901   133.08365142   318.50306270
 H     36  31  29     2.039845353366   126.61599965   178.98859863
 H     38  30  73     2.047975821711   118.77264435   359.90091293
 H     42   2   1     2.045020725966   119.31790784   358.60343526
 H     43  41  15     2.041436952892   126.36969097   182.06329380
 H     45  44  42     2.047097678177   121.10105945   179.58025624
 H     46  45  44     2.045051284662   122.72144639   179.46906377
 H     47  42   2     2.062723288131   106.65128841   315.16475048
 H     47  42   2     2.057569012371   132.46019523    94.52397119
 H     47  42   2     2.058915377895    83.63838232   206.04504406
 H     48  43  41     2.041664347903   127.23657387   181.62955349
 H     50  42   2     2.046925842384   118.77001737    94.71359229

---------------------
BASIS SET INFORMATION
---------------------
There are 3 groups of distinct atoms

 Group   1 Type C   : 17s4p1d contracted to 3s2p1d pattern {881/31/1}
 Group   2 Type N   : 17s4p1d contracted to 3s2p1d pattern {881/31/1}
 Group   3 Type H   : 4s1p contracted to 2s1p pattern {31/1}

Atom   0C    basis set group =>   1
Atom   1N    basis set group =>   2
Atom   2C    basis set group =>   1
Atom   3N    basis set group =>   2
Atom   4C    basis set group =>   1
Atom   5N    basis set group =>   2
Atom   6C    basis set group =>   1
Atom   7N    basis set group =>   2
Atom   8C    basis set group =>   1
Atom   9N    basis set group =>   2
Atom  10C    basis set group =>   1
Atom  11N    basis set group =>   2
Atom  12C    basis set group =>   1
Atom  13N    basis set group =>   2
Atom  14C    basis set group =>   1
Atom  15N    basis set group =>   2
Atom  16C    basis set group =>   1
Atom  17C    basis set group =>   1
Atom  18C    basis set group =>   1
Atom  19C    basis set group =>   1
Atom  20C    basis set group =>   1
Atom  21C    basis set group =>   1
Atom  22C    basis set group =>   1
Atom  23C    basis set group =>   1
Atom  24C    basis set group =>   1
Atom  25C    basis set group =>   1
Atom  26C    basis set group =>   1
Atom  27C    basis set group =>   1
Atom  28C    basis set group =>   1
Atom  29C    basis set group =>   1
Atom  30C    basis set group =>   1
Atom  31C    basis set group =>   1
Atom  32C    basis set group =>   1
Atom  33C    basis set group =>   1
Atom  34C    basis set group =>   1
Atom  35C    basis set group =>   1
Atom  36C    basis set group =>   1
Atom  37C    basis set group =>   1
Atom  38C    basis set group =>   1
Atom  39C    basis set group =>   1
Atom  40C    basis set group =>   1
Atom  41C    basis set group =>   1
Atom  42C    basis set group =>   1
Atom  43C    basis set group =>   1
Atom  44C    basis set group =>   1
Atom  45C    basis set group =>   1
Atom  46C    basis set group =>   1
Atom  47C    basis set group =>   1
Atom  48C    basis set group =>   1
Atom  49C    basis set group =>   1
Atom  50C    basis set group =>   1
Atom  51C    basis set group =>   1
Atom  52H    basis set group =>   3
Atom  53H    basis set group =>   3
Atom  54H    basis set group =>   3
Atom  55H    basis set group =>   3
Atom  56H    basis set group =>   3
Atom  57H    basis set group =>   3
Atom  58H    basis set group =>   3
Atom  59H    basis set group =>   3
Atom  60H    basis set group =>   3
Atom  61H    basis set group =>   3
Atom  62H    basis set group =>   3
Atom  63H    basis set group =>   3
Atom  64H    basis set group =>   3
Atom  65H    basis set group =>   3
Atom  66H    basis set group =>   3
Atom  67H    basis set group =>   3
Atom  68H    basis set group =>   3
Atom  69H    basis set group =>   3
Atom  70H    basis set group =>   3
Atom  71H    basis set group =>   3
Atom  72H    basis set group =>   3
Atom  73H    basis set group =>   3
Atom  74H    basis set group =>   3
Atom  75H    basis set group =>   3
Atom  76H    basis set group =>   3
Atom  77H    basis set group =>   3
Atom  78H    basis set group =>   3
Atom  79H    basis set group =>   3
Atom  80H    basis set group =>   3
Atom  81H    basis set group =>   3
Atom  82H    basis set group =>   3
Atom  83H    basis set group =>   3
Atom  84H    basis set group =>   3
Atom  85H    basis set group =>   3
Atom  86H    basis set group =>   3
Atom  87H    basis set group =>   3
Atom  88H    basis set group =>   3
Atom  89H    basis set group =>   3


           ************************************************************
           *        Program running with 16 parallel MPI-processes    *
           *              working on a common directory               *
           ************************************************************
------------------------------------------------------------------------------
                           ORCA GTO INTEGRAL CALCULATION
------------------------------------------------------------------------------
------------------------------------------------------------------------------
                   ___                                                        
                  /   \      - P O W E R E D   B Y -                         
                 /     \                                                     
                 |  |  |   _    _      __       _____    __    __             
                 |  |  |  | |  | |    /  \     |  _  \  |  |  /  |          
                  \  \/   | |  | |   /    \    | | | |  |  | /  /          
                 / \  \   | |__| |  /  /\  \   | |_| |  |  |/  /          
                |  |  |   |  __  | /  /__\  \  |    /   |      \           
                |  |  |   | |  | | |   __   |  |    \   |  |\   \          
                \     /   | |  | | |  |  |  |  | |\  \  |  | \   \       
                 \___/    |_|  |_| |__|  |__|  |_| \__\ |__|  \__/        
                                                                              
                      - O R C A' S   B I G   F R I E N D -                    
                                      &                                       
                       - I N T E G R A L  F E E D E R -                       
                                                                              
 v1 FN, 2020, v2 2021                                                         
------------------------------------------------------------------------------


Reading SHARK input file /scratch/allen/tmpyp4_amber_gaff2/conf1/conf1/Conf184.orca.SHARKINP.tmp ... ok
----------------------
SHARK INTEGRAL PACKAGE
----------------------

Number of atoms                             ...     90
Number of basis functions                   ...   1230
Number of shells                            ...    738
Maximum angular momentum                    ...      2
Integral batch strategy                     ... SHARK/LIBINT Hybrid
RI-J (if used) integral strategy            ... SPLIT-RIJ (Revised 2003 algorithm where possible)
Printlevel                                  ...      1
Contraction scheme used                     ... PARTIAL GENERAL contraction
Coulomb Range Separation                    ... NOT USED
Exchange Range Separation                   ... NOT USED
Finite Nucleus Model                        ... NOT USED
Auxiliary Coulomb fitting basis             ... NOT available
Auxiliary J/K fitting basis                 ... NOT available
Auxiliary Correlation fitting basis         ... NOT available
Auxiliary 'external' fitting basis          ... NOT available
Integral threshold                          ...     2.500000e-11
Primitive cut-off                           ...     2.500000e-12
Primitive pair pre-selection threshold      ...     2.500000e-12

Calculating pre-screening integrals         ... done (  0.1 sec) Dimension = 738
Calculating pre-screening integrals (ORCA)  ... done (  0.3 sec) Dimension = 426
Organizing shell pair data                  ... done (  0.7 sec)
Shell pair information
Total number of shell pairs                 ...    272691
Shell pairs after pre-screening             ...     71736
Total number of primitive shell pairs       ...    422091
Primitive shell pairs kept                  ...     92645
          la=0 lb=0:  29443 shell pairs
          la=1 lb=0:  26038 shell pairs
          la=1 lb=1:   4700 shell pairs
          la=2 lb=0:   7896 shell pairs
          la=2 lb=1:   3130 shell pairs
          la=2 lb=2:    529 shell pairs

Calculating one electron integrals          ... done (  0.2 sec)
Calculating Nuclear repulsion               ... done (  0.0 sec) ENN=   6235.858999403088 Eh

SHARK setup successfully completed in   2.2 seconds

Maximum memory used throughout the entire GTOINT-calculation: 99.1 MB


           ************************************************************
           *        Program running with 16 parallel MPI-processes    *
           *              working on a common directory               *
           ************************************************************
-------------------------------------------------------------------------------
                                 ORCA SCF
-------------------------------------------------------------------------------

------------
SCF SETTINGS
------------
Hamiltonian:
 Ab initio Hamiltonian  Method          .... Hartree-Fock(GTOs)


General Settings:
 Integral files         IntName         .... /scratch/allen/tmpyp4_amber_gaff2/conf1/conf1/Conf184.orca
 Hartree-Fock type      HFTyp           .... RHF
 Total Charge           Charge          ....    0
 Multiplicity           Mult            ....    1
 Number of Electrons    NEL             ....  358
 Basis Dimension        Dim             ....  918
 Nuclear Repulsion      ENuc            ....   6235.8589994031 Eh

Convergence Acceleration:
 DIIS                   CNVDIIS         .... on
   Start iteration      DIISMaxIt       ....    12
   Startup error        DIISStart       ....  0.200000
   # of expansion vecs  DIISMaxEq       ....     5
   Bias factor          DIISBfac        ....   1.050
   Max. coefficient     DIISMaxC        ....  10.000
 Trust-Rad. Augm. Hess. CNVTRAH         .... auto
   Auto Start mean grad. ratio tolernc. ....  1.125000
   Auto Start start iteration           ....    20
   Auto Start num. interpolation iter.  ....    10
   Max. Number of Micro iterations      ....    16
   Max. Number of Macro iterations      .... Maxiter - #DIIS iter
   Number of Davidson start vectors     ....     2
   Converg. threshold I  (grad. norm)   ....   1.000e-05
   Converg. threshold II (energy diff.) ....   1.000e-08
   Grad. Scal. Fac. for Micro threshold ....   0.100
   Minimum threshold for Micro iter.    ....   0.010
   NR start threshold (gradient norm)   ....   0.001
   Initial trust radius                 ....   0.400
   Minimum AH scaling param. (alpha)    ....   1.000
   Maximum AH scaling param. (alpha)    .... 1000.000
   Orbital update algorithm             .... Taylor
   White noise on init. David. guess    .... on
   Maximum white noise                  ....   0.010
   Quad. conv. algorithm                .... NR
 SOSCF                  CNVSOSCF        .... on
   Start iteration      SOSCFMaxIt      ....   150
   Startup grad/error   SOSCFStart      ....  0.003300
 Level Shifting         CNVShift        .... on
   Level shift para.    LevelShift      ....    0.2500
   Turn off err/grad.   ShiftErr        ....    0.0010
 Zerner damping         CNVZerner       .... off
 Static damping         CNVDamp         .... on
   Fraction old density DampFac         ....    0.7000
   Max. Damping (<1)    DampMax         ....    0.9800
   Min. Damping (>=0)   DampMin         ....    0.0000
   Turn off err/grad.   DampErr         ....    0.1000
 Fernandez-Rico         CNVRico         .... off

SCF Procedure:
 Maximum # iterations   MaxIter         ....   125
 SCF integral mode      SCFMode         .... Direct
   Integral package                     .... SHARK and LIBINT hybrid scheme
 Reset frequency        DirectResetFreq ....    20
 Integral Threshold     Thresh          ....  2.500e-11 Eh
 Primitive CutOff       TCut            ....  2.500e-12 Eh

Convergence Tolerance:
 Convergence Check Mode ConvCheckMode   .... Total+1el-Energy
 Convergence forced     ConvForced      .... 1
 Energy Change          TolE            ....  1.000e-08 Eh
 1-El. energy change                    ....  1.000e-05 Eh
 Orbital Gradient       TolG            ....  1.000e-05
 Orbital Rotation angle TolX            ....  1.000e-05
 DIIS Error             TolErr          ....  5.000e-07


Diagonalization of the overlap matrix:
Smallest eigenvalue                        ... 1.606e-04
Time for diagonalization                   ...    0.468 sec
Threshold for overlap eigenvalues          ... 1.000e-08
Number of eigenvalues below threshold      ... 0
Time for construction of square roots      ...    0.266 sec
Total time needed                          ...    0.740 sec

Time for model grid setup =    1.291 sec

------------------------------
INITIAL GUESS: MODEL POTENTIAL
------------------------------
Loading Hartree-Fock densities                     ... done
Calculating cut-offs                               ... done
Initializing the effective Hamiltonian             ... done
Setting up the integral package (SHARK)            ... done
Starting the Coulomb interaction                   ... done (   1.4 sec)
Reading the grid                                   ... done
Mapping shells                                     ... done
Starting the XC term evaluation                    ... done (   0.2 sec)
Transforming the Hamiltonian                       ... done (   0.3 sec)
Diagonalizing the Hamiltonian                      ... done (   0.4 sec)
Back transforming the eigenvectors                 ... done (   0.1 sec)
Now organizing SCF variables                       ... done
                      ------------------
                      INITIAL GUESS DONE (   3.8 sec)
                      ------------------
--------------
SCF ITERATIONS
--------------
ITER       Energy         Delta-E        Max-DP      RMS-DP      [F,P]     Damp
               ***  Starting incremental Fock matrix formation  ***
  0  -2121.5491760932   0.000000000000 0.07960363  0.00130175  0.2310243 0.7000
  1  -2122.1865849821  -0.637408888828 0.06071234  0.00104371  0.1434302 0.7000
                               ***Turning on DIIS***
  2  -2122.5851837871  -0.398598805052 0.14219725  0.00239006  0.0803401 0.0000
  3  -2118.0580586890   4.527125098168 0.04709419  0.00064957  0.0433703 0.0000
  4  -2123.2936949402  -5.235636251276 0.01758909  0.00022327  0.0094382 0.0000
  5  -2123.4118347964  -0.118139856133 0.00746443  0.00013021  0.0048053 0.0000
  6  -2123.3958138080   0.016020988363 0.00393647  0.00008156  0.0022843 0.0000
  7  -2123.4874583195  -0.091644511476 0.00315450  0.00006387  0.0016506 0.0000
  8  -2123.4927555145  -0.005297195008 0.00336557  0.00006125  0.0015483 0.0000
  9  -2123.4671630189   0.025592495547 0.00271415  0.00004417  0.0012484 0.0000
 10  -2123.4743390331  -0.007176014149 0.00549390  0.00009350  0.0009819 0.0000
                      *** Initiating the SOSCF procedure ***
                           *** Shutting down DIIS ***
                      *** Re-Reading the Fockian *** 
                      *** Removing any level shift *** 
ITER      Energy       Delta-E        Grad      Rot      Max-DP    RMS-DP
 11  -2123.36898851   0.1053505235  0.000191  0.000191  0.000251  0.000005
               *** Restarting incremental Fock matrix formation ***
 12  -2123.43462525  -0.0656367443  0.000957  0.006402  0.001532  0.000034
 13  -2123.43473741  -0.0001121583  0.001158  0.031703  0.007014  0.000134
 14  -2123.43492077  -0.0001833612  0.000412  0.002192  0.000647  0.000012
 15  -2123.43493597  -0.0000151991  0.000169  0.001915  0.000468  0.000012
 16  -2123.43494201  -0.0000060412  0.000131  0.001988  0.000519  0.000008
 17  -2123.43494446  -0.0000024444  0.000114  0.001660  0.000273  0.000006
 18  -2123.43494547  -0.0000010076  0.000055  0.000784  0.000197  0.000003
 19  -2123.43494605  -0.0000005857  0.000041  0.001299  0.000214  0.000005
 20  -2123.43494642  -0.0000003695  0.000023  0.000735  0.000106  0.000002
 21  -2123.43494658  -0.0000001547  0.000025  0.000945  0.000136  0.000003
 22  -2123.43494673  -0.0000001535  0.000018  0.000955  0.000148  0.000003
 23  -2123.43494683  -0.0000001031  0.000014  0.000397  0.000068  0.000001
 24  -2123.43494687  -0.0000000413  0.000007  0.000303  0.000051  0.000001
 25  -2123.43494690  -0.0000000279  0.000007  0.000117  0.000036  0.000000
 26  -2123.43494691  -0.0000000131  0.000006  0.000073  0.000028  0.000000
                  ***Gradient check signals convergence***
              ***Rediagonalizing the Fockian in SOSCF/NRSCF***

               *****************************************************
               *                     SUCCESS                       *
               *           SCF CONVERGED AFTER  27 CYCLES          *
               *****************************************************


----------------
TOTAL SCF ENERGY
----------------

Total Energy       :        -2123.43494692 Eh          -57781.60247 eV

Components:
Nuclear Repulsion  :         6235.85899940 Eh          169686.35006 eV
Electronic Energy  :        -8359.29394632 Eh         -227467.95253 eV
One Electron Energy:       -15312.11611545 Eh         -416663.86228 eV
Two Electron Energy:         6952.82216913 Eh          189195.90976 eV

Virial components:
Potential Energy   :        -4246.10107709 Eh         -115542.28436 eV
Kinetic Energy     :         2122.66613017 Eh           57760.68190 eV
Virial Ratio       :            2.00036219


---------------
SCF CONVERGENCE
---------------

  Last Energy change         ...   -1.6280e-09  Tolerance :   1.0000e-08
  Last MAX-Density change    ...    1.8342e-05  Tolerance :   1.0000e-07
  Last RMS-Density change    ...    3.0114e-07  Tolerance :   5.0000e-09
  Last Orbital Gradient      ...    2.4894e-06  Tolerance :   1.0000e-05
  Last Orbital Rotation      ...    5.6163e-05  Tolerance :   1.0000e-05

             **** THE GBW FILE WAS UPDATED (/scratch/allen/tmpyp4_amber_gaff2/conf1/conf1/Conf184.orca.gbw) ****
             **** DENSITY /scratch/allen/tmpyp4_amber_gaff2/conf1/conf1/Conf184.orca.scfp WAS UPDATED ****
             **** ENERGY FILE WAS UPDATED (/scratch/allen/tmpyp4_amber_gaff2/conf1/conf1/Conf184.orca.en.tmp) ****
             **** THE GBW FILE WAS UPDATED (/scratch/allen/tmpyp4_amber_gaff2/conf1/conf1/Conf184.orca.gbw) ****
             **** DENSITY /scratch/allen/tmpyp4_amber_gaff2/conf1/conf1/Conf184.orca.scfp WAS UPDATED ****
----------------
ORBITAL ENERGIES
----------------

  NO   OCC          E(Eh)            E(eV) 
   0   2.0000     -15.679542      -426.6620 
   1   2.0000     -15.633973      -425.4220 
   2   2.0000     -15.631510      -425.3550 
   3   2.0000     -15.588170      -424.1757 
   4   2.0000     -15.524987      -422.4564 
   5   2.0000     -15.515353      -422.1942 
   6   2.0000     -15.453522      -420.5117 
   7   2.0000     -15.439491      -420.1299 
   8   2.0000     -11.329223      -308.2838 
   9   2.0000     -11.328102      -308.2533 
  10   2.0000     -11.327757      -308.2439 
  11   2.0000     -11.299346      -307.4708 
  12   2.0000     -11.298189      -307.4394 
  13   2.0000     -11.293029      -307.2990 
  14   2.0000     -11.290949      -307.2424 
  15   2.0000     -11.286519      -307.1218 
  16   2.0000     -11.286241      -307.1142 
  17   2.0000     -11.281796      -306.9933 
  18   2.0000     -11.269552      -306.6601 
  19   2.0000     -11.263108      -306.4847 
  20   2.0000     -11.262116      -306.4577 
  21   2.0000     -11.250342      -306.1374 
  22   2.0000     -11.248525      -306.0879 
  23   2.0000     -11.237740      -305.7945 
  24   2.0000     -11.236294      -305.7551 
  25   2.0000     -11.231157      -305.6153 
  26   2.0000     -11.230485      -305.5970 
  27   2.0000     -11.229512      -305.5706 
  28   2.0000     -11.229336      -305.5658 
  29   2.0000     -11.211043      -305.0680 
  30   2.0000     -11.209422      -305.0239 
  31   2.0000     -11.194261      -304.6113 
  32   2.0000     -11.192389      -304.5604 
  33   2.0000     -11.190992      -304.5224 
  34   2.0000     -11.188063      -304.4427 
  35   2.0000     -11.187874      -304.4375 
  36   2.0000     -11.186539      -304.4012 
  37   2.0000     -11.174477      -304.0730 
  38   2.0000     -11.172504      -304.0193 
  39   2.0000     -11.170621      -303.9680 
  40   2.0000     -11.170108      -303.9541 
  41   2.0000     -11.168434      -303.9085 
  42   2.0000     -11.166392      -303.8530 
  43   2.0000     -11.161462      -303.7188 
  44   2.0000     -11.161397      -303.7171 
  45   2.0000     -11.156588      -303.5862 
  46   2.0000     -11.156305      -303.5785 
  47   2.0000     -11.150648      -303.4246 
  48   2.0000     -11.147031      -303.3261 
  49   2.0000     -11.135862      -303.0222 
  50   2.0000     -11.130094      -302.8653 
  51   2.0000     -11.118342      -302.5455 
  52   2.0000      -1.360151       -37.0116 
  53   2.0000      -1.321225       -35.9524 
  54   2.0000      -1.319345       -35.9012 
  55   2.0000      -1.280033       -34.8315 
  56   2.0000      -1.226078       -33.3633 
  57   2.0000      -1.210340       -32.9350 
  58   2.0000      -1.173140       -31.9228 
  59   2.0000      -1.150905       -31.3177 
  60   2.0000      -1.143399       -31.1135 
  61   2.0000      -1.110299       -30.2128 
  62   2.0000      -1.108712       -30.1696 
  63   2.0000      -1.081837       -29.4383 
  64   2.0000      -1.077610       -29.3233 
  65   2.0000      -1.045417       -28.4473 
  66   2.0000      -1.044014       -28.4091 
  67   2.0000      -1.040895       -28.3242 
  68   2.0000      -1.015488       -27.6328 
  69   2.0000      -1.014765       -27.6132 
  70   2.0000      -1.009114       -27.4594 
  71   2.0000      -0.993469       -27.0337 
  72   2.0000      -0.985634       -26.8205 
  73   2.0000      -0.981753       -26.7149 
  74   2.0000      -0.974362       -26.5137 
  75   2.0000      -0.962086       -26.1797 
  76   2.0000      -0.954652       -25.9774 
  77   2.0000      -0.947067       -25.7710 
  78   2.0000      -0.939628       -25.5686 
  79   2.0000      -0.916742       -24.9458 
  80   2.0000      -0.910443       -24.7744 
  81   2.0000      -0.898732       -24.4557 
  82   2.0000      -0.877384       -23.8748 
  83   2.0000      -0.872286       -23.7361 
  84   2.0000      -0.870771       -23.6949 
  85   2.0000      -0.861887       -23.4531 
  86   2.0000      -0.845761       -23.0143 
  87   2.0000      -0.839290       -22.8382 
  88   2.0000      -0.829531       -22.5727 
  89   2.0000      -0.796298       -21.6684 
  90   2.0000      -0.789453       -21.4821 
  91   2.0000      -0.777018       -21.1437 
  92   2.0000      -0.752878       -20.4868 
  93   2.0000      -0.734447       -19.9853 
  94   2.0000      -0.729425       -19.8487 
  95   2.0000      -0.726937       -19.7810 
  96   2.0000      -0.720657       -19.6101 
  97   2.0000      -0.717778       -19.5317 
  98   2.0000      -0.714044       -19.4301 
  99   2.0000      -0.700204       -19.0535 
 100   2.0000      -0.698271       -19.0009 
 101   2.0000      -0.694619       -18.9016 
 102   2.0000      -0.685297       -18.6479 
 103   2.0000      -0.684128       -18.6161 
 104   2.0000      -0.678956       -18.4753 
 105   2.0000      -0.674355       -18.3501 
 106   2.0000      -0.672713       -18.3055 
 107   2.0000      -0.661029       -17.9875 
 108   2.0000      -0.658201       -17.9106 
 109   2.0000      -0.652906       -17.7665 
 110   2.0000      -0.651913       -17.7395 
 111   2.0000      -0.646060       -17.5802 
 112   2.0000      -0.645625       -17.5684 
 113   2.0000      -0.638272       -17.3683 
 114   2.0000      -0.635406       -17.2903 
 115   2.0000      -0.628759       -17.1094 
 116   2.0000      -0.623104       -16.9555 
 117   2.0000      -0.620763       -16.8918 
 118   2.0000      -0.612903       -16.6779 
 119   2.0000      -0.612295       -16.6614 
 120   2.0000      -0.611649       -16.6438 
 121   2.0000      -0.611155       -16.6304 
 122   2.0000      -0.601463       -16.3666 
 123   2.0000      -0.589499       -16.0411 
 124   2.0000      -0.581683       -15.8284 
 125   2.0000      -0.580642       -15.8001 
 126   2.0000      -0.580328       -15.7915 
 127   2.0000      -0.570888       -15.5347 
 128   2.0000      -0.566538       -15.4163 
 129   2.0000      -0.559846       -15.2342 
 130   2.0000      -0.556062       -15.1312 
 131   2.0000      -0.547641       -14.9021 
 132   2.0000      -0.542679       -14.7671 
 133   2.0000      -0.540262       -14.7013 
 134   2.0000      -0.538865       -14.6633 
 135   2.0000      -0.535990       -14.5850 
 136   2.0000      -0.531991       -14.4762 
 137   2.0000      -0.518022       -14.0961 
 138   2.0000      -0.516763       -14.0618 
 139   2.0000      -0.514050       -13.9880 
 140   2.0000      -0.511631       -13.9222 
 141   2.0000      -0.510060       -13.8794 
 142   2.0000      -0.507271       -13.8035 
 143   2.0000      -0.505838       -13.7646 
 144   2.0000      -0.502133       -13.6637 
 145   2.0000      -0.495637       -13.4870 
 146   2.0000      -0.488406       -13.2902 
 147   2.0000      -0.481312       -13.0972 
 148   2.0000      -0.476233       -12.9590 
 149   2.0000      -0.467605       -12.7242 
 150   2.0000      -0.466078       -12.6826 
 151   2.0000      -0.455977       -12.4078 
 152   2.0000      -0.451164       -12.2768 
 153   2.0000      -0.445287       -12.1169 
 154   2.0000      -0.438098       -11.9212 
 155   2.0000      -0.427881       -11.6432 
 156   2.0000      -0.408952       -11.1281 
 157   2.0000      -0.390802       -10.6343 
 158   2.0000      -0.387567       -10.5462 
 159   2.0000      -0.383037       -10.4230 
 160   2.0000      -0.378177       -10.2907 
 161   2.0000      -0.373126       -10.1533 
 162   2.0000      -0.358340        -9.7509 
 163   2.0000      -0.356660        -9.7052 
 164   2.0000      -0.355634        -9.6773 
 165   2.0000      -0.341538        -9.2937 
 166   2.0000      -0.337483        -9.1834 
 167   2.0000      -0.324799        -8.8382 
 168   2.0000      -0.321778        -8.7560 
 169   2.0000      -0.305292        -8.3074 
 170   2.0000      -0.299173        -8.1409 
 171   2.0000      -0.286136        -7.7862 
 172   2.0000      -0.278138        -7.5685 
 173   2.0000      -0.263239        -7.1631 
 174   2.0000      -0.242410        -6.5963 
 175   2.0000      -0.189990        -5.1699 
 176   2.0000      -0.181435        -4.9371 
 177   2.0000      -0.080248        -2.1836 
 178   2.0000      -0.059586        -1.6214 
 179   0.0000       0.028526         0.7762 
 180   0.0000       0.065495         1.7822 
 181   0.0000       0.090355         2.4587 
 182   0.0000       0.106455         2.8968 
 183   0.0000       0.117183         3.1887 
 184   0.0000       0.136991         3.7277 
 185   0.0000       0.139656         3.8002 
 186   0.0000       0.141105         3.8397 
 187   0.0000       0.164519         4.4768 
 188   0.0000       0.165122         4.4932 
 189   0.0000       0.165824         4.5123 
 190   0.0000       0.175352         4.7716 
 191   0.0000       0.180528         4.9124 
 192   0.0000       0.183957         5.0057 
 193   0.0000       0.189105         5.1458 
 194   0.0000       0.204822         5.5735 
 195   0.0000       0.205724         5.5980 
 196   0.0000       0.208194         5.6652 
 197   0.0000       0.208806         5.6819 
 198   0.0000       0.216706         5.8969 
 199   0.0000       0.228483         6.2173 
 200   0.0000       0.232803         6.3349 
 201   0.0000       0.233962         6.3664 
 202   0.0000       0.238978         6.5029 
 203   0.0000       0.239866         6.5271 
 204   0.0000       0.246321         6.7027 
 205   0.0000       0.255156         6.9431 
 206   0.0000       0.256434         6.9779 
 207   0.0000       0.257395         7.0041 
 208   0.0000       0.259427         7.0594 
 209   0.0000       0.260946         7.1007 
 210   0.0000       0.264468         7.1965 
 211   0.0000       0.266996         7.2653 
 212   0.0000       0.268751         7.3131 
 213   0.0000       0.269620         7.3367 
 214   0.0000       0.272868         7.4251 
 215   0.0000       0.276528         7.5247 
 216   0.0000       0.278996         7.5919 
 217   0.0000       0.282609         7.6902 
 218   0.0000       0.285474         7.7682 
 219   0.0000       0.288007         7.8371 
 220   0.0000       0.288822         7.8592 
 221   0.0000       0.293153         7.9771 
 222   0.0000       0.294884         8.0242 
 223   0.0000       0.296706         8.0738 
 224   0.0000       0.297614         8.0985 
 225   0.0000       0.302066         8.2196 
 226   0.0000       0.305931         8.3248 
 227   0.0000       0.307355         8.3635 
 228   0.0000       0.321748         8.7552 
 229   0.0000       0.324984         8.8433 
 230   0.0000       0.328003         8.9254 
 231   0.0000       0.334705         9.1078 
 232   0.0000       0.343097         9.3362 
 233   0.0000       0.357149         9.7185 
 234   0.0000       0.371868        10.1190 
 235   0.0000       0.374810        10.1991 
 236   0.0000       0.390337        10.6216 
 237   0.0000       0.391881        10.6636 
 238   0.0000       0.398678        10.8486 
 239   0.0000       0.402084        10.9413 
 240   0.0000       0.411187        11.1890 
 241   0.0000       0.412216        11.2170 
 242   0.0000       0.416558        11.3351 
 243   0.0000       0.426861        11.6155 
 244   0.0000       0.430107        11.7038 
 245   0.0000       0.432067        11.7571 
 246   0.0000       0.439580        11.9616 
 247   0.0000       0.440721        11.9926 
 248   0.0000       0.441651        12.0179 
 249   0.0000       0.444253        12.0887 
 250   0.0000       0.447889        12.1877 
 251   0.0000       0.457537        12.4502 
 252   0.0000       0.464593        12.6422 
 253   0.0000       0.469785        12.7835 
 254   0.0000       0.472266        12.8510 
 255   0.0000       0.474775        12.9193 
 256   0.0000       0.476602        12.9690 
 257   0.0000       0.487198        13.2573 
 258   0.0000       0.489262        13.3135 
 259   0.0000       0.494738        13.4625 
 260   0.0000       0.504023        13.7152 
 261   0.0000       0.505224        13.7478 
 262   0.0000       0.505878        13.7657 
 263   0.0000       0.512558        13.9474 
 264   0.0000       0.515532        14.0284 
 265   0.0000       0.520002        14.1500 
 266   0.0000       0.526228        14.3194 
 267   0.0000       0.528587        14.3836 
 268   0.0000       0.535485        14.5713 
 269   0.0000       0.542552        14.7636 
 270   0.0000       0.554059        15.0767 
 271   0.0000       0.556691        15.1483 
 272   0.0000       0.559347        15.2206 
 273   0.0000       0.563798        15.3417 
 274   0.0000       0.567634        15.4461 
 275   0.0000       0.573474        15.6050 
 276   0.0000       0.574720        15.6389 
 277   0.0000       0.581512        15.8237 
 278   0.0000       0.584083        15.8937 
 279   0.0000       0.587294        15.9811 
 280   0.0000       0.592556        16.1243 
 281   0.0000       0.593950        16.1622 
 282   0.0000       0.595111        16.1938 
 283   0.0000       0.597908        16.2699 
 284   0.0000       0.598871        16.2961 
 285   0.0000       0.603059        16.4101 
 286   0.0000       0.605682        16.4815 
 287   0.0000       0.611993        16.6532 
 288   0.0000       0.618308        16.8250 
 289   0.0000       0.623455        16.9651 
 290   0.0000       0.625822        17.0295 
 291   0.0000       0.631049        17.1717 
 292   0.0000       0.636363        17.3163 
 293   0.0000       0.640930        17.4406 
 294   0.0000       0.646976        17.6051 
 295   0.0000       0.652222        17.7479 
 296   0.0000       0.656106        17.8535 
 297   0.0000       0.659709        17.9516 
 298   0.0000       0.664228        18.0746 
 299   0.0000       0.665536        18.1101 
 300   0.0000       0.670997        18.2588 
 301   0.0000       0.675769        18.3886 
 302   0.0000       0.680634        18.5210 
 303   0.0000       0.683409        18.5965 
 304   0.0000       0.685197        18.6452 
 305   0.0000       0.689567        18.7641 
 306   0.0000       0.692423        18.8418 
 307   0.0000       0.694247        18.8914 
 308   0.0000       0.695229        18.9181 
 309   0.0000       0.701741        19.0954 
 310   0.0000       0.703314        19.1382 
 311   0.0000       0.705964        19.2103 
 312   0.0000       0.708474        19.2786 
 313   0.0000       0.711012        19.3476 
 314   0.0000       0.711391        19.3579 
 315   0.0000       0.715308        19.4645 
 316   0.0000       0.718401        19.5487 
 317   0.0000       0.719284        19.5727 
 318   0.0000       0.727010        19.7830 
 319   0.0000       0.727667        19.8008 
 320   0.0000       0.728201        19.8154 
 321   0.0000       0.728993        19.8369 
 322   0.0000       0.731883        19.9156 
 323   0.0000       0.734220        19.9791 
 324   0.0000       0.737689        20.0735 
 325   0.0000       0.738932        20.1074 
 326   0.0000       0.745144        20.2764 
 327   0.0000       0.747797        20.3486 
 328   0.0000       0.750353        20.4181 
 329   0.0000       0.752674        20.4813 
 330   0.0000       0.756058        20.5734 
 331   0.0000       0.759007        20.6536 
 332   0.0000       0.766066        20.8457 
 333   0.0000       0.767725        20.8909 
 334   0.0000       0.768557        20.9135 
 335   0.0000       0.774258        21.0686 
 336   0.0000       0.777885        21.1673 
 337   0.0000       0.781491        21.2655 
 338   0.0000       0.785596        21.3772 
 339   0.0000       0.790262        21.5041 
 340   0.0000       0.792945        21.5771 
 341   0.0000       0.793519        21.5927 
 342   0.0000       0.799806        21.7638 
 343   0.0000       0.802618        21.8404 
 344   0.0000       0.807122        21.9629 
 345   0.0000       0.809575        22.0297 
 346   0.0000       0.810775        22.0623 
 347   0.0000       0.814923        22.1752 
 348   0.0000       0.816269        22.2118 
 349   0.0000       0.817626        22.2487 
 350   0.0000       0.820730        22.3332 
 351   0.0000       0.823304        22.4032 
 352   0.0000       0.823438        22.4069 
 353   0.0000       0.827871        22.5275 
 354   0.0000       0.831319        22.6213 
 355   0.0000       0.832767        22.6608 
 356   0.0000       0.835103        22.7243 
 357   0.0000       0.836946        22.7745 
 358   0.0000       0.838546        22.8180 
 359   0.0000       0.839389        22.8409 
 360   0.0000       0.842684        22.9306 
 361   0.0000       0.843508        22.9530 
 362   0.0000       0.847265        23.0553 
 363   0.0000       0.851253        23.1638 
 364   0.0000       0.853018        23.2118 
 365   0.0000       0.857278        23.3277 
 366   0.0000       0.861236        23.4354 
 367   0.0000       0.864400        23.5215 
 368   0.0000       0.867880        23.6162 
 369   0.0000       0.868970        23.6459 
 370   0.0000       0.872247        23.7351 
 371   0.0000       0.875407        23.8210 
 372   0.0000       0.877500        23.8780 
 373   0.0000       0.877886        23.8885 
 374   0.0000       0.880464        23.9587 
 375   0.0000       0.884904        24.0795 
 376   0.0000       0.890266        24.2254 
 377   0.0000       0.892242        24.2791 
 378   0.0000       0.892796        24.2942 
 379   0.0000       0.895537        24.3688 
 380   0.0000       0.897215        24.4145 
 381   0.0000       0.899280        24.4707 
 382   0.0000       0.901619        24.5343 
 383   0.0000       0.902485        24.5579 
 384   0.0000       0.906561        24.6688 
 385   0.0000       0.908273        24.7154 
 386   0.0000       0.909967        24.7615 
 387   0.0000       0.915621        24.9153 
 388   0.0000       0.916070        24.9275 
 389   0.0000       0.919784        25.0286 
 390   0.0000       0.924346        25.1527 
 391   0.0000       0.927239        25.2315 
 392   0.0000       0.928930        25.2775 
 393   0.0000       0.929567        25.2948 
 394   0.0000       0.930762        25.3273 
 395   0.0000       0.936646        25.4874 
 396   0.0000       0.938135        25.5279 
 397   0.0000       0.941561        25.6212 
 398   0.0000       0.948152        25.8005 
 399   0.0000       0.949315        25.8322 
 400   0.0000       0.951060        25.8797 
 401   0.0000       0.953996        25.9596 
 402   0.0000       0.955978        26.0135 
 403   0.0000       0.958439        26.0805 
 404   0.0000       0.961982        26.1769 
 405   0.0000       0.963926        26.2297 
 406   0.0000       0.971893        26.4466 
 407   0.0000       0.980657        26.6850 
 408   0.0000       0.981867        26.7179 
 409   0.0000       0.986989        26.8573 
 410   0.0000       0.990112        26.9423 
 411   0.0000       0.994318        27.0568 
 412   0.0000       0.999705        27.2034 
 413   0.0000       1.007843        27.4248 
 414   0.0000       1.014210        27.5981 
 415   0.0000       1.016161        27.6511 
 416   0.0000       1.019520        27.7425 
 417   0.0000       1.025506        27.9055 
 418   0.0000       1.031567        28.0704 
 419   0.0000       1.034383        28.1470 
 420   0.0000       1.039558        28.2878 
 421   0.0000       1.043395        28.3922 
 422   0.0000       1.051964        28.6254 
 423   0.0000       1.056843        28.7582 
 424   0.0000       1.061456        28.8837 
 425   0.0000       1.073416        29.2091 
 426   0.0000       1.077627        29.3237 
 427   0.0000       1.078996        29.3610 
 428   0.0000       1.080500        29.4019 
 429   0.0000       1.086766        29.5724 
 430   0.0000       1.089172        29.6379 
 431   0.0000       1.095659        29.8144 
 432   0.0000       1.101178        29.9646 
 433   0.0000       1.104584        30.0573 
 434   0.0000       1.111715        30.2513 
 435   0.0000       1.113618        30.3031 
 436   0.0000       1.115306        30.3490 
 437   0.0000       1.116238        30.3744 
 438   0.0000       1.123260        30.5654 
 439   0.0000       1.123934        30.5838 
 440   0.0000       1.128152        30.6986 
 441   0.0000       1.129887        30.7458 
 442   0.0000       1.134358        30.8675 
 443   0.0000       1.137130        30.9429 
 444   0.0000       1.139531        31.0082 
 445   0.0000       1.145529        31.1714 
 446   0.0000       1.148023        31.2393 
 447   0.0000       1.152635        31.3648 
 448   0.0000       1.155775        31.4502 
 449   0.0000       1.157955        31.5096 
 450   0.0000       1.160528        31.5796 
 451   0.0000       1.166421        31.7399 
 452   0.0000       1.167822        31.7781 
 453   0.0000       1.171414        31.8758 
 454   0.0000       1.172896        31.9161 
 455   0.0000       1.181887        32.1608 
 456   0.0000       1.184467        32.2310 
 457   0.0000       1.196076        32.5469 
 458   0.0000       1.200311        32.6621 
 459   0.0000       1.201200        32.6863 
 460   0.0000       1.202185        32.7131 
 461   0.0000       1.207848        32.8672 
 462   0.0000       1.212197        32.9856 
 463   0.0000       1.213635        33.0247 
 464   0.0000       1.214787        33.0560 
 465   0.0000       1.216908        33.1138 
 466   0.0000       1.223111        33.2825 
 467   0.0000       1.228844        33.4386 
 468   0.0000       1.230314        33.4785 
 469   0.0000       1.234240        33.5854 
 470   0.0000       1.237957        33.6865 
 471   0.0000       1.240917        33.7671 
 472   0.0000       1.244942        33.8766 
 473   0.0000       1.247193        33.9378 
 474   0.0000       1.249034        33.9879 
 475   0.0000       1.250747        34.0346 
 476   0.0000       1.252644        34.0862 
 477   0.0000       1.255869        34.1739 
 478   0.0000       1.260187        34.2914 
 479   0.0000       1.263399        34.3788 
 480   0.0000       1.267558        34.4920 
 481   0.0000       1.270016        34.5589 
 482   0.0000       1.272621        34.6298 
 483   0.0000       1.277016        34.7494 
 484   0.0000       1.282343        34.8943 
 485   0.0000       1.286533        35.0083 
 486   0.0000       1.288803        35.0701 
 487   0.0000       1.291073        35.1319 
 488   0.0000       1.295750        35.2592 
 489   0.0000       1.297288        35.3010 
 490   0.0000       1.301126        35.4054 
 491   0.0000       1.306276        35.5456 
 492   0.0000       1.310682        35.6655 
 493   0.0000       1.312326        35.7102 
 494   0.0000       1.317797        35.8591 
 495   0.0000       1.320771        35.9400 
 496   0.0000       1.323993        36.0277 
 497   0.0000       1.328084        36.1390 
 498   0.0000       1.333427        36.2844 
 499   0.0000       1.337311        36.3901 
 500   0.0000       1.337994        36.4087 
 501   0.0000       1.340520        36.4774 
 502   0.0000       1.343066        36.5467 
 503   0.0000       1.345173        36.6040 
 504   0.0000       1.348524        36.6952 
 505   0.0000       1.350164        36.7398 
 506   0.0000       1.353846        36.8400 
 507   0.0000       1.357468        36.9386 
 508   0.0000       1.360367        37.0175 
 509   0.0000       1.363924        37.1143 
 510   0.0000       1.370396        37.2904 
[...]
      px      :     0.043612
      py      :     0.014048
 77 H s       :     0.884487  s :     0.884487
      pz      :     0.047980  p :     0.079294
      px      :     0.015024
      py      :     0.016291
 78 H s       :     0.884838  s :     0.884838
      pz      :     0.025884  p :     0.079264
      px      :     0.020455
      py      :     0.032925
 79 H s       :     0.910798  s :     0.910798
      pz      :     0.021816  p :     0.086311
      px      :     0.021655
      py      :     0.042841
 80 H s       :     0.864370  s :     0.864370
      pz      :     0.039392  p :     0.084837
      px      :     0.030291
      py      :     0.015153
 81 H s       :     0.886835  s :     0.886835
      pz      :     0.037825  p :     0.084132
      px      :     0.016184
      py      :     0.030123
 82 H s       :     0.916127  s :     0.916127
      pz      :     0.021972  p :     0.086730
      px      :     0.031649
      py      :     0.033109
 83 H s       :     0.873414  s :     0.873414
      pz      :     0.039274  p :     0.084103
      px      :     0.015276
      py      :     0.029553
 84 H s       :     0.886700  s :     0.886700
      pz      :     0.035767  p :     0.083427
      px      :     0.031695
      py      :     0.015965
 85 H s       :     0.892874  s :     0.892874
      pz      :     0.022490  p :     0.079784
      px      :     0.014070
      py      :     0.043224
 86 H s       :     0.891004  s :     0.891004
      pz      :     0.024730  p :     0.078827
      px      :     0.032979
      py      :     0.021118
 87 H s       :     0.889854  s :     0.889854
      pz      :     0.048017  p :     0.078741
      px      :     0.015586
      py      :     0.015137
 88 H s       :     0.910579  s :     0.910579
      pz      :     0.021617  p :     0.087013
      px      :     0.042937
      py      :     0.022459
 89 H s       :     0.871116  s :     0.871116
      pz      :     0.037958  p :     0.083854
      px      :     0.030506
      py      :     0.015391


                      *****************************
                      * MAYER POPULATION ANALYSIS *
                      *****************************

  NA   - Mulliken gross atomic population
  ZA   - Total nuclear charge
  QA   - Mulliken gross atomic charge
  VA   - Mayer's total valence
  BVA  - Mayer's bonded valence
  FA   - Mayer's free valence

  ATOM       NA         ZA         QA         VA         BVA        FA
  0 C      5.7749     6.0000     0.2251     3.8522     3.8522    -0.0000
  1 N      7.4554     7.0000    -0.4554     3.3527     3.3527    -0.0000
  2 C      6.0641     6.0000    -0.0641     3.9233     3.9233    -0.0000
  3 N      7.3409     7.0000    -0.3409     3.4547     3.4547     0.0000
  4 C      6.1430     6.0000    -0.1430     4.2049     4.2049     0.0000
  5 N      7.5688     7.0000    -0.5688     3.0964     3.0964     0.0000
  6 C      6.0967     6.0000    -0.0967     3.9363     3.9363    -0.0000
  7 N      7.3410     7.0000    -0.3410     3.4323     3.4323     0.0000
  8 C      5.7728     6.0000     0.2272     3.8555     3.8555     0.0000
  9 N      7.5625     7.0000    -0.5625     3.0770     3.0770     0.0000
 10 C      5.8801     6.0000     0.1199     3.9088     3.9088    -0.0000
 11 N      7.4384     7.0000    -0.4384     3.3781     3.3781    -0.0000
 12 C      6.0586     6.0000    -0.0586     3.8014     3.8014    -0.0000
 13 N      7.4294     7.0000    -0.4294     3.4283     3.4283     0.0000
 14 C      5.7882     6.0000     0.2118     3.8221     3.8221    -0.0000
 15 N      7.4410     7.0000    -0.4410     3.3722     3.3722    -0.0000
 16 C      5.7650     6.0000     0.2350     3.7788     3.7788     0.0000
 17 C      6.0934     6.0000    -0.0934     3.9274     3.9274    -0.0000
 18 C      6.1790     6.0000    -0.1790     3.7448     3.7448     0.0000
 19 C      5.7882     6.0000     0.2118     3.8902     3.8902    -0.0000
 20 C      5.7862     6.0000     0.2138     3.8291     3.8291    -0.0000
 21 C      6.0618     6.0000    -0.0618     3.7815     3.7815     0.0000
 22 C      6.0906     6.0000    -0.0906     3.9823     3.9823    -0.0000
 23 C      6.0395     6.0000    -0.0395     3.9928     3.9928    -0.0000
 24 C      5.8068     6.0000     0.1932     3.8210     3.8210    -0.0000
 25 C      5.8854     6.0000     0.1146     3.8916     3.8916    -0.0000
 26 C      6.0802     6.0000    -0.0802     3.9089     3.9089     0.0000
 27 C      5.7807     6.0000     0.2193     3.8630     3.8630    -0.0000
 28 C      6.0618     6.0000    -0.0618     3.9887     3.9887    -0.0000
 29 C      6.1830     6.0000    -0.1830     3.7487     3.7487     0.0000
 30 C      5.7549     6.0000     0.2451     3.7998     3.7998    -0.0000
 31 C      5.7696     6.0000     0.2304     3.8170     3.8170    -0.0000
 32 C      6.0611     6.0000    -0.0611     3.9235     3.9235    -0.0000
 33 C      6.0600     6.0000    -0.0600     3.9712     3.9712    -0.0000
 34 C      6.0511     6.0000    -0.0511     3.9834     3.9834     0.0000
 35 C      5.7715     6.0000     0.2285     3.8164     3.8164     0.0000
 36 C      5.8918     6.0000     0.1082     3.8748     3.8748    -0.0000
 37 C      6.0648     6.0000    -0.0648     3.9175     3.9175     0.0000
 38 C      5.7685     6.0000     0.2315     3.8016     3.8016     0.0000
 39 C      6.0578     6.0000    -0.0578     3.9830     3.9830    -0.0000
 40 C      6.1820     6.0000    -0.1820     3.7259     3.7259     0.0000
 41 C      5.7741     6.0000     0.2259     3.8879     3.8879    -0.0000
 42 C      5.8030     6.0000     0.1970     3.8256     3.8256    -0.0000
 43 C      6.0729     6.0000    -0.0729     3.8998     3.8998    -0.0000
 44 C      6.0897     6.0000    -0.0897     3.9849     3.9849    -0.0000
 45 C      6.0616     6.0000    -0.0616     3.9919     3.9919    -0.0000
 46 C      5.7884     6.0000     0.2116     3.8285     3.8285    -0.0000
 47 C      5.8846     6.0000     0.1154     3.8930     3.8930     0.0000
 48 C      6.0665     6.0000    -0.0665     3.9096     3.9096     0.0000
 49 C      5.7624     6.0000     0.2376     3.8955     3.8955    -0.0000
 50 C      6.0461     6.0000    -0.0461     3.9905     3.9905    -0.0000
 51 C      6.1928     6.0000    -0.1928     3.7386     3.7386    -0.0000
 52 H      0.9686     1.0000     0.0314     0.9860     0.9860     0.0000
 53 H      1.0191     1.0000    -0.0191     0.9994     0.9994    -0.0000
 54 H      0.9390     1.0000     0.0610     0.9345     0.9345     0.0000
 55 H      0.9696     1.0000     0.0304     0.9865     0.9865    -0.0000
 56 H      0.9505     1.0000     0.0495     0.9695     0.9695    -0.0000
 57 H      0.9531     1.0000     0.0469     0.9824     0.9824    -0.0000
 58 H      0.9531     1.0000     0.0469     0.9847     0.9847    -0.0000
 59 H      1.0199     1.0000    -0.0199     0.9639     0.9639     0.0000
 60 H      0.9244     1.0000     0.0756     0.9308     0.9308    -0.0000
 61 H      0.8291     1.0000     0.1709     1.0424     1.0424     0.0000
 62 H      0.8246     1.0000     0.1754     1.0438     1.0438    -0.0000
 63 H      0.9447     1.0000     0.0553     0.9853     0.9853    -0.0000
 64 H      1.0448     1.0000    -0.0448     0.9631     0.9631     0.0000
 65 H      0.9531     1.0000     0.0469     1.0101     1.0101    -0.0000
 66 H      0.9445     1.0000     0.0555     0.9855     0.9855     0.0000
 67 H      0.9376     1.0000     0.0624     0.9719     0.9719    -0.0000
 68 H      0.9428     1.0000     0.0572     0.9868     0.9868     0.0000
 69 H      0.9437     1.0000     0.0563     0.9828     0.9828     0.0000
 70 H      1.0312     1.0000    -0.0312     0.9943     0.9943     0.0000
 71 H      0.9552     1.0000     0.0448     1.0058     1.0058    -0.0000
 72 H      0.9286     1.0000     0.0714     0.9835     0.9835    -0.0000
 73 H      1.0079     1.0000    -0.0079     1.0009     1.0009     0.0000
 74 H      0.9395     1.0000     0.0605     1.0101     1.0101     0.0000
 75 H      0.9292     1.0000     0.0708     0.9838     0.9838     0.0000
 76 H      0.9250     1.0000     0.0750     0.9721     0.9721    -0.0000
 77 H      0.9319     1.0000     0.0681     0.9855     0.9855    -0.0000
 78 H      0.9326     1.0000     0.0674     0.9854     0.9854    -0.0000
 79 H      1.0167     1.0000    -0.0167     0.9975     0.9975     0.0000
 80 H      0.9386     1.0000     0.0614     1.0072     1.0072     0.0000
 81 H      0.9457     1.0000     0.0543     0.9856     0.9856     0.0000
 82 H      1.0251     1.0000    -0.0251     0.9934     0.9934     0.0000
 83 H      0.9581     1.0000     0.0419     1.0082     1.0082     0.0000
 84 H      0.9459     1.0000     0.0541     0.9852     0.9852    -0.0000
 85 H      0.9392     1.0000     0.0608     0.9716     0.9716    -0.0000
 86 H      0.9445     1.0000     0.0555     0.9839     0.9839    -0.0000
 87 H      0.9428     1.0000     0.0572     0.9856     0.9856    -0.0000
 88 H      1.0145     1.0000    -0.0145     0.9968     0.9968     0.0000
 89 H      0.9531     1.0000     0.0469     1.0076     1.0076     0.0000

  Mayer bond orders larger than 0.100000
B(  0-C ,  1-N ) :   1.0953 B(  0-C , 17-C ) :   1.7383 B(  0-C , 52-H ) :   0.9574 
B(  1-N ,  8-C ) :   1.1007 B(  1-N , 10-C ) :   0.9770 B(  2-C , 12-C ) :   1.4829 
B(  2-C , 16-C ) :   1.3817 B(  2-C , 53-H ) :   0.9698 B(  3-N , 14-C ) :   1.2274 
B(  3-N , 16-C ) :   1.1767 B(  3-N , 61-H ) :   0.8970 B(  4-C ,  6-C ) :   1.2321 
B(  4-C , 17-C ) :   1.2323 B(  4-C , 18-C ) :   1.4917 B(  5-N , 19-C ) :   1.4666 
B(  5-N , 27-C ) :   1.3667 B(  6-C ,  8-C ) :   1.7335 B(  6-C , 54-H ) :   0.8541 
B(  7-N , 30-C ) :   1.1945 B(  7-N , 38-C ) :   1.1902 B(  7-N , 62-H ) :   0.8967 
B(  8-C , 55-H ) :   0.9590 B(  9-N , 41-C ) :   1.3950 B(  9-N , 49-C ) :   1.4244 
B( 10-C , 56-H ) :   0.9777 B( 10-C , 57-H ) :   0.9824 B( 10-C , 58-H ) :   0.9835 
B( 11-N , 20-C ) :   1.1313 B( 11-N , 24-C ) :   1.1066 B( 11-N , 25-C ) :   0.9603 
B( 12-C , 14-C ) :   1.3650 B( 12-C , 59-H ) :   0.8951 B( 13-N , 31-C ) :   1.1618 
B( 13-N , 35-C ) :   1.1604 B( 13-N , 36-C ) :   0.9413 B( 14-C , 18-C ) :   1.1158 
B( 15-N , 42-C ) :   1.1074 B( 15-N , 46-C ) :   1.1244 B( 15-N , 47-C ) :   0.9614 
B( 16-C , 51-C ) :   1.1679 B( 17-C , 60-H ) :   0.8351 B( 18-C , 19-C ) :   1.1151 
B( 19-C , 21-C ) :   1.2544 B( 20-C , 28-C ) :   1.6286 B( 20-C , 63-H ) :   0.9702 
B( 21-C , 26-C ) :   1.5807 B( 21-C , 64-H ) :   0.8829 B( 22-C , 23-C ) :   1.2898 
B( 22-C , 28-C ) :   1.2636 B( 22-C , 29-C ) :   1.2258 B( 23-C , 24-C ) :   1.6198 
B( 23-C , 65-H ) :   0.9703 B( 24-C , 66-H ) :   0.9696 B( 25-C , 67-H ) :   0.9760 
B( 25-C , 68-H ) :   0.9828 B( 25-C , 69-H ) :   0.9823 B( 26-C , 27-C ) :   1.2680 
B( 26-C , 70-H ) :   0.9648 B( 27-C , 29-C ) :   1.2073 B( 28-C , 71-H ) :   0.9720 
B( 29-C , 30-C ) :   1.2471 B( 30-C , 32-C ) :   1.2787 B( 31-C , 39-C ) :   1.5877 
B( 31-C , 72-H ) :   0.9681 B( 32-C , 37-C ) :   1.5803 B( 32-C , 73-H ) :   0.9786 
B( 33-C , 34-C ) :   1.3070 B( 33-C , 39-C ) :   1.3040 B( 33-C , 40-C ) :   1.1763 
B( 34-C , 35-C ) :   1.5853 B( 34-C , 74-H ) :   0.9696 B( 35-C , 75-H ) :   0.9681 
B( 36-C , 76-H ) :   0.9768 B( 36-C , 77-H ) :   0.9816 B( 36-C , 78-H ) :   0.9823 
B( 37-C , 38-C ) :   1.2844 B( 37-C , 79-H ) :   0.9764 B( 38-C , 40-C ) :   1.2343 
B( 39-C , 80-H ) :   0.9705 B( 40-C , 41-C ) :   1.2497 B( 41-C , 43-C ) :   1.1848 
B( 42-C , 50-C ) :   1.6331 B( 42-C , 81-H ) :   0.9697 B( 43-C , 48-C ) :   1.6682 
B( 43-C , 82-H ) :   0.9721 B( 44-C , 45-C ) :   1.2632 B( 44-C , 50-C ) :   1.2725 
B( 44-C , 51-C ) :   1.2611 B( 45-C , 46-C ) :   1.6347 B( 45-C , 83-H ) :   0.9718 
B( 46-C , 84-H ) :   0.9700 B( 47-C , 85-H ) :   0.9762 B( 47-C , 86-H ) :   0.9829 
B( 47-C , 87-H ) :   0.9824 B( 48-C , 49-C ) :   1.1882 B( 48-C , 88-H ) :   0.9749 
B( 49-C , 51-C ) :   1.2458 B( 50-C , 89-H ) :   0.9708 B( 54-H , 59-H ) :   0.1197 
B( 60-H , 64-H ) :   0.1371 

-------
TIMINGS
-------

Total SCF time: 0 days 0 hours 28 min 4 sec 

Total time                  ....    1684.917 sec
Sum of individual times     ....    1680.240 sec  ( 99.7%)

Fock matrix formation       ....    1653.225 sec  ( 98.1%)
Diagonalization             ....       8.739 sec  (  0.5%)
Density matrix formation    ....       0.527 sec  (  0.0%)
Population analysis         ....       0.583 sec  (  0.0%)
Initial guess               ....       2.519 sec  (  0.1%)
Orbital Transformation      ....       0.000 sec  (  0.0%)
Orbital Orthonormalization  ....       0.000 sec  (  0.0%)
DIIS solution               ....       3.974 sec  (  0.2%)
SOSCF solution              ....       9.381 sec  (  0.6%)

Maximum memory used throughout the entire SCF-calculation: 302.7 MB


           ************************************************************
           *        Program running with 16 parallel MPI-processes    *
           *              working on a common directory               *
           ************************************************************

------------------------------------------------------------------------------
                                ORCA  MP2 
------------------------------------------------------------------------------

Freezing NCore=104 chemical core electrons

----------
MP2 ENERGY (disk based algorithm)
----------

Dimension of the basis                    ...  918
Memory devoted to MP2                     ... 2000 MB   
Data format for buffers                   ... DOUBLE
Compression type for matrix containers    ... UNCOMPRESSED

-------------------------------
PARTIAL EXCHANGE TRANSFORMATION
-------------------------------

Transformation type                        ... one-operator
Generation of integrals (i,mue|j,nue)      ... ON
Generation of integrals (mue,kappa|nue,tau)... OFF
Generation of integrals (i,mue|a,nue)      ... OFF
Dimension of the basis                     ...  918
Number of internal MOs                     ...  127 (  52- 178)
Pair cutoff                                ... 2.500e-12 Eh
Number of AO pairs in the trafo            ... 421821
Total Number of distinct AO pairs          ... 421821
Memory devoted for trafo                   ... 2000.0 MB 
Max. Number of MO pairs treated together   ...  311      
Number Format for Storage                  ... Double (8 Byte)
Integral package used                      ... LIBINT

Starting integral evaluation:
    ... done with AO integral generation
Closing buffer AOK     (38.10 GB; CompressionRatio= 1.33)
Collecting buffer AOK 
Number of MO pairs included in the trafo   ... 8128
------------------------
SORTING OF (i,mue|j,nue)
------------------------

IBATCH = 1 of  2
IBATCH = 2 of  2
Closing buffer KAO     (51.03 GB; CompressionRatio= 1.00)
Collecting buffer KAO 
N(AO-Batches) Done                         ...  86265133 
N(AO-Batches) Skipped                      ...  82258542 
N(IJ)-pairs Skipped                        ...         0 
TOTAL TIME for half transformation         ...  2823.480 sec
AO-integral generation                     ...   213.243 sec
Half transformation                        ...   424.381 sec
K-integral sorting                         ...  1967.245 sec
Process 13:   Internal MO 156
Process 10:   Internal MO 132

Finished integral transformation - now doing MP2 part

OPERATOR COMBINATION   0   0: ij=( 52..178, 52..178)
Process  7:   Internal MO 108
Process  1:   Internal MO  60
Process  4:   Internal MO  84
Process  0:   Internal MO  54
Process  2:   Internal MO  69
Process  1:   Internal MO  63
Process  0:   Internal MO  57
Process  5:   Internal MO  93
Process  3:   Internal MO  78
Process  1:   Internal MO  66
Process  8:   Internal MO 117
Process  2:   Internal MO  72
Process 11:   Internal MO 141
Process  4:   Internal MO  87
Process  6:   Internal MO 102
Process 14:   Internal MO 165
Process  3:   Internal MO  81
Process  5:   Internal MO  96
Process  9:   Internal MO 126
Process  2:   Internal MO  75
Process  7:   Internal MO 111
Process  4:   Internal MO  90
Process 12:   Internal MO 150
Process 10:   Internal MO 135
Process  5:   Internal MO  99
Process 15:   Internal MO 174
Process  8:   Internal MO 120
Process  6:   Internal MO 105
Process 13:   Internal MO 159
Process 11:   Internal MO 144
Process  7:   Internal MO 114
Process  9:   Internal MO 129
Process 14:   Internal MO 168
Process  8:   Internal MO 123
Process 10:   Internal MO 138
Process 12:   Internal MO 153
Process 11:   Internal MO 147
Process 15:   Internal MO 177
Process 13:   Internal MO 162
Process 14:   Internal MO 171
-----------------------------------------------
 MP2 CORRELATION ENERGY   :     -7.293974442 Eh
-----------------------------------------------


-------
TIMINGS
-------
Total time                : 3071.087 sec
Integral trafo            : 2828.126 sec ( 92.1%)
K(i,j)                    :   10.980 sec (  0.4%)
T(i,j)                    :    0.078 sec (  0.0%)

---------------------------------------
MP2 TOTAL ENERGY:    -2130.728921358 Eh
---------------------------------------

Maximum memory used throughout the entire MP2-calculation: 2275.3 MB

-------------------------   --------------------
FINAL SINGLE POINT ENERGY     -2130.728921358345
-------------------------   --------------------


                            ***************************************
                            *     ORCA property calculations      *
                            ***************************************


  WARNING: The energy has been calculated at the MP2 level but the densities
           used in the property calculations are still SCF densities
           MP2 response densities have not been calculated 
           use %mp2 Density relaxed end
           or  %mp2 Density unrelaxed end

                                    ---------------------
                                    Active property flags
                                    ---------------------
   (+) Dipole Moment


------------------------------------------------------------------------------
                       ORCA ELECTRIC PROPERTIES CALCULATION
------------------------------------------------------------------------------

Dipole Moment Calculation                       ... on
Quadrupole Moment Calculation                   ... off
Polarizability Calculation                      ... off
GBWName                                         ... /scratch/allen/tmpyp4_amber_gaff2/conf1/conf1/Conf184.orca.gbw
Electron density                                ... /scratch/allen/tmpyp4_amber_gaff2/conf1/conf1/Conf184.orca.scfp
The origin for moment calculation is the CENTER OF MASS  = ( 0.003285, -0.001795  0.000211)

-------------
DIPOLE MOMENT
-------------
                                X             Y             Z
Electronic contribution:      2.71144      -4.33505      -0.19459
Nuclear contribution   :      0.06568       0.23079       0.19674
                        -----------------------------------------
Total Dipole Moment    :      2.77712      -4.10426       0.00215
                        -----------------------------------------
Magnitude (a.u.)       :      4.95554
Magnitude (Debye)      :     12.59597



--------------------
Rotational spectrum 
--------------------
 
Rotational constants in cm-1:     0.001502     0.001480     0.000760 
Rotational constants in MHz :    45.013959    44.359717    22.779981 

 Dipole components along the rotational axes: 
x,y,z [a.u.] :     3.431428     3.575281     0.003726 
x,y,z [Debye]:     8.721996     9.087642     0.009471 

 

Timings for individual modules:

Sum of individual times         ...     4779.828 sec (=  79.664 min)
GTO integral calculation        ...        3.449 sec (=   0.057 min)   0.1 %
SCF iterations                  ...     1686.127 sec (=  28.102 min)  35.3 %
MP2 module                      ...     3090.252 sec (=  51.504 min)  64.7 %
                             ****ORCA TERMINATED NORMALLY****
TOTAL RUN TIME: 0 days 1 hours 19 minutes 43 seconds 259 msec
# of primitive gaussian functions

