
                                 *****************
                                 * O   R   C   A *
                                 *****************

                                            #,                                       
                                            ###                                      
                                            ####                                     
                                            #####                                    
                                            ######                                   
                                           ########,                                 
                                     ,,################,,,,,                         
                               ,,#################################,,                 
                          ,,##########################################,,             
                       ,#########################################, ''#####,          
                    ,#############################################,,   '####,        
                  ,##################################################,,,,####,       
                ,###########''''           ''''###############################       
              ,#####''   ,,,,##########,,,,          '''####'''          '####       
            ,##' ,,,,###########################,,,                        '##       
           ' ,,###''''                  '''############,,,                           
         ,,##''                                '''############,,,,        ,,,,,,###''
      ,#''                                            '''#######################'''  
     '                                                          ''''####''''         
             ,#######,   #######,   ,#######,      ##                                
            ,#'     '#,  ##    ##  ,#'     '#,    #''#        ######   ,####,        
            ##       ##  ##   ,#'  ##            #'  '#       #        #'  '#        
            ##       ##  #######   ##           ,######,      #####,   #    #        
            '#,     ,#'  ##    ##  '#,     ,#' ,#      #,         ##   #,  ,#        
             '#######'   ##     ##  '#######'  #'      '#     #####' # '####'        



                  #######################################################
                  #                        -***-                        #
                  #          Department of theory and spectroscopy      #
                  #    Directorship and core code : Frank Neese         #
                  #        Max Planck Institute fuer Kohlenforschung    #
                  #                Kaiser Wilhelm Platz 1               #
                  #                 D-45470 Muelheim/Ruhr               #
                  #                      Germany                        #
                  #                                                     #
                  #                  All rights reserved                #
                  #                        -***-                        #
                  #######################################################


                         Program Version 5.0.4 -  RELEASE  -


 With contributions from (in alphabetic order):
   Daniel Aravena         : Magnetic Suceptibility
   Michael Atanasov       : Ab Initio Ligand Field Theory (pilot matlab implementation)
   Alexander A. Auer      : GIAO ZORA, VPT2 properties, NMR spectrum
   Ute Becker             : Parallelization
   Giovanni Bistoni       : ED, misc. LED, open-shell LED, HFLD
   Martin Brehm           : Molecular dynamics
   Dmytro Bykov           : SCF Hessian
   Vijay G. Chilkuri      : MRCI spin determinant printing, contributions to CSF-ICE
   Dipayan Datta          : RHF DLPNO-CCSD density
   Achintya Kumar Dutta   : EOM-CC, STEOM-CC
   Dmitry Ganyushin       : Spin-Orbit,Spin-Spin,Magnetic field MRCI
   Miquel Garcia          : C-PCM and meta-GGA Hessian, CC/C-PCM, Gaussian charge scheme
   Yang Guo               : DLPNO-NEVPT2, F12-NEVPT2, CIM, IAO-localization
   Andreas Hansen         : Spin unrestricted coupled pair/coupled cluster methods
   Benjamin Helmich-Paris : MC-RPA, TRAH-SCF, COSX integrals
   Lee Huntington         : MR-EOM, pCC
   Robert Izsak           : Overlap fitted RIJCOSX, COSX-SCS-MP3, EOM
   Marcus Kettner         : VPT2
   Christian Kollmar      : KDIIS, OOCD, Brueckner-CCSD(T), CCSD density, CASPT2, CASPT2-K
   Simone Kossmann        : Meta GGA functionals, TD-DFT gradient, OOMP2, MP2 Hessian
   Martin Krupicka        : Initial AUTO-CI
   Lucas Lang             : DCDCAS
   Marvin Lechner         : AUTO-CI (C++ implementation), FIC-MRCC
   Dagmar Lenk            : GEPOL surface, SMD
   Dimitrios Liakos       : Extrapolation schemes; Compound Job, initial MDCI parallelization
   Dimitrios Manganas     : Further ROCIS development; embedding schemes
   Dimitrios Pantazis     : SARC Basis sets
   Anastasios Papadopoulos: AUTO-CI, single reference methods and gradients
   Taras Petrenko         : DFT Hessian,TD-DFT gradient, ASA, ECA, R-Raman, ABS, FL, XAS/XES, NRVS
   Peter Pinski           : DLPNO-MP2, DLPNO-MP2 Gradient
   Christoph Reimann      : Effective Core Potentials
   Marius Retegan         : Local ZFS, SOC
   Christoph Riplinger    : Optimizer, TS searches, QM/MM, DLPNO-CCSD(T), (RO)-DLPNO pert. Triples
   Tobias Risthaus        : Range-separated hybrids, TD-DFT gradient, RPA, STAB
   Michael Roemelt        : Original ROCIS implementation
   Masaaki Saitow         : Open-shell DLPNO-CCSD energy and density
   Barbara Sandhoefer     : DKH picture change effects
   Avijit Sen             : IP-ROCIS
   Kantharuban Sivalingam : CASSCF convergence, NEVPT2, FIC-MRCI
   Bernardo de Souza      : ESD, SOC TD-DFT
   Georgi Stoychev        : AutoAux, RI-MP2 NMR, DLPNO-MP2 response
   Willem Van den Heuvel  : Paramagnetic NMR
   Boris Wezisla          : Elementary symmetry handling
   Frank Wennmohs         : Technical directorship


 We gratefully acknowledge several colleagues who have allowed us to
 interface, adapt or use parts of their codes:
   Stefan Grimme, W. Hujo, H. Kruse, P. Pracht,  : VdW corrections, initial TS optimization,
                  C. Bannwarth, S. Ehlert          DFT functionals, gCP, sTDA/sTD-DF
   Ed Valeev, F. Pavosevic, A. Kumar             : LibInt (2-el integral package), F12 methods
   Garnet Chan, S. Sharma, J. Yang, R. Olivares  : DMRG
   Ulf Ekstrom                                   : XCFun DFT Library
   Mihaly Kallay                                 : mrcc  (arbitrary order and MRCC methods)
   Jiri Pittner, Ondrej Demel                    : Mk-CCSD
   Frank Weinhold                                : gennbo (NPA and NBO analysis)
   Christopher J. Cramer and Donald G. Truhlar   : smd solvation model
   Lars Goerigk                                  : TD-DFT with DH, B97 family of functionals
   V. Asgeirsson, H. Jonsson                     : NEB implementation
   FAccTs GmbH                                   : IRC, NEB, NEB-TS, DLPNO-Multilevel, CI-OPT
                                                   MM, QMMM, 2- and 3-layer-ONIOM, Crystal-QMMM,
                                                   LR-CPCM, SF, NACMEs, symmetry and pop. for TD-DFT,
                                                   nearIR, NL-DFT gradient (VV10), updates on ESD,
                                                   ML-optimized integration grids
   S Lehtola, MJT Oliveira, MAL Marques          : LibXC Library
   Liviu Ungur et al                             : ANISO software


 Your calculation uses the libint2 library for the computation of 2-el integrals
 For citations please refer to: http://libint.valeyev.net

 Your ORCA version has been built with support for libXC version: 5.1.0
 For citations please refer to: https://tddft.org/programs/libxc/

 This ORCA versions uses:
   CBLAS   interface :  Fast vector & matrix operations
   LAPACKE interface :  Fast linear algebra routines
   SCALAPACK package :  Parallel linear algebra routines
   Shared memory     :  Shared parallel matrices
   BLAS/LAPACK       :  OpenBLAS 0.3.15  USE64BITINT DYNAMIC_ARCH NO_AFFINITY Sandybridge SINGLE_THREADED
        Core in use  :  Sandybridge
   Copyright (c) 2011-2014, The OpenBLAS Project


================================================================================

----- Orbital basis set information -----
Your calculation utilizes the basis: cc-pVDZ 
       H, B-Ne : Obtained from the ccRepo (grant-hill.group.shef.ac.uk/ccrepo) Feb. 2017
                 T. H. Dunning, Jr., J. Chem. Phys. 90, 1007 (1989)
            He : Obtained from the ccRepo (grant-hill.group.shef.ac.uk/ccrepo) Feb. 2017
                 D. E. Woon, T. H. Dunning, Jr., J. Chem. Phys. 100, 2975 (1994)
  Li-Be, Na-Mg : Obtained from the ccRepo (grant-hill.group.shef.ac.uk/ccrepo) Feb. 2017
                 B. P. Prascher, D. E. Woon, K. A. Peterson, T. H. Dunning, Jr., A. K. Wilson, Theor. Chem. Acc. 128, 69 (2011)
         Al-Ar : Obtained from the ccRepo (grant-hill.group.shef.ac.uk/ccrepo) Feb. 2017
                 D. E. Woon, T. H. Dunning, Jr., J. Chem. Phys. 98, 1358 (1993)
            Ca : Obtained from the Peterson Research Group Website (tyr0.chem.wsu.edu/~kipeters) Feb. 2017
                 J. Koput, K. A. Peterson, J. Phys. Chem. 106, 9595 (2002)
         Sc-Zn : Obtained from the ccRepo (grant-hill.group.shef.ac.uk/ccrepo) Feb. 2017
                 N. B. Balabanov, K. A. Peterson, J. Chem. Phys. 123, 064107 (2005)
                 N. B. Balabanov, K. A. Peterson, J. Chem. Phys. 125, 074110 (2006)
         Ga-Kr : Obtained from the ccRepo (grant-hill.group.shef.ac.uk/ccrepo) Feb. 2017
                 A. K. Wilson, D. E. Woon, K. A. Peterson, T. H. Dunning, Jr., J. Chem. Phys. 110, 7667 (1999)

================================================================================
                                        WARNINGS
                       Please study these warnings very carefully!
================================================================================


WARNING: No MP2 level density has been requested!
         To caclulate MP2 level properties use
         %mp2 Density relaxed end
         or
         %mp2 Density unrelaxed end

WARNING: Post HF methods need fully converged wavefunctions
  ===> : Setting SCFConvForced true
         You can overwrite this default with %scf ConvForced false 


INFO   : the flag for use of the SHARK integral package has been found!

================================================================================
                                       INPUT FILE
================================================================================
NAME = /scratch/allen/tmpyp4_amber_gaff2/2.Mdgx/conf11/conf11/Conf294.orca
|  1> ! PAL2
|  2> ! mp2 cc-pvdz TightSCF  NoKeepInts
|  3> 
|  4> %scf
|  5>   MaxCore 2000
|  6> end
|  7> %mp2
|  8>   MaxCore 2000
|  9> end
| 10> * xyz 0 1
| 11>    C       -3.63700         6.06100         1.16900
| 12>    C        1.47400         4.04100         0.05700
| 13>    C       -2.80200         4.09300         0.04900
| 14>    C       -3.59200         4.44900        -1.05500
| 15>    C       -4.36900         5.58900        -1.01300
| 16>    C       -5.20100         7.61100         0.08800
| 17>    C        0.13200         4.30700         0.06100
| 18>    C       -0.56900         3.05600         0.04700
| 19>    C        1.64900         2.61800         0.02300
| 20>    C       -2.83900         4.93300         1.17300
| 21>    N       -4.38700         6.37500         0.08900
| 22>    N        0.38800         2.06700         0.02500
| 23>    N       -2.01000         0.39500        -0.07500
| 24>    N       -0.38800        -2.07400        -0.02700
| 25>    N        2.01000        -0.40100         0.06500
| 26>    C       -1.96000         2.86100         0.02400
| 27>    C       -2.62300         1.61500        -0.01800
| 28>    C       -5.57300        -4.32900         1.06600
| 29>    C       -4.07300         1.47100         0.05600
| 30>    C       -4.10600        -2.75600        -0.02600
| 31>    C       -4.99500        -2.75700        -1.11100
| 32>    C       -6.13200        -3.54200        -1.07600
| 33>    C       -7.65100        -5.11300         0.04000
| 34>    C       -4.32400         0.14100         0.03700
| 35>    C       -3.02500        -0.52000        -0.04800
| 36>    C       -4.42200        -3.56600         1.07500
| 37>    N       -6.40700        -4.31300         0.00100
| 38>    C       -2.86700        -1.92200        -0.04000
| 39>    C       -1.65000        -2.62400        -0.02700
| 40>    C        3.56800        -6.14200        -1.04000
| 41>    C       -1.47600        -4.04900        -0.03400
| 42>    C        2.80300        -4.09900        -0.00800
| 43>    C        3.65700        -4.38400         1.06900
| 44>    C        4.42700        -5.53000         1.05900
| 45>    C        5.24500        -7.58800         0.01400
| 46>    C       -0.13400        -4.31500        -0.02200
| 47>    C        0.56800        -3.06400        -0.02700
| 48>    C        2.77500        -5.01200        -1.07400
| 49>    N        4.37600        -6.39100         0.01700
| 50>    C        1.95900        -2.86900        -0.00900
| 51>    C        2.62100        -1.62200         0.00900
| 52>    C        5.54300         4.33900        -1.13000
| 53>    C        4.07000        -1.47900        -0.09400
| 54>    C        4.10400         2.75100        -0.02100
| 55>    C        5.02700         2.72900         1.03600
| 56>    C        6.16600         3.50900         0.97800
| 57>    C        7.61900         5.15300        -0.11500
| 58>    C        4.32100        -0.14800        -0.09200
| 59>    C        3.02500         0.51400         0.01500
| 60>    C        4.38700         3.58200        -1.11500
| 61>    C        2.86600         1.91600         0.01300
| 62>    N        6.41300         4.29600        -0.09500
| 63>    H       -3.70500         6.73000         2.01800
| 64>    H        2.27400         4.76600         0.08100
| 65>    H       -3.59900         3.84600        -1.95500
| 66>    H       -4.98700         5.90900        -1.84200
| 67>    H       -4.61600         8.42200        -0.35300
| 68>    H       -6.10300         7.43700        -0.49800
| 69>    H       -5.46500         7.85700         1.11600
| 70>    H       -0.33200         5.28200         0.06900
| 71>    H       -2.26200         4.70500         2.06200
| 72>    H        0.18200         1.07200         0.00500
| 73>    H       -0.18300        -1.08000        -0.02100
| 74>    H       -5.86400        -4.96200         1.89500
| 75>    H       -4.79400         2.27200         0.13900
| 76>    H       -4.80000        -2.16000        -1.99400
| 77>    H       -6.84100        -3.58200        -1.89300
| 78>    H       -8.42800        -4.53600         0.54600
| 79>    H       -7.95600        -5.33700        -0.98100
| 80>    H       -7.45600        -6.03700         0.58400
| 81>    H       -5.28700        -0.34400         0.10000
| 82>    H       -3.78000        -3.60100         1.94700
| 83>    H        3.58700        -6.86800        -1.84300
| 84>    H       -2.27600        -4.77400        -0.05000
| 85>    H        3.71400        -3.72400         1.92600
| 86>    H        5.09200        -5.79500         1.87100
| 87>    H        6.20500        -7.32900        -0.43900
| 88>    H        5.39300        -7.91700         1.04200
| 89>    H        4.75900        -8.37300        -0.56400
| 90>    H        0.32900        -5.29000        -0.00800
| 91>    H        2.14600        -4.84200        -1.94000
| 92>    H        5.80800         4.98600        -1.95600
| 93>    H        4.78800        -2.28100        -0.18500
| 94>    H        4.86000         2.11400         1.91200
| 95>    H        6.90100         3.53100         1.77200
| 96>    H        7.38300         6.10900         0.35600
| 97>    H        8.41400         4.65200         0.43500
| 98>    H        7.92100         5.31000        -1.15000
| 99>    H        5.28300         0.33600        -0.17900
|100>    H        3.72000         3.63200        -1.96700
|101> *
|102> 
|103>                          ****END OF INPUT****
================================================================================

                       ****************************
                       * Single Point Calculation *
                       ****************************

---------------------------------
CARTESIAN COORDINATES (ANGSTROEM)
---------------------------------
  C     -3.637000    6.061000    1.169000
  C      1.474000    4.041000    0.057000
  C     -2.802000    4.093000    0.049000
  C     -3.592000    4.449000   -1.055000
  C     -4.369000    5.589000   -1.013000
  C     -5.201000    7.611000    0.088000
  C      0.132000    4.307000    0.061000
  C     -0.569000    3.056000    0.047000
  C      1.649000    2.618000    0.023000
  C     -2.839000    4.933000    1.173000
  N     -4.387000    6.375000    0.089000
  N      0.388000    2.067000    0.025000
  N     -2.010000    0.395000   -0.075000
  N     -0.388000   -2.074000   -0.027000
  N      2.010000   -0.401000    0.065000
  C     -1.960000    2.861000    0.024000
  C     -2.623000    1.615000   -0.018000
  C     -5.573000   -4.329000    1.066000
  C     -4.073000    1.471000    0.056000
  C     -4.106000   -2.756000   -0.026000
  C     -4.995000   -2.757000   -1.111000
  C     -6.132000   -3.542000   -1.076000
  C     -7.651000   -5.113000    0.040000
  C     -4.324000    0.141000    0.037000
  C     -3.025000   -0.520000   -0.048000
  C     -4.422000   -3.566000    1.075000
  N     -6.407000   -4.313000    0.001000
  C     -2.867000   -1.922000   -0.040000
  C     -1.650000   -2.624000   -0.027000
  C      3.568000   -6.142000   -1.040000
  C     -1.476000   -4.049000   -0.034000
  C      2.803000   -4.099000   -0.008000
  C      3.657000   -4.384000    1.069000
  C      4.427000   -5.530000    1.059000
  C      5.245000   -7.588000    0.014000
  C     -0.134000   -4.315000   -0.022000
  C      0.568000   -3.064000   -0.027000
  C      2.775000   -5.012000   -1.074000
  N      4.376000   -6.391000    0.017000
  C      1.959000   -2.869000   -0.009000
  C      2.621000   -1.622000    0.009000
  C      5.543000    4.339000   -1.130000
  C      4.070000   -1.479000   -0.094000
  C      4.104000    2.751000   -0.021000
  C      5.027000    2.729000    1.036000
  C      6.166000    3.509000    0.978000
  C      7.619000    5.153000   -0.115000
  C      4.321000   -0.148000   -0.092000
  C      3.025000    0.514000    0.015000
  C      4.387000    3.582000   -1.115000
  C      2.866000    1.916000    0.013000
  N      6.413000    4.296000   -0.095000
  H     -3.705000    6.730000    2.018000
  H      2.274000    4.766000    0.081000
  H     -3.599000    3.846000   -1.955000
  H     -4.987000    5.909000   -1.842000
  H     -4.616000    8.422000   -0.353000
  H     -6.103000    7.437000   -0.498000
  H     -5.465000    7.857000    1.116000
  H     -0.332000    5.282000    0.069000
  H     -2.262000    4.705000    2.062000
  H      0.182000    1.072000    0.005000
  H     -0.183000   -1.080000   -0.021000
  H     -5.864000   -4.962000    1.895000
  H     -4.794000    2.272000    0.139000
  H     -4.800000   -2.160000   -1.994000
  H     -6.841000   -3.582000   -1.893000
  H     -8.428000   -4.536000    0.546000
  H     -7.956000   -5.337000   -0.981000
  H     -7.456000   -6.037000    0.584000
  H     -5.287000   -0.344000    0.100000
  H     -3.780000   -3.601000    1.947000
  H      3.587000   -6.868000   -1.843000
  H     -2.276000   -4.774000   -0.050000
  H      3.714000   -3.724000    1.926000
  H      5.092000   -5.795000    1.871000
  H      6.205000   -7.329000   -0.439000
  H      5.393000   -7.917000    1.042000
  H      4.759000   -8.373000   -0.564000
  H      0.329000   -5.290000   -0.008000
  H      2.146000   -4.842000   -1.940000
  H      5.808000    4.986000   -1.956000
  H      4.788000   -2.281000   -0.185000
  H      4.860000    2.114000    1.912000
  H      6.901000    3.531000    1.772000
  H      7.383000    6.109000    0.356000
  H      8.414000    4.652000    0.435000
  H      7.921000    5.310000   -1.150000
  H      5.283000    0.336000   -0.179000
  H      3.720000    3.632000   -1.967000

----------------------------
CARTESIAN COORDINATES (A.U.)
----------------------------
  NO LB      ZA    FRAG     MASS         X           Y           Z
   0 C     6.0000    0    12.011   -6.872934   11.453630    2.209090
   1 C     6.0000    0    12.011    2.785456    7.636383    0.107714
   2 C     6.0000    0    12.011   -5.295013    7.734649    0.092597
   3 C     6.0000    0    12.011   -6.787896    8.407392   -1.993661
   4 C     6.0000    0    12.011   -8.256213   10.561679   -1.914293
   5 C     6.0000    0    12.011   -9.828466   14.382706    0.166296
   6 C     6.0000    0    12.011    0.249444    8.139050    0.115273
   7 C     6.0000    0    12.011   -1.075254    5.775003    0.088817
   8 C     6.0000    0    12.011    3.116158    4.947303    0.043464
   9 C     6.0000    0    12.011   -5.364932    9.322019    2.216649
  10 N     7.0000    0    14.007   -8.290229   12.047004    0.168186
  11 N     7.0000    0    14.007    0.733214    3.906064    0.047243
  12 N     7.0000    0    14.007   -3.798350    0.746442   -0.141729
  13 N     7.0000    0    14.007   -0.733214   -3.919292   -0.051023
  14 N     7.0000    0    14.007    3.798350   -0.757780    0.122832
  15 C     6.0000    0    12.011   -3.703863    5.406506    0.045353
  16 C     6.0000    0    12.011   -4.956752    3.051908   -0.034015
  17 C     6.0000    0    12.011  -10.531444   -8.180624    2.014448
  18 C     6.0000    0    12.011   -7.696855    2.779787    0.105825
  19 C     6.0000    0    12.011   -7.759216   -5.208085   -0.049133
  20 C     6.0000    0    12.011   -9.439182   -5.209975   -2.099486
  21 C     6.0000    0    12.011  -11.587801   -6.693410   -2.033345
  22 C     6.0000    0    12.011  -14.458295   -9.662170    0.075589
  23 C     6.0000    0    12.011   -8.171176    0.266451    0.069920
  24 C     6.0000    0    12.011   -5.716422   -0.982658   -0.090707
  25 C     6.0000    0    12.011   -8.356369   -6.738763    2.031456
  26 N     7.0000    0    14.007  -12.107475   -8.150389    0.001890
  27 C     6.0000    0    12.011   -5.417845   -3.632054   -0.075589
  28 C     6.0000    0    12.011   -3.118048   -4.958641   -0.051023
  29 C     6.0000    0    12.011    6.742543  -11.606698   -1.965315
  30 C     6.0000    0    12.011   -2.789236   -7.651501   -0.064251
  31 C     6.0000    0    12.011    5.296902   -7.745987   -0.015118
  32 C     6.0000    0    12.011    6.910728   -8.284559    2.020117
  33 C     6.0000    0    12.011    8.365818  -10.450186    2.001220
  34 C     6.0000    0    12.011    9.911614  -14.339242    0.026456
  35 C     6.0000    0    12.011   -0.253223   -8.154168   -0.041574
  36 C     6.0000    0    12.011    1.073364   -5.790121   -0.051023
  37 C     6.0000    0    12.011    5.243990   -9.471307   -2.029566
  38 N     7.0000    0    14.007    8.269442  -12.077240    0.032125
  39 C     6.0000    0    12.011    3.701973   -5.421624   -0.017008
  40 C     6.0000    0    12.011    4.952972   -3.065136    0.017008
  41 C     6.0000    0    12.011   10.474752    8.199522   -2.135391
  42 C     6.0000    0    12.011    7.691185   -2.794905   -0.177634
  43 C     6.0000    0    12.011    7.755436    5.198637   -0.039684
  44 C     6.0000    0    12.011    9.499653    5.157063    1.957756
  45 C     6.0000    0    12.011   11.652051    6.631049    1.848152
  46 C     6.0000    0    12.011   14.397823    9.737759   -0.217319
  47 C     6.0000    0    12.011    8.165507   -0.279679   -0.173855
  48 C     6.0000    0    12.011    5.716422    0.971319    0.028346
  49 C     6.0000    0    12.011    8.290229    6.768999   -2.107045
  50 C     6.0000    0    12.011    5.415955    3.620715    0.024566
  51 N     7.0000    0    14.007   12.118814    8.118263   -0.179524
  52 H     1.0000    0     1.008   -7.001435   12.717857    3.813467
  53 H     1.0000    0     1.008    4.297237    9.006435    0.153068
  54 H     1.0000    0     1.008   -6.801124    7.267887   -3.694415
  55 H     1.0000    0     1.008   -9.424064   11.166392   -3.480876
  56 H     1.0000    0     1.008   -8.722976   15.915273   -0.667073
  57 H     1.0000    0     1.008  -11.532999   14.053893   -0.941084
  58 H     1.0000    0     1.008  -10.327353   14.847578    2.108934
  59 H     1.0000    0     1.008   -0.627389    9.981533    0.130391
  60 H     1.0000    0     1.008   -4.274561    8.891161    3.896615
  61 H     1.0000    0     1.008    0.343930    2.025786    0.009449
  62 H     1.0000    0     1.008   -0.345820   -2.040904   -0.039684
  63 H     1.0000    0     1.008  -11.081354   -9.376821    3.581031
  64 H     1.0000    0     1.008   -9.059347    4.293458    0.262672
  65 H     1.0000    0     1.008   -9.070685   -4.081808   -3.768114
  66 H     1.0000    0     1.008  -12.927616   -6.768999   -3.577252
  67 H     1.0000    0     1.008  -15.926612   -8.571798    1.031790
  68 H     1.0000    0     1.008  -15.034661  -10.085468   -1.853821
  69 H     1.0000    0     1.008  -14.089798  -11.408277    1.103600
  70 H     1.0000    0     1.008   -9.990982   -0.650066    0.188973
  71 H     1.0000    0     1.008   -7.143165   -6.804904    3.679297
  72 H     1.0000    0     1.008    6.778448  -12.978639   -3.482765
  73 H     1.0000    0     1.008   -4.301017   -9.021553   -0.094486
  74 H     1.0000    0     1.008    7.018443   -7.037340    3.639613
  75 H     1.0000    0     1.008    9.622485  -10.950963    3.535678
  76 H     1.0000    0     1.008   11.725751  -13.849803   -0.829590
  77 H     1.0000    0     1.008   10.191293  -14.960962    1.969095
  78 H     1.0000    0     1.008    8.993207  -15.822677   -1.065806
  79 H     1.0000    0     1.008    0.621720   -9.996651   -0.015118
  80 H     1.0000    0     1.008    4.055352   -9.150054   -3.666069
  81 H     1.0000    0     1.008   10.975529    9.422175   -3.696304
  82 H     1.0000    0     1.008    9.048009   -4.310465   -0.349599
  83 H     1.0000    0     1.008    9.184069    3.994881    3.613156
  84 H     1.0000    0     1.008   13.041000    6.672623    3.348595
  85 H     1.0000    0     1.008   13.951848   11.544337    0.672743
  86 H     1.0000    0     1.008   15.900156    8.791006    0.822031
  87 H     1.0000    0     1.008   14.968521   10.034446   -2.173185
  88 H     1.0000    0     1.008    9.983423    0.634948   -0.338261
  89 H     1.0000    0     1.008    7.029781    6.863485   -3.717091

--------------------------------
INTERNAL COORDINATES (ANGSTROEM)
--------------------------------
 C      0   0   0     0.000000000000     0.00000000     0.00000000
 C      1   0   0     5.607072765713     0.00000000     0.00000000
 C      1   2   0     2.413430960272    45.47872980     0.00000000
 C      3   1   2     1.403442909420    87.90572758   233.59653493
 C      4   3   1     1.380251064118   120.16237101     0.12460471
 C      5   4   3     2.448041870557   152.52403029     1.66625246
 C      2   1   3     1.368114030335    15.25750707    19.20914710
 C      7   2   1     1.434084376876   108.05010202   227.33656603
 C      2   1   3     1.434123425651   118.25500385   327.62213555
 C      1   2   3     1.381739483405    34.91871199    44.87338117
 N      1   2   3     1.351849104005   115.52790714   296.94755114
 N      9   2   1     1.376127174356   106.58526707    11.77529643
 N     12   9   2     2.925062050624   168.53581413   171.12065651
 N     13  12   9     2.954513327098    91.55032014    11.12112580
 N     14  13  12     2.925371258490    88.43092389   359.84326247
 C      8   7   2     1.404790019896   127.24786865   181.11170171
 C     13  12   9     1.366535034311    81.72106996   188.00453233
 C     14  13  12     5.758810554272    80.56209567   166.76250791
 C     17  13  12     1.459010623676   111.08861209   183.82872609
 C     18  14  13     2.412235892279    27.27532823    36.33507194
 C     20  18  14     1.402692767501    87.95206320   148.94598259
 C     21  20  18     1.382106725257   120.14573887   359.70382047
 C     18  14  13     2.446510985056   144.15733107    82.80075377
 C     19  17  13     1.353610726908   106.29293361   359.75308708
 C     13  12   9     1.366813447402   172.21332906    33.46711076
 C     18  14  13     1.380960173213    15.08449437   309.23336894
 N     22  21  20     1.352773077792   120.73759875     0.27865223
 C     25  13  17     1.410897586645   125.60330303   182.37774668
 C     14  13  12     1.376642291955    80.24689249   177.85461986
 C     14  13  12     5.764089607215   164.51507311   312.20821879
 C     29  14  13     1.435600919476   106.58649366   178.76395472
 C     30  14  13     2.413316804732    27.10625047    82.12560436
 C     32  30  14     1.403734305344    87.90059683   149.76154742
 C     33  32  30     1.380694028378   120.14881443   359.74174632
 C     34  33  32     2.448777858443   152.49203239     2.45173620
 C     31  29  14     1.368160809262   108.16950133     0.70383075
 C     14  13  12     1.376239804685   169.26375223   353.09862627
 C     30  14  13     1.380907310430    14.68948582   353.70041132
 N     34  33  32     1.352658863128   120.85575621     0.19603406
 C     37  14  29     1.404717053360   126.01551127   180.90772073
 C     15  14  13     1.366491126938    81.61824056   183.09049352
 C      2   1   3     4.249062720177   154.55998034   138.50771725
 C     41  15  14     1.459677704153   111.05201287   175.08990246
 C     42   2   1     2.412953791518    41.78584867   164.38824499
 C     44  42   2     1.403446472082    87.95153797   233.97558675
 C     45  44  42     1.381696421071   120.11137308     0.19721020
 C     42   2   1     2.450019795838   135.97209175    74.70309409
 C     43  41  15     1.354461516618   106.26758155     0.30894352
 C     15  14  13     1.367461151185   171.87382904   332.35056460
 C     42   2   1     1.381886391857    32.59078432   213.24352418
 C      9   2   1     1.404988612053   126.98745415   192.77963396
 N     42   2   1     1.352765315936   113.57249190   102.43968329
 H      1   2   3     1.083044782084   115.79982560   155.48116117
 H      2   1   3     1.079907866440   115.40374424   159.24562521
 H      4   3   1     1.083354974143   121.06087707   179.55657548
 H      5   4   3     1.082388562393   122.83985326   179.42173947
 H      6   5   4     1.092898439929   104.44910867   100.04334893
 H      6   5   4     1.089621952789    84.69661352   209.52229352
 H      6   5   4     1.089493460283   133.88504222   322.38639748
 H      7   2   1     1.079807853278   126.66122480    47.57497982
 H     10   1   2     1.084082100212   118.78070869    89.59863195
 H     12   9   2     1.016297692608   125.29023241   180.00180175
 H     14  13  12     1.014936943854    44.97226959   359.42596618
 H     18  14  13     1.082871645210   128.03556573   234.20482432
 H     19  17  13     1.080893611786   126.41830519   178.11313280
 H     21  20  18     1.083569563987   121.05669627   180.67006309
 H     22  21  20     1.082483256222   122.73097286   180.59748951
 H     23  18  14     1.092105306278   103.92715769   234.93429879
 H     23  18  14     1.088871893291   134.19244188    12.25587044
 H     23  18  14     1.089833473518    84.85857450   125.45241208
 H     24  19  17     1.080075460327   127.28078426   178.44613241
 H     26  18  14     1.083408048706   118.76995697   244.94906660
 H     30  14  13     1.082703098730   127.99711412   279.66882698
 H     31  29  14     1.079759695488   125.22293469   180.92530585
 H     33  32  30     1.083188810873   121.01964473   180.74284758
 H     34  33  32     1.082494341787   122.70821597   180.59516895
 H     35  34  33     1.092652735319   105.73575241    97.19771933
 H     35  34  33     1.089462711615    84.05943581   206.43036958
 H     35  34  33     1.089268102902   133.08365142   318.50306270
 H     36  31  29     1.079439669458   126.61599965   178.98859863
 H     38  30  73     1.083742127999   118.77264435   359.90091293
 H     42   2   1     1.082178358682   119.31790784   319.07121374
 H     43  41  15     1.080281907652   126.36969097   182.06329380
 H     45  44  42     1.083277434455   121.10105945   179.58025624
 H     46  45  44     1.082194529648   122.72144639   179.46906377
 H     47  42   2     1.091546151109   106.65128841   315.16475048
 H     47  42   2     1.088818625851   132.46019523    94.52397119
 H     47  42   2     1.089531091801    83.63838232   206.04504406
 H     48  43  41     1.080402239909   127.23657387   181.62955349
 H     50  42   2     1.083186502870   118.77001737    94.71359229

---------------------------
INTERNAL COORDINATES (A.U.)
---------------------------
 C      0   0   0     0.000000000000     0.00000000     0.00000000
 C      1   0   0    10.595831940166     0.00000000     0.00000000
 C      1   2   0     4.560723558041    45.47872980     0.00000000
 C      3   1   2     2.652122743397    87.90572758   233.59653493
 C      4   3   1     2.608296507237   120.16237101     0.12460471
 C      5   4   3     4.626128699725   152.52403029     1.66625246
 C      2   1   3     2.585360837309    15.25750707    19.20914710
 C      7   2   1     2.710026725231   108.05010202   227.33656603
 C      2   1   3     2.710100516721   118.25500385   327.62213555
 C      1   2   3     2.611109212061    34.91871199    44.87338117
 N      1   2   3     2.554624580957   115.52790714   296.94755114
 N      9   2   1     2.600503484979   106.58526707    11.77529643
 N     12   9   2     5.527566200405   168.53581413   171.12065651
 N     13  12   9     5.583221047236    91.55032014    11.12112580
 N     14  13  12     5.528150518591    88.43092389   359.84326247
 C      8   7   2     2.654668413270   127.24786865   181.11170171
 C     13  12   9     2.582376967257    81.72106996   188.00453233
 C     14  13  12    10.882574804710    80.56209567   166.76250791
 C     17  13  12     2.757130505230   111.08861209   183.82872609
 C     18  14  13     4.558465206823    27.27532823    36.33507194
 C     20  18  14     2.650705180609    87.95206320   148.94598259
 C     21  20  18     2.611803198586   120.14573887   359.70382047
 C     18  14  13     4.623235745386   144.15733107    82.80075377
 C     19  17  13     2.557953565794   106.29293361   359.75308708
 C     13  12   9     2.582903091751   172.21332906    33.46711076
 C     18  14  13     2.609636529225    15.08449437   309.23336894
 N     22  21  20     2.556370638369   120.73759875     0.27865223
 C     25  13  17     2.666210041769   125.60330303   182.37774668
 C     14  13  12     2.601476916169    80.24689249   177.85461986
 C     14  13  12    10.892550769017   164.51507311   312.20821879
 C     29  14  13     2.712892575415   106.58649366   178.76395472
 C     30  14  13     4.560507835333    27.10625047    82.12560436
 C     32  30  14     2.652673401891    87.90059683   149.76154742
 C     33  32  30     2.609133588376   120.14881443   359.74174632
 C     34  33  32     4.627519515267   152.49203239     2.45173620
 C     31  29  14     2.585449236669   108.16950133     0.70383075
 C     14  13  12     2.600716325456   169.26375223   353.09862627
 C     30  14  13     2.609536633043    14.68948582   353.70041132
 N     34  33  32     2.556154803934   120.85575621     0.19603406
 C     37  14  29     2.654530526499   126.01551127   180.90772073
 C     15  14  13     2.582293994346    81.61824056   183.09049352
 C      2   1   3     8.029564866989   154.55998034   138.50771725
 C     41  15  14     2.758391104639   111.05201287   175.08990246
 C     42   2   1     4.559821839776    41.78584867   164.38824499
 C     44  42   2     2.652129475853    87.95153797   233.97558675
 C     45  44  42     2.611027836043   120.11137308     0.19721020
 C     42   2   1     4.629866436820   135.97209175    74.70309409
 C     43  41  15     2.559561325344   106.26758155     0.30894352
 C     15  14  13     2.584127074516   171.87382904   332.35056460
 C     42   2   1     2.611386828803    32.59078432   213.24352418
 C      9   2   1     2.655043698059   126.98745415   192.77963396
 N     42   2   1     2.556355970587   113.57249190   102.43968329
 H      1   2   3     2.046658028912   115.79982560   155.48116117
 H      2   1   3     2.040730117440   115.40374424   159.24562521
 H      4   3   1     2.047244206951   121.06087707   179.55657548
 H      5   4   3     2.045417953412   122.83985326   179.42173947
 H      6   5   4     2.065278743656   104.44910867   100.04334893
 H      6   5   4     2.059087080280    84.69661352   209.52229352
 H      6   5   4     2.058844264634   133.88504222   322.38639748
 H      7   2   1     2.040541119952   126.66122480    47.57497982
 H     10   1   2     2.048618276087   118.78070869    89.59863195
 H     12   9   2     1.920524309565   125.29023241   180.00180175
 H     14  13  12     1.917952867083    44.97226959   359.42596618
 H     18  14  13     2.046330847636   128.03556573   234.20482432
 H     19  17  13     2.042592906181   126.41830519   178.11313280
 H     21  20  18     2.047649722989   121.05669627   180.67006309
 H     22  21  20     2.045596898814   122.73097286   180.59748951
 H     23  18  14     2.063779938267   103.92715769   234.93429879
 H     23  18  14     2.057669673245   134.19244188    12.25587044
 H     23  18  14     2.059486796529    84.85857450   125.45241208
 H     24  19  17     2.041046823986   127.28078426   178.44613241
 H     26  18  14     2.047344503340   118.76995697   244.94906660
 H     30  14  13     2.046012340948   127.99711412   279.66882698
 H     31  29  14     2.040450114918   125.22293469   180.92530585
 H     33  32  30     2.046930203877   121.01964473   180.74284758
 H     34  33  32     2.045617847496   122.70821597   180.59516895
 H     35  34  33     2.064814429233   105.73575241    97.19771933
 H     35  34  33     2.058786158072    84.05943581   206.43036958
 H     35  34  33     2.058418400901   133.08365142   318.50306270
 H     36  31  29     2.039845353366   126.61599965   178.98859863
 H     38  30  73     2.047975821711   118.77264435   359.90091293
 H     42   2   1     2.045020725966   119.31790784   319.07121374
 H     43  41  15     2.041436952892   126.36969097   182.06329380
 H     45  44  42     2.047097678177   121.10105945   179.58025624
 H     46  45  44     2.045051284662   122.72144639   179.46906377
 H     47  42   2     2.062723288131   106.65128841   315.16475048
 H     47  42   2     2.057569012371   132.46019523    94.52397119
 H     47  42   2     2.058915377895    83.63838232   206.04504406
 H     48  43  41     2.041664347903   127.23657387   181.62955349
 H     50  42   2     2.046925842384   118.77001737    94.71359229

---------------------
BASIS SET INFORMATION
---------------------
There are 3 groups of distinct atoms

 Group   1 Type C   : 17s4p1d contracted to 3s2p1d pattern {881/31/1}
 Group   2 Type N   : 17s4p1d contracted to 3s2p1d pattern {881/31/1}
 Group   3 Type H   : 4s1p contracted to 2s1p pattern {31/1}

Atom   0C    basis set group =>   1
Atom   1N    basis set group =>   2
Atom   2C    basis set group =>   1
Atom   3N    basis set group =>   2
Atom   4C    basis set group =>   1
Atom   5N    basis set group =>   2
Atom   6C    basis set group =>   1
Atom   7N    basis set group =>   2
Atom   8C    basis set group =>   1
Atom   9N    basis set group =>   2
Atom  10C    basis set group =>   1
Atom  11N    basis set group =>   2
Atom  12C    basis set group =>   1
Atom  13N    basis set group =>   2
Atom  14C    basis set group =>   1
Atom  15N    basis set group =>   2
Atom  16C    basis set group =>   1
Atom  17C    basis set group =>   1
Atom  18C    basis set group =>   1
Atom  19C    basis set group =>   1
Atom  20C    basis set group =>   1
Atom  21C    basis set group =>   1
Atom  22C    basis set group =>   1
Atom  23C    basis set group =>   1
Atom  24C    basis set group =>   1
Atom  25C    basis set group =>   1
Atom  26C    basis set group =>   1
Atom  27C    basis set group =>   1
Atom  28C    basis set group =>   1
Atom  29C    basis set group =>   1
Atom  30C    basis set group =>   1
Atom  31C    basis set group =>   1
Atom  32C    basis set group =>   1
Atom  33C    basis set group =>   1
Atom  34C    basis set group =>   1
Atom  35C    basis set group =>   1
Atom  36C    basis set group =>   1
Atom  37C    basis set group =>   1
Atom  38C    basis set group =>   1
Atom  39C    basis set group =>   1
Atom  40C    basis set group =>   1
Atom  41C    basis set group =>   1
Atom  42C    basis set group =>   1
Atom  43C    basis set group =>   1
Atom  44C    basis set group =>   1
Atom  45C    basis set group =>   1
Atom  46C    basis set group =>   1
Atom  47C    basis set group =>   1
Atom  48C    basis set group =>   1
Atom  49C    basis set group =>   1
Atom  50C    basis set group =>   1
Atom  51C    basis set group =>   1
Atom  52H    basis set group =>   3
Atom  53H    basis set group =>   3
Atom  54H    basis set group =>   3
Atom  55H    basis set group =>   3
Atom  56H    basis set group =>   3
Atom  57H    basis set group =>   3
Atom  58H    basis set group =>   3
Atom  59H    basis set group =>   3
Atom  60H    basis set group =>   3
Atom  61H    basis set group =>   3
Atom  62H    basis set group =>   3
Atom  63H    basis set group =>   3
Atom  64H    basis set group =>   3
Atom  65H    basis set group =>   3
Atom  66H    basis set group =>   3
Atom  67H    basis set group =>   3
Atom  68H    basis set group =>   3
Atom  69H    basis set group =>   3
Atom  70H    basis set group =>   3
Atom  71H    basis set group =>   3
Atom  72H    basis set group =>   3
Atom  73H    basis set group =>   3
Atom  74H    basis set group =>   3
Atom  75H    basis set group =>   3
Atom  76H    basis set group =>   3
Atom  77H    basis set group =>   3
Atom  78H    basis set group =>   3
Atom  79H    basis set group =>   3
Atom  80H    basis set group =>   3
Atom  81H    basis set group =>   3
Atom  82H    basis set group =>   3
Atom  83H    basis set group =>   3
Atom  84H    basis set group =>   3
Atom  85H    basis set group =>   3
Atom  86H    basis set group =>   3
Atom  87H    basis set group =>   3
Atom  88H    basis set group =>   3
Atom  89H    basis set group =>   3


           ************************************************************
           *        Program running with 8 parallel MPI-processes     *
           *              working on a common directory               *
           ************************************************************
------------------------------------------------------------------------------
                           ORCA GTO INTEGRAL CALCULATION
------------------------------------------------------------------------------
------------------------------------------------------------------------------
                   ___                                                        
                  /   \      - P O W E R E D   B Y -                         
                 /     \                                                     
                 |  |  |   _    _      __       _____    __    __             
                 |  |  |  | |  | |    /  \     |  _  \  |  |  /  |          
                  \  \/   | |  | |   /    \    | | | |  |  | /  /          
                 / \  \   | |__| |  /  /\  \   | |_| |  |  |/  /          
                |  |  |   |  __  | /  /__\  \  |    /   |      \           
                |  |  |   | |  | | |   __   |  |    \   |  |\   \          
                \     /   | |  | | |  |  |  |  | |\  \  |  | \   \       
                 \___/    |_|  |_| |__|  |__|  |_| \__\ |__|  \__/        
                                                                              
                      - O R C A' S   B I G   F R I E N D -                    
                                      &                                       
                       - I N T E G R A L  F E E D E R -                       
                                                                              
 v1 FN, 2020, v2 2021                                                         
------------------------------------------------------------------------------


Reading SHARK input file /scratch/chu_02/allen/tmpyp4_amber_gaff2/conf1/conf1/Conf294.orca.SHARKINP.tmp ... ok
----------------------
SHARK INTEGRAL PACKAGE
----------------------

Number of atoms                             ...     90
Number of basis functions                   ...   1230
Number of shells                            ...    738
Maximum angular momentum                    ...      2
Integral batch strategy                     ... SHARK/LIBINT Hybrid
RI-J (if used) integral strategy            ... SPLIT-RIJ (Revised 2003 algorithm where possible)
Printlevel                                  ...      1
Contraction scheme used                     ... PARTIAL GENERAL contraction
Coulomb Range Separation                    ... NOT USED
Exchange Range Separation                   ... NOT USED
Finite Nucleus Model                        ... NOT USED
Auxiliary Coulomb fitting basis             ... NOT available
Auxiliary J/K fitting basis                 ... NOT available
Auxiliary Correlation fitting basis         ... NOT available
Auxiliary 'external' fitting basis          ... NOT available
Integral threshold                          ...     2.500000e-11
Primitive cut-off                           ...     2.500000e-12
Primitive pair pre-selection threshold      ...     2.500000e-12

Calculating pre-screening integrals         ... done (  0.1 sec) Dimension = 738
Calculating pre-screening integrals (ORCA)  ... done (  0.3 sec) Dimension = 426
Organizing shell pair data                  ... done (  0.5 sec)
Shell pair information
Total number of shell pairs                 ...    272691
Shell pairs after pre-screening             ...     71587
Total number of primitive shell pairs       ...    422091
Primitive shell pairs kept                  ...     92348
          la=0 lb=0:  29409 shell pairs
          la=1 lb=0:  25957 shell pairs
          la=1 lb=1:   4689 shell pairs
          la=2 lb=0:   7878 shell pairs
          la=2 lb=1:   3123 shell pairs
          la=2 lb=2:    531 shell pairs

Calculating one electron integrals          ... done (  0.2 sec)
Calculating Nuclear repulsion               ... done (  0.0 sec) ENN=   6223.424196023760 Eh

SHARK setup successfully completed in   1.6 seconds

Maximum memory used throughout the entire GTOINT-calculation: 98.9 MB


           ************************************************************
           *        Program running with 8 parallel MPI-processes     *
           *              working on a common directory               *
           ************************************************************
-------------------------------------------------------------------------------
                                 ORCA SCF
-------------------------------------------------------------------------------

------------
SCF SETTINGS
------------
Hamiltonian:
 Ab initio Hamiltonian  Method          .... Hartree-Fock(GTOs)


General Settings:
 Integral files         IntName         .... /scratch/chu_02/allen/tmpyp4_amber_gaff2/conf1/conf1/Conf294.orca
 Hartree-Fock type      HFTyp           .... RHF
 Total Charge           Charge          ....    0
 Multiplicity           Mult            ....    1
 Number of Electrons    NEL             ....  358
 Basis Dimension        Dim             ....  918
 Nuclear Repulsion      ENuc            ....   6223.4241960238 Eh

Convergence Acceleration:
 DIIS                   CNVDIIS         .... on
   Start iteration      DIISMaxIt       ....    12
   Startup error        DIISStart       ....  0.200000
   # of expansion vecs  DIISMaxEq       ....     5
   Bias factor          DIISBfac        ....   1.050
   Max. coefficient     DIISMaxC        ....  10.000
 Trust-Rad. Augm. Hess. CNVTRAH         .... auto
   Auto Start mean grad. ratio tolernc. ....  1.125000
   Auto Start start iteration           ....    20
   Auto Start num. interpolation iter.  ....    10
   Max. Number of Micro iterations      ....    16
   Max. Number of Macro iterations      .... Maxiter - #DIIS iter
   Number of Davidson start vectors     ....     2
   Converg. threshold I  (grad. norm)   ....   1.000e-05
   Converg. threshold II (energy diff.) ....   1.000e-08
   Grad. Scal. Fac. for Micro threshold ....   0.100
   Minimum threshold for Micro iter.    ....   0.010
   NR start threshold (gradient norm)   ....   0.001
   Initial trust radius                 ....   0.400
   Minimum AH scaling param. (alpha)    ....   1.000
   Maximum AH scaling param. (alpha)    .... 1000.000
   Orbital update algorithm             .... Taylor
   White noise on init. David. guess    .... on
   Maximum white noise                  ....   0.010
   Quad. conv. algorithm                .... NR
 SOSCF                  CNVSOSCF        .... on
   Start iteration      SOSCFMaxIt      ....   150
   Startup grad/error   SOSCFStart      ....  0.003300
 Level Shifting         CNVShift        .... on
   Level shift para.    LevelShift      ....    0.2500
   Turn off err/grad.   ShiftErr        ....    0.0010
 Zerner damping         CNVZerner       .... off
 Static damping         CNVDamp         .... on
   Fraction old density DampFac         ....    0.7000
   Max. Damping (<1)    DampMax         ....    0.9800
   Min. Damping (>=0)   DampMin         ....    0.0000
   Turn off err/grad.   DampErr         ....    0.1000
 Fernandez-Rico         CNVRico         .... off

SCF Procedure:
 Maximum # iterations   MaxIter         ....   125
 SCF integral mode      SCFMode         .... Direct
   Integral package                     .... SHARK and LIBINT hybrid scheme
 Reset frequency        DirectResetFreq ....    20
 Integral Threshold     Thresh          ....  2.500e-11 Eh
 Primitive CutOff       TCut            ....  2.500e-12 Eh

Convergence Tolerance:
 Convergence Check Mode ConvCheckMode   .... Total+1el-Energy
 Convergence forced     ConvForced      .... 1
 Energy Change          TolE            ....  1.000e-08 Eh
 1-El. energy change                    ....  1.000e-05 Eh
 Orbital Gradient       TolG            ....  1.000e-05
 Orbital Rotation angle TolX            ....  1.000e-05
 DIIS Error             TolErr          ....  5.000e-07


Diagonalization of the overlap matrix:
Smallest eigenvalue                        ... 2.259e-04
Time for diagonalization                   ...    0.204 sec
Threshold for overlap eigenvalues          ... 1.000e-08
Number of eigenvalues below threshold      ... 0
Time for construction of square roots      ...    0.120 sec
Total time needed                          ...    0.329 sec

Time for model grid setup =    1.266 sec

------------------------------
INITIAL GUESS: MODEL POTENTIAL
------------------------------
Loading Hartree-Fock densities                     ... done
Calculating cut-offs                               ... done
Initializing the effective Hamiltonian             ... done
Setting up the integral package (SHARK)            ... done
Starting the Coulomb interaction                   ... done (   1.4 sec)
Reading the grid                                   ... done
Mapping shells                                     ... done
Starting the XC term evaluation                    ... done (   0.3 sec)
Transforming the Hamiltonian                       ... done (   0.1 sec)
Diagonalizing the Hamiltonian                      ... done (   0.2 sec)
Back transforming the eigenvectors                 ... done (   0.0 sec)
Now organizing SCF variables                       ... done
                      ------------------
                      INITIAL GUESS DONE (   3.4 sec)
                      ------------------
--------------
SCF ITERATIONS
--------------
ITER       Energy         Delta-E        Max-DP      RMS-DP      [F,P]     Damp
               ***  Starting incremental Fock matrix formation  ***
  0  -2121.6617884482   0.000000000000 0.06916603  0.00121013  0.2336706 0.7000
  1  -2122.3293673663  -0.667578918143 0.05251083  0.00098098  0.1445237 0.7000
                               ***Turning on DIIS***
  2  -2122.7440808524  -0.414713486114 0.11646670  0.00222024  0.0803458 0.0000
  3  -2117.6944661706   5.049614681862 0.03086687  0.00068537  0.0443924 0.0000
  4  -2123.4056347654  -5.711168594817 0.00883338  0.00022919  0.0069926 0.0000
  5  -2123.5884517098  -0.182816944400 0.00508477  0.00013623  0.0049397 0.0000
  6  -2123.5706273694   0.017824340361 0.00319889  0.00008959  0.0019750 0.0000
  7  -2123.6761416453  -0.105514275896 0.00271060  0.00007201  0.0014888 0.0000
  8  -2123.6993218692  -0.023180223898 0.00262954  0.00006932  0.0013757 0.0000
  9  -2123.6611006317   0.038221237566 0.00213446  0.00004815  0.0010751 0.0000
 10  -2123.6791380927  -0.018037461079 0.00460592  0.00009865  0.0008118 0.0000
                      *** Initiating the SOSCF procedure ***
                           *** Shutting down DIIS ***
                      *** Re-Reading the Fockian *** 
                      *** Removing any level shift *** 
ITER      Energy       Delta-E        Grad      Rot      Max-DP    RMS-DP
 11  -2123.54664908   0.1324890168  0.000345  0.000345  0.000281  0.000007
               *** Restarting incremental Fock matrix formation ***
 12  -2123.62019908  -0.0735500015  0.001011  0.006946  0.001106  0.000029
 13  -2123.62027428  -0.0000752069  0.001079  0.026636  0.003740  0.000090
 14  -2123.62036074  -0.0000864516  0.000434  0.002820  0.000392  0.000012
 15  -2123.62037249  -0.0000117569  0.000203  0.002771  0.000347  0.000010
 16  -2123.62037650  -0.0000040121  0.000141  0.003195  0.000524  0.000012
 17  -2123.62038023  -0.0000037230  0.000158  0.004703  0.000539  0.000014
 18  -2123.62038313  -0.0000029017  0.000089  0.005516  0.000604  0.000017
 19  -2123.62038599  -0.0000028570  0.000123  0.004122  0.000447  0.000012
 20  -2123.62038756  -0.0000015776  0.000069  0.001461  0.000209  0.000005
 21  -2123.62038803  -0.0000004628  0.000041  0.000597  0.000133  0.000003
 22  -2123.62038825  -0.0000002198  0.000036  0.000332  0.000093  0.000001
 23  -2123.62038838  -0.0000001352  0.000023  0.000374  0.000113  0.000002
 24  -2123.62038845  -0.0000000728  0.000009  0.000262  0.000036  0.000001
 25  -2123.62038848  -0.0000000233  0.000009  0.000237  0.000041  0.000001
 26  -2123.62038850  -0.0000000181  0.000006  0.000161  0.000021  0.000001
 27  -2123.62038850  -0.0000000032  0.000004  0.000198  0.000026  0.000001
 28  -2123.62038851  -0.0000000056  0.000003  0.000165  0.000019  0.000000
                  ***Gradient check signals convergence***
              ***Rediagonalizing the Fockian in SOSCF/NRSCF***

               *****************************************************
               *                     SUCCESS                       *
               *           SCF CONVERGED AFTER  29 CYCLES          *
               *****************************************************


----------------
TOTAL SCF ENERGY
----------------

Total Energy       :        -2123.62038851 Eh          -57786.64859 eV

Components:
Nuclear Repulsion  :         6223.42419602 Eh          169347.98186 eV
Electronic Energy  :        -8347.04458453 Eh         -227134.63045 eV
One Electron Energy:       -15288.17278776 Eh         -416012.33121 eV
Two Electron Energy:         6941.12820322 Eh          188877.70077 eV

Virial components:
Potential Energy   :        -4245.60257593 Eh         -115528.71946 eV
Kinetic Energy     :         2121.98218742 Eh           57742.07087 eV
Virial Ratio       :            2.00077201


---------------
SCF CONVERGENCE
---------------

  Last Energy change         ...   -4.5384e-09  Tolerance :   1.0000e-08
  Last MAX-Density change    ...    1.1107e-05  Tolerance :   1.0000e-07
  Last RMS-Density change    ...    2.5717e-07  Tolerance :   5.0000e-09
  Last Orbital Gradient      ...    2.2921e-06  Tolerance :   1.0000e-05
  Last Orbital Rotation      ...    6.6132e-05  Tolerance :   1.0000e-05

             **** THE GBW FILE WAS UPDATED (/scratch/chu_02/allen/tmpyp4_amber_gaff2/conf1/conf1/Conf294.orca.gbw) ****
             **** DENSITY /scratch/chu_02/allen/tmpyp4_amber_gaff2/conf1/conf1/Conf294.orca.scfp WAS UPDATED ****
             **** ENERGY FILE WAS UPDATED (/scratch/chu_02/allen/tmpyp4_amber_gaff2/conf1/conf1/Conf294.orca.en.tmp) ****
             **** THE GBW FILE WAS UPDATED (/scratch/chu_02/allen/tmpyp4_amber_gaff2/conf1/conf1/Conf294.orca.gbw) ****
             **** DENSITY /scratch/chu_02/allen/tmpyp4_amber_gaff2/conf1/conf1/Conf294.orca.scfp WAS UPDATED ****
----------------
ORBITAL ENERGIES
----------------

  NO   OCC          E(Eh)            E(eV) 
   0   2.0000     -15.646973      -425.7758 
   1   2.0000     -15.639165      -425.5633 
   2   2.0000     -15.627694      -425.2512 
   3   2.0000     -15.621174      -425.0738 
   4   2.0000     -15.516122      -422.2151 
   5   2.0000     -15.514848      -422.1805 
   6   2.0000     -15.445525      -420.2941 
   7   2.0000     -15.439079      -420.1187 
   8   2.0000     -11.307369      -307.6892 
   9   2.0000     -11.302500      -307.5567 
  10   2.0000     -11.301072      -307.5178 
  11   2.0000     -11.299986      -307.4882 
  12   2.0000     -11.295333      -307.3616 
  13   2.0000     -11.295215      -307.3584 
  14   2.0000     -11.293189      -307.3033 
  15   2.0000     -11.291411      -307.2549 
  16   2.0000     -11.285620      -307.0973 
  17   2.0000     -11.283398      -307.0369 
  18   2.0000     -11.280833      -306.9671 
  19   2.0000     -11.277844      -306.8857 
  20   2.0000     -11.249550      -306.1158 
  21   2.0000     -11.242472      -305.9232 
  22   2.0000     -11.239337      -305.8379 
  23   2.0000     -11.239090      -305.8312 
  24   2.0000     -11.234169      -305.6973 
  25   2.0000     -11.233449      -305.6777 
  26   2.0000     -11.231863      -305.6345 
  27   2.0000     -11.226355      -305.4846 
  28   2.0000     -11.225488      -305.4610 
  29   2.0000     -11.225383      -305.4582 
  30   2.0000     -11.221211      -305.3447 
  31   2.0000     -11.220371      -305.3218 
  32   2.0000     -11.197626      -304.7029 
  33   2.0000     -11.197415      -304.6971 
  34   2.0000     -11.194778      -304.6254 
  35   2.0000     -11.194643      -304.6217 
  36   2.0000     -11.176133      -304.1180 
  37   2.0000     -11.176106      -304.1173 
  38   2.0000     -11.172674      -304.0239 
  39   2.0000     -11.170373      -303.9613 
  40   2.0000     -11.165101      -303.8178 
  41   2.0000     -11.163579      -303.7764 
  42   2.0000     -11.163548      -303.7756 
  43   2.0000     -11.162034      -303.7344 
  44   2.0000     -11.158064      -303.6264 
  45   2.0000     -11.155051      -303.5444 
  46   2.0000     -11.154750      -303.5362 
  47   2.0000     -11.151393      -303.4448 
  48   2.0000     -11.147982      -303.3520 
  49   2.0000     -11.146274      -303.3055 
  50   2.0000     -11.134857      -302.9949 
  51   2.0000     -11.133300      -302.9525 
  52   2.0000      -1.332052       -36.2470 
  53   2.0000      -1.325619       -36.0719 
  54   2.0000      -1.315536       -35.7976 
  55   2.0000      -1.310248       -35.6537 
  56   2.0000      -1.215373       -33.0720 
  57   2.0000      -1.212282       -32.9879 
  58   2.0000      -1.163416       -31.6582 
  59   2.0000      -1.152455       -31.3599 
  60   2.0000      -1.119214       -30.4554 
  61   2.0000      -1.112704       -30.2782 
  62   2.0000      -1.105144       -30.0725 
  63   2.0000      -1.099177       -29.9101 
  64   2.0000      -1.055438       -28.7199 
  65   2.0000      -1.049382       -28.5551 
  66   2.0000      -1.040038       -28.3009 
  67   2.0000      -1.035251       -28.1706 
  68   2.0000      -1.026734       -27.9389 
  69   2.0000      -1.011505       -27.5244 
  70   2.0000      -1.006948       -27.4004 
  71   2.0000      -0.997192       -27.1350 
  72   2.0000      -0.979452       -26.6522 
  73   2.0000      -0.976350       -26.5678 
  74   2.0000      -0.968577       -26.3563 
  75   2.0000      -0.961593       -26.1663 
  76   2.0000      -0.950464       -25.8634 
  77   2.0000      -0.945852       -25.7379 
  78   2.0000      -0.935010       -25.4429 
  79   2.0000      -0.922702       -25.1080 
  80   2.0000      -0.891580       -24.2611 
  81   2.0000      -0.881432       -23.9850 
  82   2.0000      -0.875975       -23.8365 
  83   2.0000      -0.867344       -23.6016 
  84   2.0000      -0.862733       -23.4762 
  85   2.0000      -0.856944       -23.3186 
  86   2.0000      -0.851827       -23.1794 
  87   2.0000      -0.840009       -22.8578 
  88   2.0000      -0.822065       -22.3695 
  89   2.0000      -0.797408       -21.6986 
  90   2.0000      -0.797111       -21.6905 
  91   2.0000      -0.739234       -20.1156 
  92   2.0000      -0.729066       -19.8389 
  93   2.0000      -0.727217       -19.7886 
  94   2.0000      -0.723027       -19.6746 
  95   2.0000      -0.716915       -19.5083 
  96   2.0000      -0.710532       -19.3346 
  97   2.0000      -0.709564       -19.3082 
  98   2.0000      -0.697556       -18.9815 
  99   2.0000      -0.690573       -18.7915 
 100   2.0000      -0.685973       -18.6663 
 101   2.0000      -0.682209       -18.5638 
 102   2.0000      -0.679989       -18.5034 
 103   2.0000      -0.671999       -18.2860 
 104   2.0000      -0.669080       -18.2066 
 105   2.0000      -0.666305       -18.1311 
 106   2.0000      -0.662418       -18.0253 
 107   2.0000      -0.659611       -17.9489 
 108   2.0000      -0.659152       -17.9364 
 109   2.0000      -0.655923       -17.8486 
 110   2.0000      -0.650845       -17.7104 
 111   2.0000      -0.648858       -17.6563 
 112   2.0000      -0.647509       -17.6196 
 113   2.0000      -0.643535       -17.5115 
 114   2.0000      -0.633473       -17.2377 
 115   2.0000      -0.623151       -16.9568 
 116   2.0000      -0.621677       -16.9167 
 117   2.0000      -0.616285       -16.7700 
 118   2.0000      -0.611246       -16.6328 
 119   2.0000      -0.608011       -16.5448 
 120   2.0000      -0.607133       -16.5209 
 121   2.0000      -0.603217       -16.4144 
 122   2.0000      -0.600769       -16.3478 
 123   2.0000      -0.594139       -16.1673 
 124   2.0000      -0.589730       -16.0474 
 125   2.0000      -0.584904       -15.9160 
 126   2.0000      -0.577434       -15.7128 
 127   2.0000      -0.573410       -15.6033 
 128   2.0000      -0.568577       -15.4718 
 129   2.0000      -0.564322       -15.3560 
 130   2.0000      -0.553277       -15.0554 
 131   2.0000      -0.544772       -14.8240 
 132   2.0000      -0.540775       -14.7152 
 133   2.0000      -0.534533       -14.5454 
 134   2.0000      -0.532085       -14.4788 
 135   2.0000      -0.528617       -14.3844 
 136   2.0000      -0.523868       -14.2552 
 137   2.0000      -0.523399       -14.2424 
 138   2.0000      -0.519880       -14.1467 
 139   2.0000      -0.515010       -14.0141 
 140   2.0000      -0.509374       -13.8608 
 141   2.0000      -0.504855       -13.7378 
 142   2.0000      -0.503759       -13.7080 
 143   2.0000      -0.501326       -13.6418 
 144   2.0000      -0.497831       -13.5467 
 145   2.0000      -0.496560       -13.5121 
 146   2.0000      -0.495657       -13.4875 
 147   2.0000      -0.493769       -13.4361 
 148   2.0000      -0.489502       -13.3200 
 149   2.0000      -0.467191       -12.7129 
 150   2.0000      -0.459892       -12.5143 
 151   2.0000      -0.451571       -12.2879 
 152   2.0000      -0.446613       -12.1529 
 153   2.0000      -0.444887       -12.1060 
 154   2.0000      -0.443303       -12.0629 
 155   2.0000      -0.439557       -11.9610 
 156   2.0000      -0.434323       -11.8185 
 157   2.0000      -0.428058       -11.6480 
 158   2.0000      -0.389306       -10.5936 
 159   2.0000      -0.384333       -10.4582 
 160   2.0000      -0.374475       -10.1900 
 161   2.0000      -0.371977       -10.1220 
 162   2.0000      -0.364919        -9.9300 
 163   2.0000      -0.359706        -9.7881 
 164   2.0000      -0.351736        -9.5712 
 165   2.0000      -0.347846        -9.4654 
 166   2.0000      -0.337826        -9.1927 
 167   2.0000      -0.333338        -9.0706 
 168   2.0000      -0.325159        -8.8480 
 169   2.0000      -0.300059        -8.1650 
 170   2.0000      -0.292595        -7.9619 
 171   2.0000      -0.289710        -7.8834 
 172   2.0000      -0.286676        -7.8008 
 173   2.0000      -0.256322        -6.9749 
 174   2.0000      -0.244345        -6.6490 
 175   2.0000      -0.186761        -5.0820 
 176   2.0000      -0.176427        -4.8008 
 177   2.0000      -0.063672        -1.7326 
 178   2.0000      -0.053185        -1.4472 
 179   0.0000       0.032381         0.8811 
 180   0.0000       0.069271         1.8850 
 181   0.0000       0.092563         2.5188 
 182   0.0000       0.095447         2.5972 
 183   0.0000       0.129118         3.5135 
 184   0.0000       0.134326         3.6552 
 185   0.0000       0.142846         3.8870 
 186   0.0000       0.147305         4.0084 
 187   0.0000       0.158507         4.3132 
 188   0.0000       0.161481         4.3941 
 189   0.0000       0.162503         4.4219 
 190   0.0000       0.168610         4.5881 
 191   0.0000       0.171833         4.6758 
 192   0.0000       0.198007         5.3881 
 193   0.0000       0.201586         5.4854 
 194   0.0000       0.202064         5.4985 
 195   0.0000       0.206240         5.6121 
 196   0.0000       0.208620         5.6769 
 197   0.0000       0.211908         5.7663 
 198   0.0000       0.212285         5.7766 
 199   0.0000       0.215297         5.8585 
 200   0.0000       0.233400         6.3511 
 201   0.0000       0.237105         6.4520 
 202   0.0000       0.242776         6.6063 
 203   0.0000       0.245848         6.6899 
 204   0.0000       0.250112         6.8059 
 205   0.0000       0.254116         6.9148 
 206   0.0000       0.257580         7.0091 
 207   0.0000       0.261068         7.1040 
 208   0.0000       0.262675         7.1477 
 209   0.0000       0.265315         7.2196 
 210   0.0000       0.266418         7.2496 
 211   0.0000       0.269396         7.3306 
 212   0.0000       0.271993         7.4013 
 213   0.0000       0.274582         7.4718 
 214   0.0000       0.278788         7.5862 
 215   0.0000       0.280572         7.6348 
 216   0.0000       0.281542         7.6611 
 217   0.0000       0.282839         7.6964 
 218   0.0000       0.285211         7.7610 
 219   0.0000       0.287627         7.8267 
 220   0.0000       0.289542         7.8788 
 221   0.0000       0.291630         7.9356 
 222   0.0000       0.293783         7.9943 
 223   0.0000       0.294742         8.0203 
 224   0.0000       0.300183         8.1684 
 225   0.0000       0.302075         8.2199 
 226   0.0000       0.302660         8.2358 
 227   0.0000       0.303492         8.2584 
 228   0.0000       0.304929         8.2975 
 229   0.0000       0.307883         8.3779 
 230   0.0000       0.314496         8.5579 
 231   0.0000       0.317967         8.6523 
 232   0.0000       0.325835         8.8664 
 233   0.0000       0.328138         8.9291 
 234   0.0000       0.330691         8.9985 
 235   0.0000       0.337837         9.1930 
 236   0.0000       0.357389         9.7250 
 237   0.0000       0.383090        10.4244 
 238   0.0000       0.397815        10.8251 
 239   0.0000       0.398463        10.8427 
 240   0.0000       0.404811        11.0155 
 241   0.0000       0.411108        11.1868 
 242   0.0000       0.420139        11.4326 
 243   0.0000       0.424240        11.5441 
 244   0.0000       0.430716        11.7204 
 245   0.0000       0.432486        11.7685 
 246   0.0000       0.434019        11.8103 
 247   0.0000       0.437853        11.9146 
 248   0.0000       0.440178        11.9779 
 249   0.0000       0.444897        12.1063 
 250   0.0000       0.445890        12.1333 
 251   0.0000       0.449554        12.2330 
 252   0.0000       0.454671        12.3722 
 253   0.0000       0.465221        12.6593 
 254   0.0000       0.469948        12.7879 
 255   0.0000       0.476836        12.9754 
 256   0.0000       0.480483        13.0746 
 257   0.0000       0.487644        13.2695 
 258   0.0000       0.489267        13.3136 
 259   0.0000       0.497023        13.5247 
 260   0.0000       0.499703        13.5976 
 261   0.0000       0.503482        13.7005 
 262   0.0000       0.506516        13.7830 
 263   0.0000       0.510807        13.8998 
 264   0.0000       0.512344        13.9416 
 265   0.0000       0.514856        14.0099 
 266   0.0000       0.516288        14.0489 
 267   0.0000       0.521820        14.1994 
 268   0.0000       0.535055        14.5596 
 269   0.0000       0.539748        14.6873 
 270   0.0000       0.542071        14.7505 
 271   0.0000       0.544956        14.8290 
 272   0.0000       0.549437        14.9509 
 273   0.0000       0.551135        14.9971 
 274   0.0000       0.561974        15.2921 
 275   0.0000       0.562997        15.3199 
 276   0.0000       0.573604        15.6086 
 277   0.0000       0.576601        15.6901 
 278   0.0000       0.581932        15.8352 
 279   0.0000       0.584753        15.9119 
 280   0.0000       0.587678        15.9915 
 281   0.0000       0.590552        16.0697 
 282   0.0000       0.593296        16.1444 
 283   0.0000       0.596558        16.2332 
 284   0.0000       0.599805        16.3215 
 285   0.0000       0.602901        16.4058 
 286   0.0000       0.606167        16.4947 
 287   0.0000       0.606909        16.5148 
 288   0.0000       0.610433        16.6107 
 289   0.0000       0.615393        16.7457 
 290   0.0000       0.616622        16.7791 
 291   0.0000       0.628008        17.0890 
 292   0.0000       0.636944        17.3321 
 293   0.0000       0.640846        17.4383 
 294   0.0000       0.645768        17.5722 
 295   0.0000       0.647783        17.6271 
 296   0.0000       0.654491        17.8096 
 297   0.0000       0.658764        17.9259 
 298   0.0000       0.663488        18.0544 
 299   0.0000       0.665273        18.1030 
 300   0.0000       0.671414        18.2701 
 301   0.0000       0.673307        18.3216 
 302   0.0000       0.674545        18.3553 
 303   0.0000       0.681715        18.5504 
 304   0.0000       0.683105        18.5882 
 305   0.0000       0.686490        18.6803 
 306   0.0000       0.688367        18.7314 
 307   0.0000       0.694929        18.9100 
 308   0.0000       0.697749        18.9867 
 309   0.0000       0.700581        19.0638 
 310   0.0000       0.702825        19.1248 
 311   0.0000       0.706185        19.2163 
 312   0.0000       0.708044        19.2669 
 313   0.0000       0.709627        19.3099 
 314   0.0000       0.710440        19.3320 
 315   0.0000       0.713847        19.4248 
 316   0.0000       0.714793        19.4505 
 317   0.0000       0.718835        19.5605 
 318   0.0000       0.720186        19.5973 
 319   0.0000       0.722359        19.6564 
 320   0.0000       0.725505        19.7420 
 321   0.0000       0.728250        19.8167 
 322   0.0000       0.729793        19.8587 
 323   0.0000       0.733819        19.9682 
 324   0.0000       0.738118        20.0852 
 325   0.0000       0.740001        20.1364 
 326   0.0000       0.742662        20.2088 
 327   0.0000       0.744814        20.2674 
 328   0.0000       0.746640        20.3171 
 329   0.0000       0.748886        20.3782 
 330   0.0000       0.753221        20.4962 
 331   0.0000       0.755962        20.5708 
 332   0.0000       0.756720        20.5914 
 333   0.0000       0.757173        20.6037 
 334   0.0000       0.766851        20.8671 
 335   0.0000       0.767446        20.8833 
 336   0.0000       0.773579        21.0501 
 337   0.0000       0.779705        21.2169 
 338   0.0000       0.781262        21.2592 
 339   0.0000       0.788227        21.4488 
 340   0.0000       0.790967        21.5233 
 341   0.0000       0.794258        21.6129 
 342   0.0000       0.796592        21.6764 
 343   0.0000       0.798975        21.7412 
 344   0.0000       0.803554        21.8658 
 345   0.0000       0.807545        21.9744 
 346   0.0000       0.810540        22.0559 
 347   0.0000       0.810795        22.0629 
 348   0.0000       0.814910        22.1748 
 349   0.0000       0.815182        22.1822 
 350   0.0000       0.818502        22.2726 
 351   0.0000       0.821941        22.3662 
 352   0.0000       0.825615        22.4661 
 353   0.0000       0.828483        22.5442 
 354   0.0000       0.829735        22.5782 
 355   0.0000       0.831485        22.6259 
 356   0.0000       0.832844        22.6628 
 357   0.0000       0.835107        22.7244 
 358   0.0000       0.836097        22.7514 
 359   0.0000       0.838528        22.8175 
 360   0.0000       0.839567        22.8458 
 361   0.0000       0.842914        22.9369 
 362   0.0000       0.844040        22.9675 
 363   0.0000       0.846119        23.0241 
 364   0.0000       0.847724        23.0677 
 365   0.0000       0.849802        23.1243 
 366   0.0000       0.851043        23.1580 
 367   0.0000       0.853286        23.2191 
 368   0.0000       0.856877        23.3168 
 369   0.0000       0.859242        23.3812 
 370   0.0000       0.862617        23.4730 
 371   0.0000       0.865477        23.5508 
 372   0.0000       0.871595        23.7173 
 373   0.0000       0.877652        23.8821 
 374   0.0000       0.880108        23.9490 
 375   0.0000       0.882613        24.0171 
 376   0.0000       0.885464        24.0947 
 377   0.0000       0.891621        24.2622 
 378   0.0000       0.895283        24.3619 
 379   0.0000       0.896371        24.3915 
 380   0.0000       0.897930        24.4339 
 381   0.0000       0.900897        24.5147 
 382   0.0000       0.903861        24.5953 
 383   0.0000       0.904351        24.6086 
 384   0.0000       0.907511        24.6946 
 385   0.0000       0.907587        24.6967 
 386   0.0000       0.909082        24.7374 
 387   0.0000       0.910468        24.7751 
 388   0.0000       0.912588        24.8328 
 389   0.0000       0.914585        24.8871 
 390   0.0000       0.916561        24.9409 
 391   0.0000       0.920048        25.0358 
 392   0.0000       0.923399        25.1270 
 393   0.0000       0.924559        25.1585 
 394   0.0000       0.927264        25.2321 
 395   0.0000       0.931291        25.3417 
 396   0.0000       0.931954        25.3597 
 397   0.0000       0.935550        25.4576 
 398   0.0000       0.937893        25.5214 
 399   0.0000       0.940921        25.6038 
 400   0.0000       0.944132        25.6911 
 401   0.0000       0.945857        25.7381 
 402   0.0000       0.947485        25.7824 
 403   0.0000       0.950203        25.8563 
 404   0.0000       0.954790        25.9812 
 405   0.0000       0.955981        26.0136 
 406   0.0000       0.956313        26.0226 
 407   0.0000       0.963392        26.2152 
 408   0.0000       0.967687        26.3321 
 409   0.0000       0.969731        26.3877 
 410   0.0000       0.975028        26.5319 
 411   0.0000       0.977091        26.5880 
 412   0.0000       0.983323        26.7576 
 413   0.0000       0.986429        26.8421 
 414   0.0000       0.990482        26.9524 
 415   0.0000       0.992629        27.0108 
 416   0.0000       1.000017        27.2118 
 417   0.0000       1.002649        27.2835 
 418   0.0000       1.010475        27.4964 
 419   0.0000       1.012916        27.5628 
 420   0.0000       1.023875        27.8610 
 421   0.0000       1.028465        27.9860 
 422   0.0000       1.029852        28.0237 
 423   0.0000       1.038604        28.2619 
 424   0.0000       1.044174        28.4134 
 425   0.0000       1.046866        28.4867 
 426   0.0000       1.053946        28.6793 
 427   0.0000       1.062805        28.9204 
 428   0.0000       1.066512        29.0213 
 429   0.0000       1.076595        29.2956 
 430   0.0000       1.078033        29.3348 
 431   0.0000       1.082835        29.4655 
 432   0.0000       1.084369        29.5072 
 433   0.0000       1.091166        29.6921 
 434   0.0000       1.092629        29.7320 
 435   0.0000       1.105813        30.0907 
 436   0.0000       1.109593        30.1936 
 437   0.0000       1.111374        30.2420 
 438   0.0000       1.115012        30.3410 
 439   0.0000       1.117469        30.4079 
 440   0.0000       1.120809        30.4988 
 441   0.0000       1.125248        30.6195 
 442   0.0000       1.128857        30.7178 
 443   0.0000       1.133247        30.8372 
 444   0.0000       1.134324        30.8665 
 445   0.0000       1.135395        30.8957 
 446   0.0000       1.137589        30.9554 
 447   0.0000       1.139428        31.0054 
 448   0.0000       1.142876        31.0992 
 449   0.0000       1.147722        31.2311 
 450   0.0000       1.151045        31.3215 
 451   0.0000       1.152298        31.3556 
 452   0.0000       1.154817        31.4242 
 453   0.0000       1.160295        31.5732 
 454   0.0000       1.161207        31.5981 
 455   0.0000       1.164007        31.6742 
 456   0.0000       1.176360        32.0104 
 457   0.0000       1.179251        32.0891 
 458   0.0000       1.180758        32.1301 
 459   0.0000       1.183587        32.2070 
 460   0.0000       1.184995        32.2454 
 461   0.0000       1.192825        32.4584 
 462   0.0000       1.197234        32.5784 
 463   0.0000       1.207715        32.8636 
 464   0.0000       1.208849        32.8945 
 465   0.0000       1.210294        32.9338 
 466   0.0000       1.215838        33.0846 
 467   0.0000       1.219120        33.1740 
 468   0.0000       1.223433        33.2913 
 469   0.0000       1.227873        33.4121 
 470   0.0000       1.233547        33.5665 
 471   0.0000       1.235389        33.6166 
 472   0.0000       1.238170        33.6923 
 473   0.0000       1.240574        33.7577 
 474   0.0000       1.242949        33.8224 
 475   0.0000       1.249072        33.9890 
 476   0.0000       1.250429        34.0259 
 477   0.0000       1.253252        34.1027 
 478   0.0000       1.255613        34.1670 
 479   0.0000       1.256181        34.1824 
 480   0.0000       1.260673        34.3047 
 481   0.0000       1.261900        34.3381 
 482   0.0000       1.265887        34.4465 
 483   0.0000       1.270574        34.5741 
 484   0.0000       1.274108        34.6702 
 485   0.0000       1.278132        34.7797 
 486   0.0000       1.281722        34.8774 
 487   0.0000       1.286838        35.0166 
 488   0.0000       1.288206        35.0539 
 489   0.0000       1.290952        35.1286 
 490   0.0000       1.292611        35.1737 
 491   0.0000       1.296743        35.2862 
 492   0.0000       1.300799        35.3965 
 493   0.0000       1.307831        35.5879 
 494   0.0000       1.309108        35.6226 
 495   0.0000       1.316886        35.8343 
 496   0.0000       1.318102        35.8674 
 497   0.0000       1.324878        36.0518 
 498   0.0000       1.328927        36.1619 
 499   0.0000       1.330097        36.1938 
 500   0.0000       1.335136        36.3309 
 501   0.0000       1.336932        36.3798 
 502   0.0000       1.341062        36.4921 
 503   0.0000       1.344535        36.5867 
 504   0.0000       1.347599        36.6700 
 505   0.0000       1.350928        36.7606 
 506   0.0000       1.353335        36.8261 
[...]
 76 H s       :     0.894587  s :     0.894587
      pz      :     0.021902  p :     0.079469
      px      :     0.043152
      py      :     0.014415
 77 H s       :     0.891251  s :     0.891251
      pz      :     0.047460  p :     0.078704
      px      :     0.015008
      py      :     0.016236
 78 H s       :     0.891665  s :     0.891665
      pz      :     0.025617  p :     0.078631
      px      :     0.020606
      py      :     0.032408
 79 H s       :     0.908333  s :     0.908333
      pz      :     0.022244  p :     0.086884
      px      :     0.021816
      py      :     0.042824
 80 H s       :     0.873784  s :     0.873784
      pz      :     0.038630  p :     0.083799
      px      :     0.029775
      py      :     0.015394
 81 H s       :     0.887339  s :     0.887339
      pz      :     0.037718  p :     0.083695
      px      :     0.016104
      py      :     0.029874
 82 H s       :     0.914897  s :     0.914897
      pz      :     0.022234  p :     0.086944
      px      :     0.031211
      py      :     0.033498
 83 H s       :     0.872238  s :     0.872238
      pz      :     0.039248  p :     0.083919
      px      :     0.015244
      py      :     0.029428
 84 H s       :     0.887338  s :     0.887338
      pz      :     0.035810  p :     0.083910
      px      :     0.031748
      py      :     0.016351
 85 H s       :     0.894118  s :     0.894118
      pz      :     0.022507  p :     0.079701
      px      :     0.014097
      py      :     0.043097
 86 H s       :     0.890552  s :     0.890552
      pz      :     0.024724  p :     0.078886
      px      :     0.033009
      py      :     0.021154
 87 H s       :     0.890270  s :     0.890270
      pz      :     0.047940  p :     0.078690
      px      :     0.015622
      py      :     0.015128
 88 H s       :     0.915555  s :     0.915555
      pz      :     0.022265  p :     0.086920
      px      :     0.042318
      py      :     0.022338
 89 H s       :     0.872641  s :     0.872641
      pz      :     0.037908  p :     0.083975
      px      :     0.030522
      py      :     0.015544


                      *****************************
                      * MAYER POPULATION ANALYSIS *
                      *****************************

  NA   - Mulliken gross atomic population
  ZA   - Total nuclear charge
  QA   - Mulliken gross atomic charge
  VA   - Mayer's total valence
  BVA  - Mayer's bonded valence
  FA   - Mayer's free valence

  ATOM       NA         ZA         QA         VA         BVA        FA
  0 C      5.7884     6.0000     0.2116     3.8236     3.8236     0.0000
  1 N      7.4356     7.0000    -0.4356     3.3937     3.3937     0.0000
  2 C      6.0665     6.0000    -0.0665     3.9173     3.9173     0.0000
  3 N      7.3398     7.0000    -0.3398     3.4382     3.4382     0.0000
  4 C      6.0838     6.0000    -0.0838     3.9821     3.9821    -0.0000
  5 N      7.5632     7.0000    -0.5632     3.0807     3.0807    -0.0000
  6 C      6.0459     6.0000    -0.0459     3.9874     3.9874    -0.0000
  7 N      7.3378     7.0000    -0.3378     3.4422     3.4422     0.0000
  8 C      5.7905     6.0000     0.2095     3.8211     3.8211     0.0000
  9 N      7.5636     7.0000    -0.5636     3.0866     3.0866    -0.0000
 10 C      5.8878     6.0000     0.1122     3.8866     3.8866     0.0000
 11 N      7.4374     7.0000    -0.4374     3.3846     3.3846     0.0000
 12 C      6.0639     6.0000    -0.0639     3.9148     3.9148     0.0000
 13 N      7.4427     7.0000    -0.4427     3.3633     3.3633    -0.0000
 14 C      5.7692     6.0000     0.2308     3.8004     3.8004     0.0000
 15 N      7.4406     7.0000    -0.4406     3.3715     3.3715    -0.0000
 16 C      5.7592     6.0000     0.2408     3.7949     3.7949     0.0000
 17 C      6.0506     6.0000    -0.0506     3.9855     3.9855    -0.0000
 18 C      6.1887     6.0000    -0.1887     3.7283     3.7283    -0.0000
 19 C      5.7742     6.0000     0.2258     3.8881     3.8881    -0.0000
 20 C      5.7958     6.0000     0.2042     3.8237     3.8237     0.0000
 21 C      6.0710     6.0000    -0.0710     3.9019     3.9019     0.0000
 22 C      6.0855     6.0000    -0.0855     3.9842     3.9842    -0.0000
 23 C      6.0535     6.0000    -0.0535     3.9890     3.9890     0.0000
 24 C      5.7895     6.0000     0.2105     3.8248     3.8248     0.0000
 25 C      5.8863     6.0000     0.1137     3.8898     3.8898     0.0000
 26 C      6.0726     6.0000    -0.0726     3.9031     3.9031     0.0000
 27 C      5.7707     6.0000     0.2293     3.8899     3.8899    -0.0000
 28 C      6.0485     6.0000    -0.0485     3.9881     3.9881    -0.0000
 29 C      6.1885     6.0000    -0.1885     3.7315     3.7315    -0.0000
 30 C      5.7682     6.0000     0.2318     3.7896     3.7896    -0.0000
 31 C      5.7951     6.0000     0.2049     3.8291     3.8291    -0.0000
 32 C      6.0653     6.0000    -0.0653     3.9162     3.9162    -0.0000
 33 C      6.0871     6.0000    -0.0871     3.9854     3.9854    -0.0000
 34 C      6.0499     6.0000    -0.0499     3.9940     3.9940    -0.0000
 35 C      5.8028     6.0000     0.1972     3.8265     3.8265     0.0000
 36 C      5.8841     6.0000     0.1159     3.8965     3.8965     0.0000
 37 C      6.0674     6.0000    -0.0674     3.9171     3.9171     0.0000
 38 C      5.7609     6.0000     0.2391     3.7985     3.7985     0.0000
 39 C      6.0626     6.0000    -0.0626     3.9933     3.9933    -0.0000
 40 C      6.1928     6.0000    -0.1928     3.7443     3.7443    -0.0000
 41 C      5.7810     6.0000     0.2190     3.8792     3.8792    -0.0000
 42 C      5.7939     6.0000     0.2061     3.8285     3.8285    -0.0000
 43 C      6.0746     6.0000    -0.0746     3.9041     3.9041     0.0000
 44 C      6.0886     6.0000    -0.0886     3.9851     3.9851    -0.0000
 45 C      6.0490     6.0000    -0.0490     3.9930     3.9930     0.0000
 46 C      5.8005     6.0000     0.1995     3.8241     3.8241     0.0000
 47 C      5.8843     6.0000     0.1157     3.8941     3.8941    -0.0000
 48 C      6.0773     6.0000    -0.0773     3.9017     3.9017     0.0000
 49 C      5.7789     6.0000     0.2211     3.8794     3.8794     0.0000
 50 C      6.0561     6.0000    -0.0561     3.9899     3.9899     0.0000
 51 C      6.1899     6.0000    -0.1899     3.7374     3.7374    -0.0000
 52 H      0.9392     1.0000     0.0608     0.9846     0.9846     0.0000
 53 H      1.0129     1.0000    -0.0129     0.9999     0.9999    -0.0000
 54 H      0.9517     1.0000     0.0483     1.0088     1.0088     0.0000
 55 H      0.9410     1.0000     0.0590     0.9852     0.9852     0.0000
 56 H      0.9350     1.0000     0.0650     0.9720     0.9720    -0.0000
 57 H      0.9389     1.0000     0.0611     0.9835     0.9835    -0.0000
 58 H      0.9397     1.0000     0.0603     0.9865     0.9865    -0.0000
 59 H      1.0181     1.0000    -0.0181     0.9985     0.9985     0.0000
 60 H      0.9501     1.0000     0.0499     1.0065     1.0065    -0.0000
 61 H      0.8263     1.0000     0.1737     1.0428     1.0428     0.0000
 62 H      0.8283     1.0000     0.1717     1.0434     1.0434     0.0000
 63 H      0.9433     1.0000     0.0567     0.9856     0.9856     0.0000
 64 H      1.0243     1.0000    -0.0243     0.9940     0.9940     0.0000
 65 H      0.9544     1.0000     0.0456     1.0089     1.0089    -0.0000
 66 H      0.9422     1.0000     0.0578     0.9848     0.9848     0.0000
 67 H      0.9374     1.0000     0.0626     0.9719     0.9719     0.0000
 68 H      0.9419     1.0000     0.0581     0.9867     0.9867     0.0000
 69 H      0.9405     1.0000     0.0595     0.9830     0.9830     0.0000
 70 H      1.0225     1.0000    -0.0225     0.9949     0.9949     0.0000
 71 H      0.9513     1.0000     0.0487     1.0069     1.0069     0.0000
 72 H      0.9486     1.0000     0.0514     0.9853     0.9853     0.0000
 73 H      1.0159     1.0000    -0.0159     0.9980     0.9980    -0.0000
 74 H      0.9579     1.0000     0.0421     1.0098     1.0098    -0.0000
 75 H      0.9497     1.0000     0.0503     0.9859     0.9859     0.0000
 76 H      0.9422     1.0000     0.0578     0.9713     0.9713    -0.0000
 77 H      0.9451     1.0000     0.0549     0.9849     0.9849     0.0000
 78 H      0.9459     1.0000     0.0541     0.9844     0.9844     0.0000
 79 H      1.0131     1.0000    -0.0131     1.0001     1.0001     0.0000
 80 H      0.9577     1.0000     0.0423     1.0069     1.0069     0.0000
 81 H      0.9467     1.0000     0.0533     0.9854     0.9854    -0.0000
 82 H      1.0236     1.0000    -0.0236     0.9944     0.9944    -0.0000
 83 H      0.9566     1.0000     0.0434     1.0097     1.0097     0.0000
 84 H      0.9474     1.0000     0.0526     0.9857     0.9857     0.0000
 85 H      0.9418     1.0000     0.0582     0.9715     0.9715    -0.0000
 86 H      0.9434     1.0000     0.0566     0.9840     0.9840    -0.0000
 87 H      0.9435     1.0000     0.0565     0.9855     0.9855    -0.0000
 88 H      1.0247     1.0000    -0.0247     0.9935     0.9935     0.0000
 89 H      0.9558     1.0000     0.0442     1.0065     1.0065     0.0000

  Mayer bond orders larger than 0.100000
B(  0-C ,  1-N ) :   1.1340 B(  0-C , 17-C ) :   1.6119 B(  0-C , 52-H ) :   0.9687 
B(  1-N ,  8-C ) :   1.1288 B(  1-N , 10-C ) :   0.9546 B(  2-C , 12-C ) :   1.5453 
B(  2-C , 16-C ) :   1.3114 B(  2-C , 53-H ) :   0.9782 B(  3-N , 14-C ) :   1.1955 
B(  3-N , 16-C ) :   1.1971 B(  3-N , 61-H ) :   0.8978 B(  4-C ,  6-C ) :   1.2869 
B(  4-C , 17-C ) :   1.2848 B(  4-C , 18-C ) :   1.2152 B(  5-N , 19-C ) :   1.4048 
B(  5-N , 27-C ) :   1.4171 B(  6-C ,  8-C ) :   1.6122 B(  6-C , 54-H ) :   0.9710 
B(  7-N , 30-C ) :   1.1904 B(  7-N , 38-C ) :   1.2053 B(  7-N , 62-H ) :   0.8990 
B(  8-C , 55-H ) :   0.9700 B(  9-N , 41-C ) :   1.4140 B(  9-N , 49-C ) :   1.4114 
B( 10-C , 56-H ) :   0.9762 B( 10-C , 57-H ) :   0.9821 B( 10-C , 58-H ) :   0.9828 
B( 11-N , 20-C ) :   1.1203 B( 11-N , 24-C ) :   1.1288 B( 11-N , 25-C ) :   0.9579 
B( 12-C , 14-C ) :   1.3128 B( 12-C , 59-H ) :   0.9779 B( 13-N , 31-C ) :   1.1134 
B( 13-N , 35-C ) :   1.1049 B( 13-N , 36-C ) :   0.9655 B( 14-C , 18-C ) :   1.2146 
B( 15-N , 42-C ) :   1.1194 B( 15-N , 46-C ) :   1.1101 B( 15-N , 47-C ) :   0.9626 
B( 16-C , 51-C ) :   1.2119 B( 17-C , 60-H ) :   0.9715 B( 18-C , 19-C ) :   1.2366 
B( 19-C , 21-C ) :   1.2026 B( 20-C , 28-C ) :   1.6219 B( 20-C , 63-H ) :   0.9703 
B( 21-C , 26-C ) :   1.6486 B( 21-C , 64-H ) :   0.9739 B( 22-C , 23-C ) :   1.2784 
B( 22-C , 28-C ) :   1.2783 B( 22-C , 29-C ) :   1.2339 B( 23-C , 24-C ) :   1.6198 
B( 23-C , 65-H ) :   0.9712 B( 24-C , 66-H ) :   0.9690 B( 25-C , 67-H ) :   0.9762 
B( 25-C , 68-H ) :   0.9830 B( 25-C , 69-H ) :   0.9820 B( 26-C , 27-C ) :   1.2024 
B( 26-C , 70-H ) :   0.9737 B( 27-C , 29-C ) :   1.2298 B( 28-C , 71-H ) :   0.9712 
B( 29-C , 30-C ) :   1.2051 B( 30-C , 32-C ) :   1.3199 B( 31-C , 39-C ) :   1.6438 
B( 31-C , 72-H ) :   0.9700 B( 32-C , 37-C ) :   1.5383 B( 32-C , 73-H ) :   0.9775 
B( 33-C , 34-C ) :   1.2647 B( 33-C , 39-C ) :   1.2572 B( 33-C , 40-C ) :   1.2745 
B( 34-C , 35-C ) :   1.6412 B( 34-C , 74-H ) :   0.9706 B( 35-C , 75-H ) :   0.9700 
B( 36-C , 76-H ) :   0.9761 B( 36-C , 77-H ) :   0.9822 B( 36-C , 78-H ) :   0.9833 
B( 37-C , 38-C ) :   1.3201 B( 37-C , 79-H ) :   0.9782 B( 38-C , 40-C ) :   1.2020 
B( 39-C , 80-H ) :   0.9717 B( 40-C , 41-C ) :   1.2052 B( 41-C , 43-C ) :   1.2259 
B( 42-C , 50-C ) :   1.6341 B( 42-C , 81-H ) :   0.9695 B( 43-C , 48-C ) :   1.6254 
B( 43-C , 82-H ) :   0.9741 B( 44-C , 45-C ) :   1.2740 B( 44-C , 50-C ) :   1.2641 
B( 44-C , 51-C ) :   1.2532 B( 45-C , 46-C ) :   1.6313 B( 45-C , 83-H ) :   0.9709 
B( 46-C , 84-H ) :   0.9704 B( 47-C , 85-H ) :   0.9761 B( 47-C , 86-H ) :   0.9827 
B( 47-C , 87-H ) :   0.9827 B( 48-C , 49-C ) :   1.2240 B( 48-C , 88-H ) :   0.9734 
B( 49-C , 51-C ) :   1.2101 B( 50-C , 89-H ) :   0.9715 

-------
TIMINGS
-------

Total SCF time: 0 days 0 hours 42 min 24 sec 

Total time                  ....    2544.933 sec
Sum of individual times     ....    2542.070 sec  ( 99.9%)

Fock matrix formation       ....    2524.390 sec  ( 99.2%)
Diagonalization             ....       4.710 sec  (  0.2%)
Density matrix formation    ....       0.527 sec  (  0.0%)
Population analysis         ....       0.323 sec  (  0.0%)
Initial guess               ....       2.119 sec  (  0.1%)
Orbital Transformation      ....       0.000 sec  (  0.0%)
Orbital Orthonormalization  ....       0.000 sec  (  0.0%)
DIIS solution               ....       2.510 sec  (  0.1%)
SOSCF solution              ....       6.226 sec  (  0.2%)

Maximum memory used throughout the entire SCF-calculation: 304.1 MB


           ************************************************************
           *        Program running with 8 parallel MPI-processes     *
           *              working on a common directory               *
           ************************************************************

------------------------------------------------------------------------------
                                ORCA  MP2 
------------------------------------------------------------------------------

Freezing NCore=104 chemical core electrons

----------
MP2 ENERGY (disk based algorithm)
----------

Dimension of the basis                    ...  918
Memory devoted to MP2                     ... 7000 MB   
Data format for buffers                   ... DOUBLE
Compression type for matrix containers    ... UNCOMPRESSED

-------------------------------
PARTIAL EXCHANGE TRANSFORMATION
-------------------------------

Transformation type                        ... one-operator
Generation of integrals (i,mue|j,nue)      ... ON
Generation of integrals (mue,kappa|nue,tau)... OFF
Generation of integrals (i,mue|a,nue)      ... OFF
Dimension of the basis                     ...  918
Number of internal MOs                     ...  127 (  52- 178)
Pair cutoff                                ... 2.500e-12 Eh
Number of AO pairs in the trafo            ... 421821
Total Number of distinct AO pairs          ... 421821
Memory devoted for trafo                   ... 7000.0 MB 
Max. Number of MO pairs treated together   ... 1088      
Number Format for Storage                  ... Double (8 Byte)
Integral package used                      ... LIBINT

Starting integral evaluation:
    ... done with AO integral generation
Closing buffer AOK     (38.12 GB; CompressionRatio= 1.33)
Collecting buffer AOK 
Number of MO pairs included in the trafo   ... 8128
------------------------
SORTING OF (i,mue|j,nue)
------------------------

IBATCH = 1 of  1
Closing buffer KAO     (51.03 GB; CompressionRatio= 1.00)
Collecting buffer KAO 
N(AO-Batches) Done                         ... 173575270 
N(AO-Batches) Skipped                      ... 167208919 
N(IJ)-pairs Skipped                        ...         0 
TOTAL TIME for half transformation         ...  1379.254 sec
AO-integral generation                     ...   261.613 sec
Half transformation                        ...   505.125 sec
K-integral sorting                         ...   336.075 sec

Finished integral transformation - now doing MP2 part

OPERATOR COMBINATION   0   0: ij=( 52..178, 52..178)
Process 5:   Internal MO 132
Process 2:   Internal MO  84
Process 1:   Internal MO  69
Process 0:   Internal MO  54
Process 1:   Internal MO  72
Process 3:   Internal MO 102
Process 2:   Internal MO  87
Process 7:   Internal MO 165
Process 1:   Internal MO  75
Process 6:   Internal MO 150
Process 0:   Internal MO  57
Process 2:   Internal MO  90
Process 1:   Internal MO  78
Process 5:   Internal MO 135
Process 3:   Internal MO 105
Process 1:   Internal MO  81
Process 2:   Internal MO  93
Process 3:   Internal MO 108
Process 7:   Internal MO 168
Process 2:   Internal MO  96
Process 0:   Internal MO  60
Process 5:   Internal MO 138
Process 3:   Internal MO 111
Process 5:   Internal MO 141
Process 3:   Internal MO 114
Process 4:   Internal MO 117
Process 0:   Internal MO  63
Process 7:   Internal MO 171
Process 4:   Internal MO 120
Process 6:   Internal MO 153
Process 0:   Internal MO  66
Process 2:   Internal MO  99
Process 4:   Internal MO 123
Process 6:   Internal MO 156
Process 4:   Internal MO 126
Process 7:   Internal MO 174
Process 5:   Internal MO 144
Process 4:   Internal MO 129
Process 6:   Internal MO 159
Process 5:   Internal MO 147
Process 7:   Internal MO 177
Process 6:   Internal MO 162
-----------------------------------------------
 MP2 CORRELATION ENERGY   :     -7.289243353 Eh
-----------------------------------------------


-------
TIMINGS
-------
Total time                : 1702.715 sec
Integral trafo            : 1388.025 sec ( 81.5%)
K(i,j)                    :    8.020 sec (  0.5%)
T(i,j)                    :    0.098 sec (  0.0%)

---------------------------------------
MP2 TOTAL ENERGY:    -2130.909631862 Eh
---------------------------------------

Maximum memory used throughout the entire MP2-calculation: 6735.7 MB

-------------------------   --------------------
FINAL SINGLE POINT ENERGY     -2130.909631862237
-------------------------   --------------------


                            ***************************************
                            *     ORCA property calculations      *
                            ***************************************


  WARNING: The energy has been calculated at the MP2 level but the densities
           used in the property calculations are still SCF densities
           MP2 response densities have not been calculated 
           use %mp2 Density relaxed end
           or  %mp2 Density unrelaxed end

                                    ---------------------
                                    Active property flags
                                    ---------------------
   (+) Dipole Moment


------------------------------------------------------------------------------
                       ORCA ELECTRIC PROPERTIES CALCULATION
------------------------------------------------------------------------------

Dipole Moment Calculation                       ... on
Quadrupole Moment Calculation                   ... off
Polarizability Calculation                      ... off
GBWName                                         ... /scratch/chu_02/allen/tmpyp4_amber_gaff2/conf1/conf1/Conf294.orca.gbw
Electron density                                ... /scratch/chu_02/allen/tmpyp4_amber_gaff2/conf1/conf1/Conf294.orca.scfp
The origin for moment calculation is the CENTER OF MASS  = (-0.000593, -0.004455 -0.001074)

-------------
DIPOLE MOMENT
-------------
                                X             Y             Z
Electronic contribution:     -1.33260       0.54897      -0.05903
Nuclear contribution   :      0.03463       0.21148       0.07471
                        -----------------------------------------
Total Dipole Moment    :     -1.29797       0.76045       0.01568
                        -----------------------------------------
Magnitude (a.u.)       :      1.50441
Magnitude (Debye)      :      3.82392



--------------------
Rotational spectrum 
--------------------
 
Rotational constants in cm-1:     0.001499     0.001473     0.000762 
Rotational constants in MHz :    44.941213    44.144524    22.856140 

 Dipole components along the rotational axes: 
x,y,z [a.u.] :    -1.482238     0.256774     0.017355 
x,y,z [Debye]:    -3.767548     0.652668     0.044112 

 

Timings for individual modules:

Sum of individual times         ...     4259.763 sec (=  70.996 min)
GTO integral calculation        ...        2.839 sec (=   0.047 min)   0.1 %
SCF iterations                  ...     2552.741 sec (=  42.546 min)  59.9 %
MP2 module                      ...     1704.184 sec (=  28.403 min)  40.0 %
                             ****ORCA TERMINATED NORMALLY****
TOTAL RUN TIME: 0 days 1 hours 11 minutes 1 seconds 817 msec
# of primitive gaussian functions

