
                                 *****************
                                 * O   R   C   A *
                                 *****************

                                            #,                                       
                                            ###                                      
                                            ####                                     
                                            #####                                    
                                            ######                                   
                                           ########,                                 
                                     ,,################,,,,,                         
                               ,,#################################,,                 
                          ,,##########################################,,             
                       ,#########################################, ''#####,          
                    ,#############################################,,   '####,        
                  ,##################################################,,,,####,       
                ,###########''''           ''''###############################       
              ,#####''   ,,,,##########,,,,          '''####'''          '####       
            ,##' ,,,,###########################,,,                        '##       
           ' ,,###''''                  '''############,,,                           
         ,,##''                                '''############,,,,        ,,,,,,###''
      ,#''                                            '''#######################'''  
     '                                                          ''''####''''         
             ,#######,   #######,   ,#######,      ##                                
            ,#'     '#,  ##    ##  ,#'     '#,    #''#        ######   ,####,        
            ##       ##  ##   ,#'  ##            #'  '#       #        #'  '#        
            ##       ##  #######   ##           ,######,      #####,   #    #        
            '#,     ,#'  ##    ##  '#,     ,#' ,#      #,         ##   #,  ,#        
             '#######'   ##     ##  '#######'  #'      '#     #####' # '####'        



                  #######################################################
                  #                        -***-                        #
                  #          Department of theory and spectroscopy      #
                  #    Directorship and core code : Frank Neese         #
                  #        Max Planck Institute fuer Kohlenforschung    #
                  #                Kaiser Wilhelm Platz 1               #
                  #                 D-45470 Muelheim/Ruhr               #
                  #                      Germany                        #
                  #                                                     #
                  #                  All rights reserved                #
                  #                        -***-                        #
                  #######################################################


                         Program Version 5.0.4 -  RELEASE  -


 With contributions from (in alphabetic order):
   Daniel Aravena         : Magnetic Suceptibility
   Michael Atanasov       : Ab Initio Ligand Field Theory (pilot matlab implementation)
   Alexander A. Auer      : GIAO ZORA, VPT2 properties, NMR spectrum
   Ute Becker             : Parallelization
   Giovanni Bistoni       : ED, misc. LED, open-shell LED, HFLD
   Martin Brehm           : Molecular dynamics
   Dmytro Bykov           : SCF Hessian
   Vijay G. Chilkuri      : MRCI spin determinant printing, contributions to CSF-ICE
   Dipayan Datta          : RHF DLPNO-CCSD density
   Achintya Kumar Dutta   : EOM-CC, STEOM-CC
   Dmitry Ganyushin       : Spin-Orbit,Spin-Spin,Magnetic field MRCI
   Miquel Garcia          : C-PCM and meta-GGA Hessian, CC/C-PCM, Gaussian charge scheme
   Yang Guo               : DLPNO-NEVPT2, F12-NEVPT2, CIM, IAO-localization
   Andreas Hansen         : Spin unrestricted coupled pair/coupled cluster methods
   Benjamin Helmich-Paris : MC-RPA, TRAH-SCF, COSX integrals
   Lee Huntington         : MR-EOM, pCC
   Robert Izsak           : Overlap fitted RIJCOSX, COSX-SCS-MP3, EOM
   Marcus Kettner         : VPT2
   Christian Kollmar      : KDIIS, OOCD, Brueckner-CCSD(T), CCSD density, CASPT2, CASPT2-K
   Simone Kossmann        : Meta GGA functionals, TD-DFT gradient, OOMP2, MP2 Hessian
   Martin Krupicka        : Initial AUTO-CI
   Lucas Lang             : DCDCAS
   Marvin Lechner         : AUTO-CI (C++ implementation), FIC-MRCC
   Dagmar Lenk            : GEPOL surface, SMD
   Dimitrios Liakos       : Extrapolation schemes; Compound Job, initial MDCI parallelization
   Dimitrios Manganas     : Further ROCIS development; embedding schemes
   Dimitrios Pantazis     : SARC Basis sets
   Anastasios Papadopoulos: AUTO-CI, single reference methods and gradients
   Taras Petrenko         : DFT Hessian,TD-DFT gradient, ASA, ECA, R-Raman, ABS, FL, XAS/XES, NRVS
   Peter Pinski           : DLPNO-MP2, DLPNO-MP2 Gradient
   Christoph Reimann      : Effective Core Potentials
   Marius Retegan         : Local ZFS, SOC
   Christoph Riplinger    : Optimizer, TS searches, QM/MM, DLPNO-CCSD(T), (RO)-DLPNO pert. Triples
   Tobias Risthaus        : Range-separated hybrids, TD-DFT gradient, RPA, STAB
   Michael Roemelt        : Original ROCIS implementation
   Masaaki Saitow         : Open-shell DLPNO-CCSD energy and density
   Barbara Sandhoefer     : DKH picture change effects
   Avijit Sen             : IP-ROCIS
   Kantharuban Sivalingam : CASSCF convergence, NEVPT2, FIC-MRCI
   Bernardo de Souza      : ESD, SOC TD-DFT
   Georgi Stoychev        : AutoAux, RI-MP2 NMR, DLPNO-MP2 response
   Willem Van den Heuvel  : Paramagnetic NMR
   Boris Wezisla          : Elementary symmetry handling
   Frank Wennmohs         : Technical directorship


 We gratefully acknowledge several colleagues who have allowed us to
 interface, adapt or use parts of their codes:
   Stefan Grimme, W. Hujo, H. Kruse, P. Pracht,  : VdW corrections, initial TS optimization,
                  C. Bannwarth, S. Ehlert          DFT functionals, gCP, sTDA/sTD-DF
   Ed Valeev, F. Pavosevic, A. Kumar             : LibInt (2-el integral package), F12 methods
   Garnet Chan, S. Sharma, J. Yang, R. Olivares  : DMRG
   Ulf Ekstrom                                   : XCFun DFT Library
   Mihaly Kallay                                 : mrcc  (arbitrary order and MRCC methods)
   Jiri Pittner, Ondrej Demel                    : Mk-CCSD
   Frank Weinhold                                : gennbo (NPA and NBO analysis)
   Christopher J. Cramer and Donald G. Truhlar   : smd solvation model
   Lars Goerigk                                  : TD-DFT with DH, B97 family of functionals
   V. Asgeirsson, H. Jonsson                     : NEB implementation
   FAccTs GmbH                                   : IRC, NEB, NEB-TS, DLPNO-Multilevel, CI-OPT
                                                   MM, QMMM, 2- and 3-layer-ONIOM, Crystal-QMMM,
                                                   LR-CPCM, SF, NACMEs, symmetry and pop. for TD-DFT,
                                                   nearIR, NL-DFT gradient (VV10), updates on ESD,
                                                   ML-optimized integration grids
   S Lehtola, MJT Oliveira, MAL Marques          : LibXC Library
   Liviu Ungur et al                             : ANISO software


 Your calculation uses the libint2 library for the computation of 2-el integrals
 For citations please refer to: http://libint.valeyev.net

 Your ORCA version has been built with support for libXC version: 5.1.0
 For citations please refer to: https://tddft.org/programs/libxc/

 This ORCA versions uses:
   CBLAS   interface :  Fast vector & matrix operations
   LAPACKE interface :  Fast linear algebra routines
   SCALAPACK package :  Parallel linear algebra routines
   Shared memory     :  Shared parallel matrices
   BLAS/LAPACK       :  OpenBLAS 0.3.15  USE64BITINT DYNAMIC_ARCH NO_AFFINITY Sandybridge SINGLE_THREADED
        Core in use  :  Sandybridge
   Copyright (c) 2011-2014, The OpenBLAS Project


================================================================================

----- Orbital basis set information -----
Your calculation utilizes the basis: cc-pVDZ 
       H, B-Ne : Obtained from the ccRepo (grant-hill.group.shef.ac.uk/ccrepo) Feb. 2017
                 T. H. Dunning, Jr., J. Chem. Phys. 90, 1007 (1989)
            He : Obtained from the ccRepo (grant-hill.group.shef.ac.uk/ccrepo) Feb. 2017
                 D. E. Woon, T. H. Dunning, Jr., J. Chem. Phys. 100, 2975 (1994)
  Li-Be, Na-Mg : Obtained from the ccRepo (grant-hill.group.shef.ac.uk/ccrepo) Feb. 2017
                 B. P. Prascher, D. E. Woon, K. A. Peterson, T. H. Dunning, Jr., A. K. Wilson, Theor. Chem. Acc. 128, 69 (2011)
         Al-Ar : Obtained from the ccRepo (grant-hill.group.shef.ac.uk/ccrepo) Feb. 2017
                 D. E. Woon, T. H. Dunning, Jr., J. Chem. Phys. 98, 1358 (1993)
            Ca : Obtained from the Peterson Research Group Website (tyr0.chem.wsu.edu/~kipeters) Feb. 2017
                 J. Koput, K. A. Peterson, J. Phys. Chem. 106, 9595 (2002)
         Sc-Zn : Obtained from the ccRepo (grant-hill.group.shef.ac.uk/ccrepo) Feb. 2017
                 N. B. Balabanov, K. A. Peterson, J. Chem. Phys. 123, 064107 (2005)
                 N. B. Balabanov, K. A. Peterson, J. Chem. Phys. 125, 074110 (2006)
         Ga-Kr : Obtained from the ccRepo (grant-hill.group.shef.ac.uk/ccrepo) Feb. 2017
                 A. K. Wilson, D. E. Woon, K. A. Peterson, T. H. Dunning, Jr., J. Chem. Phys. 110, 7667 (1999)

================================================================================
                                        WARNINGS
                       Please study these warnings very carefully!
================================================================================


WARNING: No MP2 level density has been requested!
         To caclulate MP2 level properties use
         %mp2 Density relaxed end
         or
         %mp2 Density unrelaxed end

WARNING: Post HF methods need fully converged wavefunctions
  ===> : Setting SCFConvForced true
         You can overwrite this default with %scf ConvForced false 


INFO   : the flag for use of the SHARK integral package has been found!

================================================================================
                                       INPUT FILE
================================================================================
NAME = /scratch/allen/tmpyp4_amber_gaff2/2.Mdgx/conf11/conf11/Conf338.orca
|  1> ! PAL2
|  2> ! mp2 cc-pvdz TightSCF  NoKeepInts
|  3> 
|  4> %scf
|  5>   MaxCore 2000
|  6> end
|  7> %mp2
|  8>   MaxCore 2000
|  9> end
| 10> * xyz 0 1
| 11>    C       -3.11700         6.42800         0.57100
| 12>    C        1.47400         4.04100         0.05700
| 13>    C       -2.80200         4.09300         0.04900
| 14>    C       -4.12200         4.07400        -0.42800
| 15>    C       -4.88800         5.22200        -0.39200
| 16>    C       -5.22000         7.59800         0.09400
| 17>    C        0.13200         4.30700         0.06100
| 18>    C       -0.56900         3.05600         0.04700
| 19>    C        1.64900         2.61800         0.02300
| 20>    C       -2.31000         5.30700         0.55200
| 21>    N       -4.38600         6.37600         0.10500
| 22>    N        0.38800         2.06700         0.02500
| 23>    N       -2.01000         0.39500        -0.07500
| 24>    N       -0.38800        -2.07400        -0.02700
| 25>    N        2.01000        -0.40100         0.06500
| 26>    C       -1.96000         2.86100         0.02400
| 27>    C       -2.62300         1.61500        -0.01800
| 28>    C       -5.57300        -4.32900         1.06600
| 29>    C       -4.07300         1.47100         0.05600
| 30>    C       -4.10600        -2.75600        -0.02600
| 31>    C       -4.99500        -2.75700        -1.11100
| 32>    C       -6.13200        -3.54200        -1.07600
| 33>    C       -7.65100        -5.11300         0.04000
| 34>    C       -4.32400         0.14100         0.03700
| 35>    C       -3.02500        -0.52000        -0.04800
| 36>    C       -4.42200        -3.56600         1.07500
| 37>    N       -6.40700        -4.31300         0.00100
| 38>    C       -2.86700        -1.92200        -0.04000
| 39>    C       -1.65000        -2.62400        -0.02700
| 40>    C        3.56800        -6.14200        -1.04000
| 41>    C       -1.47600        -4.04900        -0.03400
| 42>    C        2.80300        -4.09900        -0.00800
| 43>    C        3.65700        -4.38400         1.06900
| 44>    C        4.42700        -5.53000         1.05900
| 45>    C        5.24500        -7.58800         0.01400
| 46>    C       -0.13400        -4.31500        -0.02200
| 47>    C        0.56800        -3.06400        -0.02700
| 48>    C        2.77500        -5.01200        -1.07400
| 49>    N        4.37600        -6.39100         0.01700
| 50>    C        1.95900        -2.86900        -0.00900
| 51>    C        2.62100        -1.62200         0.00900
| 52>    C        5.54300         4.33900        -1.13000
| 53>    C        4.07000        -1.47900        -0.09400
| 54>    C        4.10400         2.75100        -0.02100
| 55>    C        5.02700         2.72900         1.03600
| 56>    C        6.16600         3.50900         0.97800
| 57>    C        7.61900         5.15300        -0.11500
| 58>    C        4.32100        -0.14800        -0.09200
| 59>    C        3.02500         0.51400         0.01500
| 60>    C        4.38700         3.58200        -1.11500
| 61>    C        2.86600         1.91600         0.01300
| 62>    N        6.41300         4.29600        -0.09500
| 63>    H       -2.78400         7.38200         0.96100
| 64>    H        2.27400         4.76600         0.08100
| 65>    H       -4.55600         3.17000        -0.83700
| 66>    H       -5.90700         5.25800        -0.75600
| 67>    H       -5.11500         8.09100        -0.87500
| 68>    H       -6.25900         7.31400         0.26000
| 69>    H       -4.88200         8.26000         0.89000
| 70>    H       -0.33200         5.28200         0.06900
| 71>    H       -1.30300         5.38300         0.94700
| 72>    H        0.18200         1.07200         0.00500
| 73>    H       -0.18300        -1.08000        -0.02100
| 74>    H       -5.86400        -4.96200         1.89500
| 75>    H       -4.79400         2.27200         0.13900
| 76>    H       -4.80000        -2.16000        -1.99400
| 77>    H       -6.84100        -3.58200        -1.89300
| 78>    H       -8.42800        -4.53600         0.54600
| 79>    H       -7.95600        -5.33700        -0.98100
| 80>    H       -7.45600        -6.03700         0.58400
| 81>    H       -5.28700        -0.34400         0.10000
| 82>    H       -3.78000        -3.60100         1.94700
| 83>    H        3.58700        -6.86800        -1.84300
| 84>    H       -2.27600        -4.77400        -0.05000
| 85>    H        3.71400        -3.72400         1.92600
| 86>    H        5.09200        -5.79500         1.87100
| 87>    H        6.20500        -7.32900        -0.43900
| 88>    H        5.39300        -7.91700         1.04200
| 89>    H        4.75900        -8.37300        -0.56400
| 90>    H        0.32900        -5.29000        -0.00800
| 91>    H        2.14600        -4.84200        -1.94000
| 92>    H        5.80800         4.98600        -1.95600
| 93>    H        4.78800        -2.28100        -0.18500
| 94>    H        4.86000         2.11400         1.91200
| 95>    H        6.90100         3.53100         1.77200
| 96>    H        7.38300         6.10900         0.35600
| 97>    H        8.41400         4.65200         0.43500
| 98>    H        7.92100         5.31000        -1.15000
| 99>    H        5.28300         0.33600        -0.17900
|100>    H        3.72000         3.63200        -1.96700
|101> *
|102> 
|103>                          ****END OF INPUT****
================================================================================

                       ****************************
                       * Single Point Calculation *
                       ****************************

---------------------------------
CARTESIAN COORDINATES (ANGSTROEM)
---------------------------------
  C     -3.117000    6.428000    0.571000
  C      1.474000    4.041000    0.057000
  C     -2.802000    4.093000    0.049000
  C     -4.122000    4.074000   -0.428000
  C     -4.888000    5.222000   -0.392000
  C     -5.220000    7.598000    0.094000
  C      0.132000    4.307000    0.061000
  C     -0.569000    3.056000    0.047000
  C      1.649000    2.618000    0.023000
  C     -2.310000    5.307000    0.552000
  N     -4.386000    6.376000    0.105000
  N      0.388000    2.067000    0.025000
  N     -2.010000    0.395000   -0.075000
  N     -0.388000   -2.074000   -0.027000
  N      2.010000   -0.401000    0.065000
  C     -1.960000    2.861000    0.024000
  C     -2.623000    1.615000   -0.018000
  C     -5.573000   -4.329000    1.066000
  C     -4.073000    1.471000    0.056000
  C     -4.106000   -2.756000   -0.026000
  C     -4.995000   -2.757000   -1.111000
  C     -6.132000   -3.542000   -1.076000
  C     -7.651000   -5.113000    0.040000
  C     -4.324000    0.141000    0.037000
  C     -3.025000   -0.520000   -0.048000
  C     -4.422000   -3.566000    1.075000
  N     -6.407000   -4.313000    0.001000
  C     -2.867000   -1.922000   -0.040000
  C     -1.650000   -2.624000   -0.027000
  C      3.568000   -6.142000   -1.040000
  C     -1.476000   -4.049000   -0.034000
  C      2.803000   -4.099000   -0.008000
  C      3.657000   -4.384000    1.069000
  C      4.427000   -5.530000    1.059000
  C      5.245000   -7.588000    0.014000
  C     -0.134000   -4.315000   -0.022000
  C      0.568000   -3.064000   -0.027000
  C      2.775000   -5.012000   -1.074000
  N      4.376000   -6.391000    0.017000
  C      1.959000   -2.869000   -0.009000
  C      2.621000   -1.622000    0.009000
  C      5.543000    4.339000   -1.130000
  C      4.070000   -1.479000   -0.094000
  C      4.104000    2.751000   -0.021000
  C      5.027000    2.729000    1.036000
  C      6.166000    3.509000    0.978000
  C      7.619000    5.153000   -0.115000
  C      4.321000   -0.148000   -0.092000
  C      3.025000    0.514000    0.015000
  C      4.387000    3.582000   -1.115000
  C      2.866000    1.916000    0.013000
  N      6.413000    4.296000   -0.095000
  H     -2.784000    7.382000    0.961000
  H      2.274000    4.766000    0.081000
  H     -4.556000    3.170000   -0.837000
  H     -5.907000    5.258000   -0.756000
  H     -5.115000    8.091000   -0.875000
  H     -6.259000    7.314000    0.260000
  H     -4.882000    8.260000    0.890000
  H     -0.332000    5.282000    0.069000
  H     -1.303000    5.383000    0.947000
  H      0.182000    1.072000    0.005000
  H     -0.183000   -1.080000   -0.021000
  H     -5.864000   -4.962000    1.895000
  H     -4.794000    2.272000    0.139000
  H     -4.800000   -2.160000   -1.994000
  H     -6.841000   -3.582000   -1.893000
  H     -8.428000   -4.536000    0.546000
  H     -7.956000   -5.337000   -0.981000
  H     -7.456000   -6.037000    0.584000
  H     -5.287000   -0.344000    0.100000
  H     -3.780000   -3.601000    1.947000
  H      3.587000   -6.868000   -1.843000
  H     -2.276000   -4.774000   -0.050000
  H      3.714000   -3.724000    1.926000
  H      5.092000   -5.795000    1.871000
  H      6.205000   -7.329000   -0.439000
  H      5.393000   -7.917000    1.042000
  H      4.759000   -8.373000   -0.564000
  H      0.329000   -5.290000   -0.008000
  H      2.146000   -4.842000   -1.940000
  H      5.808000    4.986000   -1.956000
  H      4.788000   -2.281000   -0.185000
  H      4.860000    2.114000    1.912000
  H      6.901000    3.531000    1.772000
  H      7.383000    6.109000    0.356000
  H      8.414000    4.652000    0.435000
  H      7.921000    5.310000   -1.150000
  H      5.283000    0.336000   -0.179000
  H      3.720000    3.632000   -1.967000

----------------------------
CARTESIAN COORDINATES (A.U.)
----------------------------
  NO LB      ZA    FRAG     MASS         X           Y           Z
   0 C     6.0000    0    12.011   -5.890276   12.147160    1.079034
   1 C     6.0000    0    12.011    2.785456    7.636383    0.107714
   2 C     6.0000    0    12.011   -5.295013    7.734649    0.092597
   3 C     6.0000    0    12.011   -7.789451    7.698744   -0.808803
   4 C     6.0000    0    12.011   -9.236981    9.868150   -0.740773
   5 C     6.0000    0    12.011   -9.864370   14.358139    0.177634
   6 C     6.0000    0    12.011    0.249444    8.139050    0.115273
   7 C     6.0000    0    12.011   -1.075254    5.775003    0.088817
   8 C     6.0000    0    12.011    3.116158    4.947303    0.043464
   9 C     6.0000    0    12.011   -4.365267   10.028777    1.043129
  10 N     7.0000    0    14.007   -8.288339   12.048894    0.198421
  11 N     7.0000    0    14.007    0.733214    3.906064    0.047243
  12 N     7.0000    0    14.007   -3.798350    0.746442   -0.141729
  13 N     7.0000    0    14.007   -0.733214   -3.919292   -0.051023
  14 N     7.0000    0    14.007    3.798350   -0.757780    0.122832
  15 C     6.0000    0    12.011   -3.703863    5.406506    0.045353
  16 C     6.0000    0    12.011   -4.956752    3.051908   -0.034015
  17 C     6.0000    0    12.011  -10.531444   -8.180624    2.014448
  18 C     6.0000    0    12.011   -7.696855    2.779787    0.105825
  19 C     6.0000    0    12.011   -7.759216   -5.208085   -0.049133
  20 C     6.0000    0    12.011   -9.439182   -5.209975   -2.099486
  21 C     6.0000    0    12.011  -11.587801   -6.693410   -2.033345
  22 C     6.0000    0    12.011  -14.458295   -9.662170    0.075589
  23 C     6.0000    0    12.011   -8.171176    0.266451    0.069920
  24 C     6.0000    0    12.011   -5.716422   -0.982658   -0.090707
  25 C     6.0000    0    12.011   -8.356369   -6.738763    2.031456
  26 N     7.0000    0    14.007  -12.107475   -8.150389    0.001890
  27 C     6.0000    0    12.011   -5.417845   -3.632054   -0.075589
  28 C     6.0000    0    12.011   -3.118048   -4.958641   -0.051023
  29 C     6.0000    0    12.011    6.742543  -11.606698   -1.965315
  30 C     6.0000    0    12.011   -2.789236   -7.651501   -0.064251
  31 C     6.0000    0    12.011    5.296902   -7.745987   -0.015118
  32 C     6.0000    0    12.011    6.910728   -8.284559    2.020117
  33 C     6.0000    0    12.011    8.365818  -10.450186    2.001220
  34 C     6.0000    0    12.011    9.911614  -14.339242    0.026456
  35 C     6.0000    0    12.011   -0.253223   -8.154168   -0.041574
  36 C     6.0000    0    12.011    1.073364   -5.790121   -0.051023
  37 C     6.0000    0    12.011    5.243990   -9.471307   -2.029566
  38 N     7.0000    0    14.007    8.269442  -12.077240    0.032125
  39 C     6.0000    0    12.011    3.701973   -5.421624   -0.017008
  40 C     6.0000    0    12.011    4.952972   -3.065136    0.017008
  41 C     6.0000    0    12.011   10.474752    8.199522   -2.135391
  42 C     6.0000    0    12.011    7.691185   -2.794905   -0.177634
  43 C     6.0000    0    12.011    7.755436    5.198637   -0.039684
  44 C     6.0000    0    12.011    9.499653    5.157063    1.957756
  45 C     6.0000    0    12.011   11.652051    6.631049    1.848152
  46 C     6.0000    0    12.011   14.397823    9.737759   -0.217319
  47 C     6.0000    0    12.011    8.165507   -0.279679   -0.173855
  48 C     6.0000    0    12.011    5.716422    0.971319    0.028346
  49 C     6.0000    0    12.011    8.290229    6.768999   -2.107045
  50 C     6.0000    0    12.011    5.415955    3.620715    0.024566
  51 N     7.0000    0    14.007   12.118814    8.118263   -0.179524
  52 H     1.0000    0     1.008   -5.260998   13.949958    1.816027
  53 H     1.0000    0     1.008    4.297237    9.006435    0.153068
  54 H     1.0000    0     1.008   -8.609592    5.990432   -1.581701
  55 H     1.0000    0     1.008  -11.162612    9.936180   -1.428633
  56 H     1.0000    0     1.008   -9.665949   15.289774   -1.653510
  57 H     1.0000    0     1.008  -11.827796   13.821457    0.491329
  58 H     1.0000    0     1.008   -9.225643   15.609138    1.681856
  59 H     1.0000    0     1.008   -0.627389    9.981533    0.130391
  60 H     1.0000    0     1.008   -2.462313   10.172396    1.789571
  61 H     1.0000    0     1.008    0.343930    2.025786    0.009449
  62 H     1.0000    0     1.008   -0.345820   -2.040904   -0.039684
  63 H     1.0000    0     1.008  -11.081354   -9.376821    3.581031
  64 H     1.0000    0     1.008   -9.059347    4.293458    0.262672
  65 H     1.0000    0     1.008   -9.070685   -4.081808   -3.768114
  66 H     1.0000    0     1.008  -12.927616   -6.768999   -3.577252
  67 H     1.0000    0     1.008  -15.926612   -8.571798    1.031790
  68 H     1.0000    0     1.008  -15.034661  -10.085468   -1.853821
  69 H     1.0000    0     1.008  -14.089798  -11.408277    1.103600
  70 H     1.0000    0     1.008   -9.990982   -0.650066    0.188973
  71 H     1.0000    0     1.008   -7.143165   -6.804904    3.679297
  72 H     1.0000    0     1.008    6.778448  -12.978639   -3.482765
  73 H     1.0000    0     1.008   -4.301017   -9.021553   -0.094486
  74 H     1.0000    0     1.008    7.018443   -7.037340    3.639613
  75 H     1.0000    0     1.008    9.622485  -10.950963    3.535678
  76 H     1.0000    0     1.008   11.725751  -13.849803   -0.829590
  77 H     1.0000    0     1.008   10.191293  -14.960962    1.969095
  78 H     1.0000    0     1.008    8.993207  -15.822677   -1.065806
  79 H     1.0000    0     1.008    0.621720   -9.996651   -0.015118
  80 H     1.0000    0     1.008    4.055352   -9.150054   -3.666069
  81 H     1.0000    0     1.008   10.975529    9.422175   -3.696304
  82 H     1.0000    0     1.008    9.048009   -4.310465   -0.349599
  83 H     1.0000    0     1.008    9.184069    3.994881    3.613156
  84 H     1.0000    0     1.008   13.041000    6.672623    3.348595
  85 H     1.0000    0     1.008   13.951848   11.544337    0.672743
  86 H     1.0000    0     1.008   15.900156    8.791006    0.822031
  87 H     1.0000    0     1.008   14.968521   10.034446   -2.173185
  88 H     1.0000    0     1.008    9.983423    0.634948   -0.338261
  89 H     1.0000    0     1.008    7.029781    6.863485   -3.717091

--------------------------------
INTERNAL COORDINATES (ANGSTROEM)
--------------------------------
 C      0   0   0     0.000000000000     0.00000000     0.00000000
 C      1   0   0     5.199927499495     0.00000000     0.00000000
 C      1   2   0     2.413282826359    54.49474397     0.00000000
 C      3   1   2     1.403670189183    87.92856737   198.94274352
 C      4   3   1     1.380563653006   120.10958270     0.09588992
 C      5   4   3     2.447814535458   152.57071953     1.69590283
 C      2   1   3     1.368114030335    17.14052198     6.87467246
 C      7   2   1     1.434084376876   108.05010202   198.37845365
 C      2   1   3     1.434123425651   124.44146735   346.43979048
 C      1   2   3     1.381394585193    27.17001810    20.70811407
 N      1   2   3     1.352856607331   140.93919388   329.11165814
 N      9   2   1     1.376127174356   106.58526707     5.45658492
 N     12   9   2     2.925062050624   168.53581413   171.12065651
 N     13  12   9     2.954513327098    91.55032014    11.12112580
 N     14  13  12     2.925371258490    88.43092389   359.84326247
 C      8   7   2     1.404790019896   127.24786865   181.11170171
 C     13  12   9     1.366535034311    81.72106996   188.00453233
 C     14  13  12     5.758810554272    80.56209567   166.76250791
 C     17  13  12     1.459010623676   111.08861209   183.82872609
 C     18  14  13     2.412235892279    27.27532823    36.33507194
 C     20  18  14     1.402692767501    87.95206320   148.94598259
 C     21  20  18     1.382106725257   120.14573887   359.70382047
 C     18  14  13     2.446510985056   144.15733107    82.80075377
 C     19  17  13     1.353610726908   106.29293361   359.75308708
 C     13  12   9     1.366813447402   172.21332906    33.46711076
 C     18  14  13     1.380960173213    15.08449437   309.23336894
 N     22  21  20     1.352773077792   120.73759875     0.27865223
 C     25  13  17     1.410897586645   125.60330303   182.37774668
 C     14  13  12     1.376642291955    80.24689249   177.85461986
 C     14  13  12     5.764089607215   164.51507311   312.20821879
 C     29  14  13     1.435600919476   106.58649366   178.76395472
 C     30  14  13     2.413316804732    27.10625047    82.12560436
 C     32  30  14     1.403734305344    87.90059683   149.76154742
 C     33  32  30     1.380694028378   120.14881443   359.74174632
 C     34  33  32     2.448777858443   152.49203239     2.45173620
 C     31  29  14     1.368160809262   108.16950133     0.70383075
 C     14  13  12     1.376239804685   169.26375223   353.09862627
 C     30  14  13     1.380907310430    14.68948582   353.70041132
 N     34  33  32     1.352658863128   120.85575621     0.19603406
 C     37  14  29     1.404717053360   126.01551127   180.90772073
 C     15  14  13     1.366491126938    81.61824056   183.09049352
 C      2   1   3     4.249062720177   147.23546412   147.31851689
 C     41  15  14     1.459677704153   111.05201287   175.08990246
 C     42   2   1     2.412953791518    41.78584867   172.05214360
 C     44  42   2     1.403446472082    87.95153797   233.97558675
 C     45  44  42     1.381696421071   120.11137308     0.19721020
 C     42   2   1     2.450019795838   135.97209175    82.36699270
 C     43  41  15     1.354461516618   106.26758155     0.30894352
 C     15  14  13     1.367461151185   171.87382904   332.35056460
 C     42   2   1     1.381886391857    32.59078432   220.90742279
 C      9   2   1     1.404988612053   126.98745415   186.46092245
 N     42   2   1     1.352765315936   113.57249190   110.10358190
 H      1   2   3     1.083099718401    99.69913381   170.81717504
 H      2   1   3     1.079907866440   110.10095294   172.13578827
 H      4   3   1     1.082983379374   121.09736308   179.53892789
 H      5   4   3     1.082660149816   122.75882440   179.45755542
 H      6   5   4     1.092261415596   104.41467912   100.05558796
 H      6   5   4     1.089831638374    84.64084304   209.50889189
 H      6   5   4     1.089084018797   133.87104212   322.31600790
 H      7   2   1     1.079807853278   126.66122480    18.61686743
 H     10   1   2     1.084366174316   118.72630645    35.95705255
 H     12   9   2     1.016297692608   125.29023241   180.00180175
 H     14  13  12     1.014936943854    44.97226959   359.42596618
 H     18  14  13     1.082871645210   128.03556573   234.20482432
 H     19  17  13     1.080893611786   126.41830519   178.11313280
 H     21  20  18     1.083569563987   121.05669627   180.67006309
 H     22  21  20     1.082483256222   122.73097286   180.59748951
 H     23  18  14     1.092105306278   103.92715769   234.93429879
 H     23  18  14     1.088871893291   134.19244188    12.25587044
 H     23  18  14     1.089833473518    84.85857450   125.45241208
 H     24  19  17     1.080075460327   127.28078426   178.44613241
 H     26  18  14     1.083408048706   118.76995697   244.94906660
 H     30  14  13     1.082703098730   127.99711412   279.66882698
 H     31  29  14     1.079759695488   125.22293469   180.92530585
 H     33  32  30     1.083188810873   121.01964473   180.74284758
 H     34  33  32     1.082494341787   122.70821597   180.59516895
 H     35  34  33     1.092652735319   105.73575241    97.19771933
 H     35  34  33     1.089462711615    84.05943581   206.43036958
 H     35  34  33     1.089268102902   133.08365142   318.50306270
 H     36  31  29     1.079439669458   126.61599965   178.98859863
 H     38  30  73     1.083742127999   118.77264435   359.90091293
 H     42   2   1     1.082178358682   119.31790784   326.73511235
 H     43  41  15     1.080281907652   126.36969097   182.06329380
 H     45  44  42     1.083277434455   121.10105945   179.58025624
 H     46  45  44     1.082194529648   122.72144639   179.46906377
 H     47  42   2     1.091546151109   106.65128841   315.16475048
 H     47  42   2     1.088818625851   132.46019523    94.52397119
 H     47  42   2     1.089531091801    83.63838232   206.04504406
 H     48  43  41     1.080402239909   127.23657387   181.62955349
 H     50  42   2     1.083186502870   118.77001737    94.71359229

---------------------------
INTERNAL COORDINATES (A.U.)
---------------------------
 C      0   0   0     0.000000000000     0.00000000     0.00000000
 C      1   0   0     9.826438890291     0.00000000     0.00000000
 C      1   2   0     4.560443625514    54.49474397     0.00000000
 C      3   1   2     2.652552239905    87.92856737   198.94274352
 C      4   3   1     2.608887214626   120.10958270     0.09588992
 C      5   4   3     4.625699098647   152.57071953     1.69590283
 C      2   1   3     2.585360837309    17.14052198     6.87467246
 C      7   2   1     2.710026725231   108.05010202   198.37845365
 C      2   1   3     2.710100516721   124.44146735   346.43979048
 C      1   2   3     2.610457448896    27.17001810    20.70811407
 N      1   2   3     2.556528486322   140.93919388   329.11165814
 N      9   2   1     2.600503484979   106.58526707     5.45658492
 N     12   9   2     5.527566200405   168.53581413   171.12065651
 N     13  12   9     5.583221047236    91.55032014    11.12112580
 N     14  13  12     5.528150518591    88.43092389   359.84326247
 C      8   7   2     2.654668413270   127.24786865   181.11170171
 C     13  12   9     2.582376967257    81.72106996   188.00453233
 C     14  13  12    10.882574804710    80.56209567   166.76250791
 C     17  13  12     2.757130505230   111.08861209   183.82872609
 C     18  14  13     4.558465206823    27.27532823    36.33507194
 C     20  18  14     2.650705180609    87.95206320   148.94598259
 C     21  20  18     2.611803198586   120.14573887   359.70382047
 C     18  14  13     4.623235745386   144.15733107    82.80075377
 C     19  17  13     2.557953565794   106.29293361   359.75308708
 C     13  12   9     2.582903091751   172.21332906    33.46711076
 C     18  14  13     2.609636529225    15.08449437   309.23336894
 N     22  21  20     2.556370638369   120.73759875     0.27865223
 C     25  13  17     2.666210041769   125.60330303   182.37774668
 C     14  13  12     2.601476916169    80.24689249   177.85461986
 C     14  13  12    10.892550769017   164.51507311   312.20821879
 C     29  14  13     2.712892575415   106.58649366   178.76395472
 C     30  14  13     4.560507835333    27.10625047    82.12560436
 C     32  30  14     2.652673401891    87.90059683   149.76154742
 C     33  32  30     2.609133588376   120.14881443   359.74174632
 C     34  33  32     4.627519515267   152.49203239     2.45173620
 C     31  29  14     2.585449236669   108.16950133     0.70383075
 C     14  13  12     2.600716325456   169.26375223   353.09862627
 C     30  14  13     2.609536633043    14.68948582   353.70041132
 N     34  33  32     2.556154803934   120.85575621     0.19603406
 C     37  14  29     2.654530526499   126.01551127   180.90772073
 C     15  14  13     2.582293994346    81.61824056   183.09049352
 C      2   1   3     8.029564866989   147.23546412   147.31851689
 C     41  15  14     2.758391104639   111.05201287   175.08990246
 C     42   2   1     4.559821839776    41.78584867   172.05214360
 C     44  42   2     2.652129475853    87.95153797   233.97558675
 C     45  44  42     2.611027836043   120.11137308     0.19721020
 C     42   2   1     4.629866436820   135.97209175    82.36699270
 C     43  41  15     2.559561325344   106.26758155     0.30894352
 C     15  14  13     2.584127074516   171.87382904   332.35056460
 C     42   2   1     2.611386828803    32.59078432   220.90742279
 C      9   2   1     2.655043698059   126.98745415   186.46092245
 N     42   2   1     2.556355970587   113.57249190   110.10358190
 H      1   2   3     2.046761843505    99.69913381   170.81717504
 H      2   1   3     2.040730117440   110.10095294   172.13578827
 H      4   3   1     2.046541994605   121.09736308   179.53892789
 H      5   4   3     2.045931179263   122.75882440   179.45755542
 H      6   5   4     2.064074942126   104.41467912   100.05558796
 H      6   5   4     2.059483328609    84.64084304   209.50889189
 H      6   5   4     2.058070532358   133.87104212   322.31600790
 H      7   2   1     2.040541119952   126.66122480    18.61686743
 H     10   1   2     2.049155098345   118.72630645    35.95705255
 H     12   9   2     1.920524309565   125.29023241   180.00180175
 H     14  13  12     1.917952867083    44.97226959   359.42596618
 H     18  14  13     2.046330847636   128.03556573   234.20482432
 H     19  17  13     2.042592906181   126.41830519   178.11313280
 H     21  20  18     2.047649722989   121.05669627   180.67006309
 H     22  21  20     2.045596898814   122.73097286   180.59748951
 H     23  18  14     2.063779938267   103.92715769   234.93429879
 H     23  18  14     2.057669673245   134.19244188    12.25587044
 H     23  18  14     2.059486796529    84.85857450   125.45241208
 H     24  19  17     2.041046823986   127.28078426   178.44613241
 H     26  18  14     2.047344503340   118.76995697   244.94906660
 H     30  14  13     2.046012340948   127.99711412   279.66882698
 H     31  29  14     2.040450114918   125.22293469   180.92530585
 H     33  32  30     2.046930203877   121.01964473   180.74284758
 H     34  33  32     2.045617847496   122.70821597   180.59516895
 H     35  34  33     2.064814429233   105.73575241    97.19771933
 H     35  34  33     2.058786158072    84.05943581   206.43036958
 H     35  34  33     2.058418400901   133.08365142   318.50306270
 H     36  31  29     2.039845353366   126.61599965   178.98859863
 H     38  30  73     2.047975821711   118.77264435   359.90091293
 H     42   2   1     2.045020725966   119.31790784   326.73511235
 H     43  41  15     2.041436952892   126.36969097   182.06329380
 H     45  44  42     2.047097678177   121.10105945   179.58025624
 H     46  45  44     2.045051284662   122.72144639   179.46906377
 H     47  42   2     2.062723288131   106.65128841   315.16475048
 H     47  42   2     2.057569012371   132.46019523    94.52397119
 H     47  42   2     2.058915377895    83.63838232   206.04504406
 H     48  43  41     2.041664347903   127.23657387   181.62955349
 H     50  42   2     2.046925842384   118.77001737    94.71359229

---------------------
BASIS SET INFORMATION
---------------------
There are 3 groups of distinct atoms

 Group   1 Type C   : 17s4p1d contracted to 3s2p1d pattern {881/31/1}
 Group   2 Type N   : 17s4p1d contracted to 3s2p1d pattern {881/31/1}
 Group   3 Type H   : 4s1p contracted to 2s1p pattern {31/1}

Atom   0C    basis set group =>   1
Atom   1N    basis set group =>   2
Atom   2C    basis set group =>   1
Atom   3N    basis set group =>   2
Atom   4C    basis set group =>   1
Atom   5N    basis set group =>   2
Atom   6C    basis set group =>   1
Atom   7N    basis set group =>   2
Atom   8C    basis set group =>   1
Atom   9N    basis set group =>   2
Atom  10C    basis set group =>   1
Atom  11N    basis set group =>   2
Atom  12C    basis set group =>   1
Atom  13N    basis set group =>   2
Atom  14C    basis set group =>   1
Atom  15N    basis set group =>   2
Atom  16C    basis set group =>   1
Atom  17C    basis set group =>   1
Atom  18C    basis set group =>   1
Atom  19C    basis set group =>   1
Atom  20C    basis set group =>   1
Atom  21C    basis set group =>   1
Atom  22C    basis set group =>   1
Atom  23C    basis set group =>   1
Atom  24C    basis set group =>   1
Atom  25C    basis set group =>   1
Atom  26C    basis set group =>   1
Atom  27C    basis set group =>   1
Atom  28C    basis set group =>   1
Atom  29C    basis set group =>   1
Atom  30C    basis set group =>   1
Atom  31C    basis set group =>   1
Atom  32C    basis set group =>   1
Atom  33C    basis set group =>   1
Atom  34C    basis set group =>   1
Atom  35C    basis set group =>   1
Atom  36C    basis set group =>   1
Atom  37C    basis set group =>   1
Atom  38C    basis set group =>   1
Atom  39C    basis set group =>   1
Atom  40C    basis set group =>   1
Atom  41C    basis set group =>   1
Atom  42C    basis set group =>   1
Atom  43C    basis set group =>   1
Atom  44C    basis set group =>   1
Atom  45C    basis set group =>   1
Atom  46C    basis set group =>   1
Atom  47C    basis set group =>   1
Atom  48C    basis set group =>   1
Atom  49C    basis set group =>   1
Atom  50C    basis set group =>   1
Atom  51C    basis set group =>   1
Atom  52H    basis set group =>   3
Atom  53H    basis set group =>   3
Atom  54H    basis set group =>   3
Atom  55H    basis set group =>   3
Atom  56H    basis set group =>   3
Atom  57H    basis set group =>   3
Atom  58H    basis set group =>   3
Atom  59H    basis set group =>   3
Atom  60H    basis set group =>   3
Atom  61H    basis set group =>   3
Atom  62H    basis set group =>   3
Atom  63H    basis set group =>   3
Atom  64H    basis set group =>   3
Atom  65H    basis set group =>   3
Atom  66H    basis set group =>   3
Atom  67H    basis set group =>   3
Atom  68H    basis set group =>   3
Atom  69H    basis set group =>   3
Atom  70H    basis set group =>   3
Atom  71H    basis set group =>   3
Atom  72H    basis set group =>   3
Atom  73H    basis set group =>   3
Atom  74H    basis set group =>   3
Atom  75H    basis set group =>   3
Atom  76H    basis set group =>   3
Atom  77H    basis set group =>   3
Atom  78H    basis set group =>   3
Atom  79H    basis set group =>   3
Atom  80H    basis set group =>   3
Atom  81H    basis set group =>   3
Atom  82H    basis set group =>   3
Atom  83H    basis set group =>   3
Atom  84H    basis set group =>   3
Atom  85H    basis set group =>   3
Atom  86H    basis set group =>   3
Atom  87H    basis set group =>   3
Atom  88H    basis set group =>   3
Atom  89H    basis set group =>   3


           ************************************************************
           *        Program running with 8 parallel MPI-processes     *
           *              working on a common directory               *
           ************************************************************
------------------------------------------------------------------------------
                           ORCA GTO INTEGRAL CALCULATION
------------------------------------------------------------------------------
------------------------------------------------------------------------------
                   ___                                                        
                  /   \      - P O W E R E D   B Y -                         
                 /     \                                                     
                 |  |  |   _    _      __       _____    __    __             
                 |  |  |  | |  | |    /  \     |  _  \  |  |  /  |          
                  \  \/   | |  | |   /    \    | | | |  |  | /  /          
                 / \  \   | |__| |  /  /\  \   | |_| |  |  |/  /          
                |  |  |   |  __  | /  /__\  \  |    /   |      \           
                |  |  |   | |  | | |   __   |  |    \   |  |\   \          
                \     /   | |  | | |  |  |  |  | |\  \  |  | \   \       
                 \___/    |_|  |_| |__|  |__|  |_| \__\ |__|  \__/        
                                                                              
                      - O R C A' S   B I G   F R I E N D -                    
                                      &                                       
                       - I N T E G R A L  F E E D E R -                       
                                                                              
 v1 FN, 2020, v2 2021                                                         
------------------------------------------------------------------------------


Reading SHARK input file /scratch/chu_02/allen/tmpyp4_amber_gaff2/conf1/conf1/Conf338.orca.SHARKINP.tmp ... ok
----------------------
SHARK INTEGRAL PACKAGE
----------------------

Number of atoms                             ...     90
Number of basis functions                   ...   1230
Number of shells                            ...    738
Maximum angular momentum                    ...      2
Integral batch strategy                     ... SHARK/LIBINT Hybrid
RI-J (if used) integral strategy            ... SPLIT-RIJ (Revised 2003 algorithm where possible)
Printlevel                                  ...      1
Contraction scheme used                     ... PARTIAL GENERAL contraction
Coulomb Range Separation                    ... NOT USED
Exchange Range Separation                   ... NOT USED
Finite Nucleus Model                        ... NOT USED
Auxiliary Coulomb fitting basis             ... NOT available
Auxiliary J/K fitting basis                 ... NOT available
Auxiliary Correlation fitting basis         ... NOT available
Auxiliary 'external' fitting basis          ... NOT available
Integral threshold                          ...     2.500000e-11
Primitive cut-off                           ...     2.500000e-12
Primitive pair pre-selection threshold      ...     2.500000e-12

Calculating pre-screening integrals         ... done (  0.1 sec) Dimension = 738
Calculating pre-screening integrals (ORCA)  ... done (  0.3 sec) Dimension = 426
Organizing shell pair data                  ... done (  0.5 sec)
Shell pair information
Total number of shell pairs                 ...    272691
Shell pairs after pre-screening             ...     71687
Total number of primitive shell pairs       ...    422091
Primitive shell pairs kept                  ...     92562
          la=0 lb=0:  29422 shell pairs
          la=1 lb=0:  26016 shell pairs
          la=1 lb=1:   4704 shell pairs
          la=2 lb=0:   7892 shell pairs
          la=2 lb=1:   3124 shell pairs
          la=2 lb=2:    529 shell pairs

Calculating one electron integrals          ... done (  0.2 sec)
Calculating Nuclear repulsion               ... done (  0.0 sec) ENN=   6232.781584877025 Eh

SHARK setup successfully completed in   1.6 seconds

Maximum memory used throughout the entire GTOINT-calculation: 99.1 MB


           ************************************************************
           *        Program running with 8 parallel MPI-processes     *
           *              working on a common directory               *
           ************************************************************
-------------------------------------------------------------------------------
                                 ORCA SCF
-------------------------------------------------------------------------------

------------
SCF SETTINGS
------------
Hamiltonian:
 Ab initio Hamiltonian  Method          .... Hartree-Fock(GTOs)


General Settings:
 Integral files         IntName         .... /scratch/chu_02/allen/tmpyp4_amber_gaff2/conf1/conf1/Conf338.orca
 Hartree-Fock type      HFTyp           .... RHF
 Total Charge           Charge          ....    0
 Multiplicity           Mult            ....    1
 Number of Electrons    NEL             ....  358
 Basis Dimension        Dim             ....  918
 Nuclear Repulsion      ENuc            ....   6232.7815848770 Eh

Convergence Acceleration:
 DIIS                   CNVDIIS         .... on
   Start iteration      DIISMaxIt       ....    12
   Startup error        DIISStart       ....  0.200000
   # of expansion vecs  DIISMaxEq       ....     5
   Bias factor          DIISBfac        ....   1.050
   Max. coefficient     DIISMaxC        ....  10.000
 Trust-Rad. Augm. Hess. CNVTRAH         .... auto
   Auto Start mean grad. ratio tolernc. ....  1.125000
   Auto Start start iteration           ....    20
   Auto Start num. interpolation iter.  ....    10
   Max. Number of Micro iterations      ....    16
   Max. Number of Macro iterations      .... Maxiter - #DIIS iter
   Number of Davidson start vectors     ....     2
   Converg. threshold I  (grad. norm)   ....   1.000e-05
   Converg. threshold II (energy diff.) ....   1.000e-08
   Grad. Scal. Fac. for Micro threshold ....   0.100
   Minimum threshold for Micro iter.    ....   0.010
   NR start threshold (gradient norm)   ....   0.001
   Initial trust radius                 ....   0.400
   Minimum AH scaling param. (alpha)    ....   1.000
   Maximum AH scaling param. (alpha)    .... 1000.000
   Orbital update algorithm             .... Taylor
   White noise on init. David. guess    .... on
   Maximum white noise                  ....   0.010
   Quad. conv. algorithm                .... NR
 SOSCF                  CNVSOSCF        .... on
   Start iteration      SOSCFMaxIt      ....   150
   Startup grad/error   SOSCFStart      ....  0.003300
 Level Shifting         CNVShift        .... on
   Level shift para.    LevelShift      ....    0.2500
   Turn off err/grad.   ShiftErr        ....    0.0010
 Zerner damping         CNVZerner       .... off
 Static damping         CNVDamp         .... on
   Fraction old density DampFac         ....    0.7000
   Max. Damping (<1)    DampMax         ....    0.9800
   Min. Damping (>=0)   DampMin         ....    0.0000
   Turn off err/grad.   DampErr         ....    0.1000
 Fernandez-Rico         CNVRico         .... off

SCF Procedure:
 Maximum # iterations   MaxIter         ....   125
 SCF integral mode      SCFMode         .... Direct
   Integral package                     .... SHARK and LIBINT hybrid scheme
 Reset frequency        DirectResetFreq ....    20
 Integral Threshold     Thresh          ....  2.500e-11 Eh
 Primitive CutOff       TCut            ....  2.500e-12 Eh

Convergence Tolerance:
 Convergence Check Mode ConvCheckMode   .... Total+1el-Energy
 Convergence forced     ConvForced      .... 1
 Energy Change          TolE            ....  1.000e-08 Eh
 1-El. energy change                    ....  1.000e-05 Eh
 Orbital Gradient       TolG            ....  1.000e-05
 Orbital Rotation angle TolX            ....  1.000e-05
 DIIS Error             TolErr          ....  5.000e-07


Diagonalization of the overlap matrix:
Smallest eigenvalue                        ... 2.068e-04
Time for diagonalization                   ...    0.210 sec
Threshold for overlap eigenvalues          ... 1.000e-08
Number of eigenvalues below threshold      ... 0
Time for construction of square roots      ...    0.122 sec
Total time needed                          ...    0.337 sec

Time for model grid setup =    1.349 sec

------------------------------
INITIAL GUESS: MODEL POTENTIAL
------------------------------
Loading Hartree-Fock densities                     ... done
Calculating cut-offs                               ... done
Initializing the effective Hamiltonian             ... done
Setting up the integral package (SHARK)            ... done
Starting the Coulomb interaction                   ... done (   1.6 sec)
Reading the grid                                   ... done
Mapping shells                                     ... done
Starting the XC term evaluation                    ... done (   0.3 sec)
Transforming the Hamiltonian                       ... done (   0.1 sec)
Diagonalizing the Hamiltonian                      ... done (   0.2 sec)
Back transforming the eigenvectors                 ... done (   0.0 sec)
Now organizing SCF variables                       ... done
                      ------------------
                      INITIAL GUESS DONE (   3.7 sec)
                      ------------------
--------------
SCF ITERATIONS
--------------
ITER       Energy         Delta-E        Max-DP      RMS-DP      [F,P]     Damp
               ***  Starting incremental Fock matrix formation  ***
  0  -2121.6752017509   0.000000000000 0.08348130  0.00123066  0.2316412 0.7000
  1  -2122.3244847578  -0.649283006911 0.06281237  0.00100094  0.1436322 0.7000
                               ***Turning on DIIS***
  2  -2122.7287806591  -0.404295901229 0.14592733  0.00227522  0.0802757 0.0000
  3  -2118.0064090761   4.722371583011 0.03862085  0.00067214  0.0436520 0.0000
  4  -2123.4138412124  -5.407432136381 0.01209810  0.00022551  0.0087513 0.0000
  5  -2123.5601613495  -0.146320137108 0.00591250  0.00013200  0.0049253 0.0000
  6  -2123.5442919574   0.015869392097 0.00366480  0.00008474  0.0021351 0.0000
  7  -2123.6391930872  -0.094901129751 0.00314145  0.00006691  0.0016038 0.0000
  8  -2123.6480942222  -0.008901134963 0.00332162  0.00006369  0.0014956 0.0000
  9  -2123.6193540174   0.028740204747 0.00265155  0.00004504  0.0012001 0.0000
 10  -2123.6280010233  -0.008647005907 0.00533233  0.00009469  0.0009330 0.0000
                      *** Initiating the SOSCF procedure ***
                           *** Shutting down DIIS ***
                      *** Re-Reading the Fockian *** 
                      *** Removing any level shift *** 
ITER      Energy       Delta-E        Grad      Rot      Max-DP    RMS-DP
 11  -2123.52051881   0.1074822128  0.000176  0.000176  0.000235  0.000005
               *** Restarting incremental Fock matrix formation ***
 12  -2123.58652568  -0.0660068662  0.000865  0.006420  0.001444  0.000035
 13  -2123.58663517  -0.0001094928  0.001083  0.031964  0.006669  0.000138
 14  -2123.58682163  -0.0001864600  0.000359  0.001436  0.000616  0.000012
 15  -2123.58683679  -0.0000151622  0.000154  0.001937  0.000606  0.000014
 16  -2123.58684451  -0.0000077151  0.000149  0.002423  0.000457  0.000009
 17  -2123.58684703  -0.0000025245  0.000118  0.001736  0.000288  0.000006
 18  -2123.58684824  -0.0000012130  0.000061  0.000568  0.000243  0.000003
 19  -2123.58684882  -0.0000005750  0.000041  0.000706  0.000169  0.000003
 20  -2123.58684907  -0.0000002475  0.000020  0.000442  0.000094  0.000002
 21  -2123.58684918  -0.0000001115  0.000020  0.000581  0.000112  0.000002
 22  -2123.58684927  -0.0000000955  0.000017  0.000575  0.000101  0.000002
 23  -2123.58684934  -0.0000000618  0.000010  0.000378  0.000068  0.000001
 24  -2123.58684937  -0.0000000358  0.000006  0.000319  0.000048  0.000001
 25  -2123.58684940  -0.0000000261  0.000007  0.000173  0.000031  0.000001
 26  -2123.58684941  -0.0000000153  0.000004  0.000141  0.000026  0.000001
 27  -2123.58684942  -0.0000000101  0.000003  0.000109  0.000021  0.000000
                  ***Gradient check signals convergence***
              ***Rediagonalizing the Fockian in SOSCF/NRSCF***

               *****************************************************
               *                     SUCCESS                       *
               *           SCF CONVERGED AFTER  28 CYCLES          *
               *****************************************************


----------------
TOTAL SCF ENERGY
----------------

Total Energy       :        -2123.58684943 Eh          -57785.73594 eV

Components:
Nuclear Repulsion  :         6232.78158488 Eh          169602.60935 eV
Electronic Energy  :        -8356.36843430 Eh         -227388.34530 eV
One Electron Energy:       -15306.26480431 Eh         -416504.64001 eV
Two Electron Energy:         6949.89637001 Eh          189116.29471 eV

Virial components:
Potential Energy   :        -4245.86684314 Eh         -115535.91053 eV
Kinetic Energy     :         2122.27999371 Eh           57750.17459 eV
Virial Ratio       :            2.00061578


---------------
SCF CONVERGENCE
---------------

  Last Energy change         ...   -4.0691e-09  Tolerance :   1.0000e-08
  Last MAX-Density change    ...    1.1609e-05  Tolerance :   1.0000e-07
  Last RMS-Density change    ...    2.3971e-07  Tolerance :   5.0000e-09
  Last Orbital Gradient      ...    2.0033e-06  Tolerance :   1.0000e-05
  Last Orbital Rotation      ...    6.6421e-05  Tolerance :   1.0000e-05

             **** THE GBW FILE WAS UPDATED (/scratch/chu_02/allen/tmpyp4_amber_gaff2/conf1/conf1/Conf338.orca.gbw) ****
             **** DENSITY /scratch/chu_02/allen/tmpyp4_amber_gaff2/conf1/conf1/Conf338.orca.scfp WAS UPDATED ****
             **** ENERGY FILE WAS UPDATED (/scratch/chu_02/allen/tmpyp4_amber_gaff2/conf1/conf1/Conf338.orca.en.tmp) ****
             **** THE GBW FILE WAS UPDATED (/scratch/chu_02/allen/tmpyp4_amber_gaff2/conf1/conf1/Conf338.orca.gbw) ****
             **** DENSITY /scratch/chu_02/allen/tmpyp4_amber_gaff2/conf1/conf1/Conf338.orca.scfp WAS UPDATED ****
----------------
ORBITAL ENERGIES
----------------

  NO   OCC          E(Eh)            E(eV) 
   0   2.0000     -15.677079      -426.5950 
   1   2.0000     -15.636245      -425.4839 
   2   2.0000     -15.629643      -425.3042 
   3   2.0000     -15.587960      -424.1700 
   4   2.0000     -15.525569      -422.4722 
   5   2.0000     -15.515592      -422.2007 
   6   2.0000     -15.452835      -420.4930 
   7   2.0000     -15.441799      -420.1927 
   8   2.0000     -11.327495      -308.2368 
   9   2.0000     -11.326258      -308.2032 
  10   2.0000     -11.325736      -308.1889 
  11   2.0000     -11.300755      -307.5092 
  12   2.0000     -11.296970      -307.4062 
  13   2.0000     -11.294757      -307.3460 
  14   2.0000     -11.289184      -307.1943 
  15   2.0000     -11.288800      -307.1839 
  16   2.0000     -11.284811      -307.0753 
  17   2.0000     -11.279532      -306.9317 
  18   2.0000     -11.270860      -306.6957 
  19   2.0000     -11.261511      -306.4413 
  20   2.0000     -11.260546      -306.4150 
  21   2.0000     -11.253917      -306.2346 
  22   2.0000     -11.250501      -306.1417 
  23   2.0000     -11.239961      -305.8549 
  24   2.0000     -11.234479      -305.7057 
  25   2.0000     -11.232928      -305.6635 
  26   2.0000     -11.232324      -305.6471 
  27   2.0000     -11.228118      -305.5326 
  28   2.0000     -11.227791      -305.5237 
  29   2.0000     -11.211487      -305.0801 
  30   2.0000     -11.209997      -305.0395 
  31   2.0000     -11.196302      -304.6669 
  32   2.0000     -11.190477      -304.5084 
  33   2.0000     -11.189526      -304.4825 
  34   2.0000     -11.188338      -304.4502 
  35   2.0000     -11.186482      -304.3996 
  36   2.0000     -11.185967      -304.3856 
  37   2.0000     -11.185266      -304.3666 
  38   2.0000     -11.184932      -304.3575 
  39   2.0000     -11.174547      -304.0749 
  40   2.0000     -11.174026      -304.0607 
  41   2.0000     -11.169173      -303.9286 
  42   2.0000     -11.169171      -303.9286 
  43   2.0000     -11.160800      -303.7008 
  44   2.0000     -11.159990      -303.6788 
  45   2.0000     -11.158600      -303.6409 
  46   2.0000     -11.156130      -303.5737 
  47   2.0000     -11.154647      -303.5334 
  48   2.0000     -11.146463      -303.3107 
  49   2.0000     -11.137098      -303.0558 
  50   2.0000     -11.131856      -302.9132 
  51   2.0000     -11.121181      -302.6227 
  52   2.0000      -1.358075       -36.9551 
  53   2.0000      -1.323202       -36.0062 
  54   2.0000      -1.317725       -35.8571 
  55   2.0000      -1.281895       -34.8821 
  56   2.0000      -1.226549       -33.3761 
  57   2.0000      -1.209906       -32.9232 
  58   2.0000      -1.172040       -31.8928 
  59   2.0000      -1.152107       -31.3504 
  60   2.0000      -1.141720       -31.0678 
  61   2.0000      -1.111860       -30.2553 
  62   2.0000      -1.107449       -30.1352 
  63   2.0000      -1.079947       -29.3869 
  64   2.0000      -1.078378       -29.3442 
  65   2.0000      -1.047328       -28.4992 
  66   2.0000      -1.042468       -28.3670 
  67   2.0000      -1.039932       -28.2980 
  68   2.0000      -1.015236       -27.6260 
  69   2.0000      -1.011898       -27.5352 
  70   2.0000      -1.008935       -27.4545 
  71   2.0000      -0.993874       -27.0447 
  72   2.0000      -0.986074       -26.8325 
  73   2.0000      -0.981139       -26.6981 
  74   2.0000      -0.971830       -26.4448 
  75   2.0000      -0.960909       -26.1477 
  76   2.0000      -0.953572       -25.9480 
  77   2.0000      -0.945827       -25.7373 
  78   2.0000      -0.935187       -25.4477 
  79   2.0000      -0.918179       -24.9849 
  80   2.0000      -0.908585       -24.7239 
  81   2.0000      -0.894919       -24.3520 
  82   2.0000      -0.875576       -23.8256 
  83   2.0000      -0.873379       -23.7659 
  84   2.0000      -0.868629       -23.6366 
  85   2.0000      -0.857139       -23.3239 
  86   2.0000      -0.839178       -22.8352 
  87   2.0000      -0.836350       -22.7582 
  88   2.0000      -0.824632       -22.4394 
  89   2.0000      -0.797381       -21.6978 
  90   2.0000      -0.790251       -21.5038 
  91   2.0000      -0.752408       -20.4741 
  92   2.0000      -0.745449       -20.2847 
  93   2.0000      -0.733713       -19.9653 
  94   2.0000      -0.725019       -19.7288 
  95   2.0000      -0.722245       -19.6533 
  96   2.0000      -0.716735       -19.5033 
  97   2.0000      -0.713057       -19.4033 
  98   2.0000      -0.707985       -19.2653 
  99   2.0000      -0.697700       -18.9854 
 100   2.0000      -0.696304       -18.9474 
 101   2.0000      -0.685145       -18.6437 
 102   2.0000      -0.682485       -18.5714 
 103   2.0000      -0.679886       -18.5006 
 104   2.0000      -0.679343       -18.4859 
 105   2.0000      -0.672807       -18.3080 
 106   2.0000      -0.670462       -18.2442 
 107   2.0000      -0.660828       -17.9821 
 108   2.0000      -0.655479       -17.8365 
 109   2.0000      -0.654404       -17.8072 
 110   2.0000      -0.649949       -17.6860 
 111   2.0000      -0.644201       -17.5296 
 112   2.0000      -0.643804       -17.5188 
 113   2.0000      -0.638615       -17.3776 
 114   2.0000      -0.636858       -17.3298 
 115   2.0000      -0.627034       -17.0625 
 116   2.0000      -0.622317       -16.9341 
 117   2.0000      -0.619317       -16.8525 
 118   2.0000      -0.614226       -16.7139 
 119   2.0000      -0.613266       -16.6878 
 120   2.0000      -0.609945       -16.5974 
 121   2.0000      -0.609467       -16.5844 
 122   2.0000      -0.599423       -16.3111 
 123   2.0000      -0.586299       -15.9540 
 124   2.0000      -0.582819       -15.8593 
 125   2.0000      -0.580450       -15.7949 
 126   2.0000      -0.578889       -15.7524 
 127   2.0000      -0.574075       -15.6214 
 128   2.0000      -0.568759       -15.4767 
 129   2.0000      -0.559206       -15.2168 
 130   2.0000      -0.550914       -14.9911 
 131   2.0000      -0.547713       -14.9040 
 132   2.0000      -0.543298       -14.7839 
 133   2.0000      -0.542213       -14.7544 
 134   2.0000      -0.539461       -14.6795 
 135   2.0000      -0.534717       -14.5504 
 136   2.0000      -0.528560       -14.3829 
 137   2.0000      -0.520915       -14.1748 
 138   2.0000      -0.518306       -14.1038 
 139   2.0000      -0.514235       -13.9930 
 140   2.0000      -0.511819       -13.9273 
 141   2.0000      -0.510662       -13.8958 
 142   2.0000      -0.510030       -13.8786 
 143   2.0000      -0.503802       -13.7092 
 144   2.0000      -0.500832       -13.6283 
 145   2.0000      -0.495762       -13.4904 
 146   2.0000      -0.492818       -13.4103 
 147   2.0000      -0.482526       -13.1302 
 148   2.0000      -0.478204       -13.0126 
 149   2.0000      -0.467082       -12.7099 
 150   2.0000      -0.465946       -12.6790 
 151   2.0000      -0.457170       -12.4402 
 152   2.0000      -0.450590       -12.2612 
 153   2.0000      -0.445863       -12.1326 
 154   2.0000      -0.440778       -11.9942 
 155   2.0000      -0.428137       -11.6502 
 156   2.0000      -0.421967       -11.4823 
 157   2.0000      -0.412881       -11.2351 
 158   2.0000      -0.407336       -11.0842 
 159   2.0000      -0.387322       -10.5396 
 160   2.0000      -0.385861       -10.4998 
 161   2.0000      -0.378036       -10.2869 
 162   2.0000      -0.371419       -10.1068 
 163   2.0000      -0.358267        -9.7489 
 164   2.0000      -0.354342        -9.6421 
 165   2.0000      -0.340763        -9.2726 
 166   2.0000      -0.337874        -9.1940 
 167   2.0000      -0.326375        -8.8811 
 168   2.0000      -0.321870        -8.7585 
 169   2.0000      -0.305667        -8.3176 
 170   2.0000      -0.299366        -8.1462 
 171   2.0000      -0.285197        -7.7606 
 172   2.0000      -0.280314        -7.6277 
 173   2.0000      -0.262704        -7.1485 
 174   2.0000      -0.242463        -6.5978 
 175   2.0000      -0.190102        -5.1729 
 176   2.0000      -0.180642        -4.9155 
 177   2.0000      -0.077828        -2.1178 
 178   2.0000      -0.059027        -1.6062 
 179   0.0000       0.028211         0.7677 
 180   0.0000       0.065552         1.7838 
 181   0.0000       0.090873         2.4728 
 182   0.0000       0.107931         2.9370 
 183   0.0000       0.112373         3.0578 
 184   0.0000       0.135603         3.6899 
 185   0.0000       0.140681         3.8281 
 186   0.0000       0.142343         3.8734 
 187   0.0000       0.163746         4.4558 
 188   0.0000       0.164759         4.4833 
 189   0.0000       0.166864         4.5406 
 190   0.0000       0.172079         4.6825 
 191   0.0000       0.181776         4.9464 
 192   0.0000       0.185194         5.0394 
 193   0.0000       0.188571         5.1313 
 194   0.0000       0.203563         5.5392 
 195   0.0000       0.206768         5.6264 
 196   0.0000       0.206940         5.6311 
 197   0.0000       0.209937         5.7127 
 198   0.0000       0.217829         5.9274 
 199   0.0000       0.227626         6.1940 
 200   0.0000       0.234241         6.3740 
 201   0.0000       0.234979         6.3941 
 202   0.0000       0.238255         6.4832 
 203   0.0000       0.240652         6.5485 
 204   0.0000       0.246840         6.7169 
 205   0.0000       0.255488         6.9522 
 206   0.0000       0.256119         6.9694 
 207   0.0000       0.258408         7.0316 
 208   0.0000       0.260166         7.0795 
 209   0.0000       0.261124         7.1055 
 210   0.0000       0.263562         7.1719 
 211   0.0000       0.266719         7.2578 
 212   0.0000       0.269288         7.3277 
 213   0.0000       0.270546         7.3619 
 214   0.0000       0.272460         7.4140 
 215   0.0000       0.276838         7.5331 
 216   0.0000       0.279017         7.5924 
 217   0.0000       0.280351         7.6287 
 218   0.0000       0.286190         7.7876 
 219   0.0000       0.288376         7.8471 
 220   0.0000       0.289349         7.8736 
 221   0.0000       0.292195         7.9510 
 222   0.0000       0.294557         8.0153 
 223   0.0000       0.295592         8.0435 
 224   0.0000       0.298312         8.1175 
 225   0.0000       0.299466         8.1489 
 226   0.0000       0.304911         8.2971 
 227   0.0000       0.308889         8.4053 
 228   0.0000       0.310025         8.4362 
 229   0.0000       0.324230         8.8227 
 230   0.0000       0.327730         8.9180 
 231   0.0000       0.333436         9.0732 
 232   0.0000       0.338688         9.2162 
 233   0.0000       0.345357         9.3976 
 234   0.0000       0.354481         9.6459 
 235   0.0000       0.356563         9.7026 
 236   0.0000       0.376061        10.2332 
 237   0.0000       0.382299        10.4029 
 238   0.0000       0.392439        10.6788 
 239   0.0000       0.396089        10.7781 
 240   0.0000       0.401163        10.9162 
 241   0.0000       0.409339        11.1387 
 242   0.0000       0.412920        11.2361 
 243   0.0000       0.419444        11.4137 
 244   0.0000       0.427801        11.6410 
 245   0.0000       0.434436        11.8216 
 246   0.0000       0.437131        11.8949 
 247   0.0000       0.439533        11.9603 
 248   0.0000       0.442622        12.0443 
 249   0.0000       0.448287        12.1985 
 250   0.0000       0.458743        12.4830 
 251   0.0000       0.465912        12.6781 
 252   0.0000       0.468352        12.7445 
 253   0.0000       0.470211        12.7951 
 254   0.0000       0.473008        12.8712 
 255   0.0000       0.475624        12.9424 
 256   0.0000       0.475963        12.9516 
 257   0.0000       0.480198        13.0669 
 258   0.0000       0.487123        13.2553 
 259   0.0000       0.496462        13.5094 
 260   0.0000       0.503224        13.6934 
 261   0.0000       0.504258        13.7216 
 262   0.0000       0.507660        13.8141 
 263   0.0000       0.511233        13.9114 
 264   0.0000       0.514653        14.0044 
 265   0.0000       0.517150        14.0724 
 266   0.0000       0.524817        14.2810 
 267   0.0000       0.528707        14.3869 
 268   0.0000       0.534243        14.5375 
 269   0.0000       0.537404        14.6235 
 270   0.0000       0.540184        14.6992 
 271   0.0000       0.545299        14.8383 
 272   0.0000       0.556929        15.1548 
 273   0.0000       0.559169        15.2158 
 274   0.0000       0.561736        15.2856 
 275   0.0000       0.565155        15.3787 
 276   0.0000       0.569739        15.5034 
 277   0.0000       0.573292        15.6001 
 278   0.0000       0.577343        15.7103 
 279   0.0000       0.586285        15.9536 
 280   0.0000       0.589940        16.0531 
 281   0.0000       0.590885        16.0788 
 282   0.0000       0.594682        16.1821 
 283   0.0000       0.595889        16.2150 
 284   0.0000       0.597988        16.2721 
 285   0.0000       0.601346        16.3635 
 286   0.0000       0.608012        16.5449 
 287   0.0000       0.611975        16.6527 
 288   0.0000       0.614642        16.7253 
 289   0.0000       0.626088        17.0367 
 290   0.0000       0.626324        17.0432 
 291   0.0000       0.628726        17.1085 
 292   0.0000       0.635710        17.2985 
 293   0.0000       0.638352        17.3704 
 294   0.0000       0.644970        17.5505 
 295   0.0000       0.648795        17.6546 
 296   0.0000       0.653424        17.7806 
 297   0.0000       0.655994        17.8505 
 298   0.0000       0.662550        18.0289 
 299   0.0000       0.666336        18.1319 
 300   0.0000       0.670658        18.2495 
 301   0.0000       0.674552        18.3555 
 302   0.0000       0.676743        18.4151 
 303   0.0000       0.677747        18.4424 
 304   0.0000       0.680891        18.5280 
 305   0.0000       0.684808        18.6346 
 306   0.0000       0.689561        18.7639 
 307   0.0000       0.691448        18.8153 
 308   0.0000       0.696113        18.9422 
 309   0.0000       0.698574        19.0092 
 310   0.0000       0.701652        19.0929 
 311   0.0000       0.704506        19.1706 
 312   0.0000       0.708237        19.2721 
 313   0.0000       0.710569        19.3356 
 314   0.0000       0.711750        19.3677 
 315   0.0000       0.714408        19.4400 
 316   0.0000       0.717049        19.5119 
 317   0.0000       0.718950        19.5636 
 318   0.0000       0.721414        19.6307 
 319   0.0000       0.723339        19.6830 
 320   0.0000       0.727851        19.8058 
 321   0.0000       0.729640        19.8545 
 322   0.0000       0.731157        19.8958 
 323   0.0000       0.733439        19.9579 
 324   0.0000       0.737609        20.0714 
 325   0.0000       0.741461        20.1762 
 326   0.0000       0.744195        20.2506 
 327   0.0000       0.748580        20.3699 
 328   0.0000       0.751949        20.4616 
 329   0.0000       0.753189        20.4953 
 330   0.0000       0.755966        20.5709 
 331   0.0000       0.758272        20.6336 
 332   0.0000       0.761065        20.7096 
 333   0.0000       0.763552        20.7773 
 334   0.0000       0.768704        20.9175 
 335   0.0000       0.771845        21.0030 
 336   0.0000       0.775560        21.1041 
 337   0.0000       0.782073        21.2813 
 338   0.0000       0.785696        21.3799 
 339   0.0000       0.788131        21.4461 
 340   0.0000       0.789863        21.4933 
 341   0.0000       0.794407        21.6169 
 342   0.0000       0.796493        21.6737 
 343   0.0000       0.802917        21.8485 
 344   0.0000       0.805354        21.9148 
 345   0.0000       0.807382        21.9700 
 346   0.0000       0.808021        21.9874 
 347   0.0000       0.812628        22.1127 
 348   0.0000       0.816778        22.2257 
 349   0.0000       0.817416        22.2430 
 350   0.0000       0.818618        22.2757 
 351   0.0000       0.818898        22.2833 
 352   0.0000       0.823262        22.4021 
 353   0.0000       0.826605        22.4931 
 354   0.0000       0.828793        22.5526 
 355   0.0000       0.830694        22.6043 
 356   0.0000       0.832879        22.6638 
 357   0.0000       0.836340        22.7580 
 358   0.0000       0.837770        22.7969 
 359   0.0000       0.839899        22.8548 
 360   0.0000       0.841462        22.8973 
 361   0.0000       0.842787        22.9334 
 362   0.0000       0.844220        22.9724 
 363   0.0000       0.847841        23.0709 
 364   0.0000       0.848237        23.0817 
 365   0.0000       0.855067        23.2676 
 366   0.0000       0.857060        23.3218 
 367   0.0000       0.862560        23.4714 
 368   0.0000       0.864566        23.5260 
 369   0.0000       0.866091        23.5675 
 370   0.0000       0.870661        23.6919 
 371   0.0000       0.871263        23.7083 
 372   0.0000       0.874114        23.7859 
 373   0.0000       0.877654        23.8822 
 374   0.0000       0.879288        23.9267 
 375   0.0000       0.881245        23.9799 
 376   0.0000       0.887513        24.1505 
 377   0.0000       0.887998        24.1637 
 378   0.0000       0.892088        24.2750 
 379   0.0000       0.895081        24.3564 
 380   0.0000       0.897056        24.4101 
 381   0.0000       0.898067        24.4377 
 382   0.0000       0.900007        24.4904 
 383   0.0000       0.902117        24.5479 
 384   0.0000       0.904594        24.6153 
 385   0.0000       0.905627        24.6434 
 386   0.0000       0.907769        24.7017 
 387   0.0000       0.909495        24.7486 
 388   0.0000       0.912328        24.8257 
 389   0.0000       0.915167        24.9030 
 390   0.0000       0.920681        25.0530 
 391   0.0000       0.924245        25.1500 
 392   0.0000       0.925165        25.1750 
 393   0.0000       0.927576        25.2406 
 394   0.0000       0.929201        25.2848 
 395   0.0000       0.930603        25.3230 
 396   0.0000       0.935103        25.4454 
 397   0.0000       0.939600        25.5678 
 398   0.0000       0.942376        25.6434 
 399   0.0000       0.945072        25.7167 
 400   0.0000       0.945615        25.7315 
 401   0.0000       0.952114        25.9083 
 402   0.0000       0.952940        25.9308 
 403   0.0000       0.953599        25.9488 
 404   0.0000       0.960590        26.1390 
 405   0.0000       0.964541        26.2465 
 406   0.0000       0.967715        26.3329 
 407   0.0000       0.973528        26.4910 
 408   0.0000       0.976758        26.5789 
 409   0.0000       0.979316        26.6486 
 410   0.0000       0.981942        26.7200 
 411   0.0000       0.986012        26.8308 
 412   0.0000       0.992131        26.9972 
 413   0.0000       1.001234        27.2449 
 414   0.0000       1.003642        27.3105 
 415   0.0000       1.009596        27.4725 
 416   0.0000       1.010332        27.4925 
 417   0.0000       1.014478        27.6053 
 418   0.0000       1.018906        27.7258 
 419   0.0000       1.024974        27.8910 
 420   0.0000       1.030641        28.0452 
 421   0.0000       1.033827        28.1319 
 422   0.0000       1.044317        28.4173 
 423   0.0000       1.047205        28.4959 
 424   0.0000       1.051496        28.6127 
 425   0.0000       1.060950        28.8699 
 426   0.0000       1.069044        29.0902 
 427   0.0000       1.070466        29.1289 
 428   0.0000       1.076939        29.3050 
 429   0.0000       1.080213        29.3941 
 430   0.0000       1.082329        29.4517 
 431   0.0000       1.084869        29.5208 
 432   0.0000       1.091069        29.6895 
 433   0.0000       1.096749        29.8441 
 434   0.0000       1.097903        29.8755 
 435   0.0000       1.104025        30.0420 
 436   0.0000       1.109823        30.1998 
 437   0.0000       1.112440        30.2710 
 438   0.0000       1.113954        30.3122 
 439   0.0000       1.118271        30.4297 
 440   0.0000       1.121439        30.5159 
 441   0.0000       1.122656        30.5490 
 442   0.0000       1.127009        30.6675 
 443   0.0000       1.130992        30.7759 
 444   0.0000       1.132303        30.8115 
 445   0.0000       1.135406        30.8960 
 446   0.0000       1.141460        31.0607 
 447   0.0000       1.148604        31.2551 
 448   0.0000       1.149526        31.2802 
 449   0.0000       1.153937        31.4002 
 450   0.0000       1.155945        31.4549 
 451   0.0000       1.158008        31.5110 
 452   0.0000       1.162620        31.6365 
 453   0.0000       1.166346        31.7379 
 454   0.0000       1.167962        31.7819 
 455   0.0000       1.173171        31.9236 
 456   0.0000       1.176174        32.0053 
 457   0.0000       1.180809        32.1314 
 458   0.0000       1.185292        32.2534 
 459   0.0000       1.190943        32.4072 
 460   0.0000       1.195537        32.5322 
 461   0.0000       1.198808        32.6212 
 462   0.0000       1.202492        32.7215 
 463   0.0000       1.204365        32.7725 
 464   0.0000       1.206678        32.8354 
 465   0.0000       1.210279        32.9334 
 466   0.0000       1.213749        33.0278 
 467   0.0000       1.217761        33.1370 
 468   0.0000       1.222588        33.2683 
 469   0.0000       1.227295        33.3964 
 470   0.0000       1.229957        33.4688 
 471   0.0000       1.234204        33.5844 
 472   0.0000       1.235566        33.6215 
 473   0.0000       1.238381        33.6981 
 474   0.0000       1.242086        33.7989 
 475   0.0000       1.242835        33.8193 
 476   0.0000       1.249290        33.9949 
 477   0.0000       1.251907        34.0661 
 478   0.0000       1.254162        34.1275 
 479   0.0000       1.254709        34.1424 
 480   0.0000       1.259351        34.2687 
 481   0.0000       1.263079        34.3701 
 482   0.0000       1.270948        34.5843 
 483   0.0000       1.273475        34.6530 
 484   0.0000       1.274165        34.6718 
 485   0.0000       1.279832        34.8260 
 486   0.0000       1.282699        34.9040 
 487   0.0000       1.284343        34.9488 
 488   0.0000       1.289348        35.0849 
 489   0.0000       1.293257        35.1913 
 490   0.0000       1.296270        35.2733 
 491   0.0000       1.300447        35.3870 
 492   0.0000       1.301004        35.4021 
 493   0.0000       1.306383        35.5485 
 494   0.0000       1.310638        35.6643 
 495   0.0000       1.314094        35.7583 
 496   0.0000       1.318594        35.8808 
 497   0.0000       1.322583        35.9893 
 498   0.0000       1.323948        36.0265 
 499   0.0000       1.327255        36.1165 
 500   0.0000       1.329601        36.1803 
 501   0.0000       1.335636        36.3445 
 502   0.0000       1.341404        36.5015 
 503   0.0000       1.343246        36.5516 
 504   0.0000       1.344380        36.5824 
 505   0.0000       1.348906        36.7056 
 506   0.0000       1.351465        36.7752 
 507   0.0000       1.355356        36.8811 
 508   0.0000       1.358792        36.9746 
[...]
 76 H s       :     0.885741  s :     0.885741
      pz      :     0.022109  p :     0.079775
      px      :     0.043602
      py      :     0.014063
 77 H s       :     0.884779  s :     0.884779
      pz      :     0.047963  p :     0.079271
      px      :     0.015023
      py      :     0.016285
 78 H s       :     0.885175  s :     0.885175
      pz      :     0.025873  p :     0.079231
      px      :     0.020459
      py      :     0.032899
 79 H s       :     0.910419  s :     0.910419
      pz      :     0.021814  p :     0.086352
      px      :     0.021667
      py      :     0.042870
 80 H s       :     0.864864  s :     0.864864
      pz      :     0.039361  p :     0.084801
      px      :     0.030275
      py      :     0.015165
 81 H s       :     0.887011  s :     0.887011
      pz      :     0.037808  p :     0.084103
      px      :     0.016190
      py      :     0.030104
 82 H s       :     0.916170  s :     0.916170
      pz      :     0.021976  p :     0.086724
      px      :     0.031629
      py      :     0.033118
 83 H s       :     0.873748  s :     0.873748
      pz      :     0.039240  p :     0.084055
      px      :     0.015283
      py      :     0.029532
 84 H s       :     0.887042  s :     0.887042
      pz      :     0.035748  p :     0.083450
      px      :     0.031685
      py      :     0.016017
 85 H s       :     0.893163  s :     0.893163
      pz      :     0.022483  p :     0.079770
      px      :     0.014081
      py      :     0.043205
 86 H s       :     0.891207  s :     0.891207
      pz      :     0.024722  p :     0.078811
      px      :     0.032966
      py      :     0.021123
 87 H s       :     0.890029  s :     0.890029
      pz      :     0.048001  p :     0.078723
      px      :     0.015586
      py      :     0.015136
 88 H s       :     0.910714  s :     0.910714
      pz      :     0.021680  p :     0.087038
      px      :     0.042903
      py      :     0.022455
 89 H s       :     0.871242  s :     0.871242
      pz      :     0.037948  p :     0.083837
      px      :     0.030480
      py      :     0.015408


                      *****************************
                      * MAYER POPULATION ANALYSIS *
                      *****************************

  NA   - Mulliken gross atomic population
  ZA   - Total nuclear charge
  QA   - Mulliken gross atomic charge
  VA   - Mayer's total valence
  BVA  - Mayer's bonded valence
  FA   - Mayer's free valence

  ATOM       NA         ZA         QA         VA         BVA        FA
  0 C      5.7851     6.0000     0.2149     3.8467     3.8467     0.0000
  1 N      7.4567     7.0000    -0.4567     3.3319     3.3319     0.0000
  2 C      6.0719     6.0000    -0.0719     3.9228     3.9228    -0.0000
  3 N      7.3387     7.0000    -0.3387     3.4591     3.4591     0.0000
  4 C      6.0566     6.0000    -0.0566     4.0595     4.0595    -0.0000
  5 N      7.5639     7.0000    -0.5639     3.0966     3.0966     0.0000
  6 C      6.1160     6.0000    -0.1160     3.9780     3.9780    -0.0000
  7 N      7.3407     7.0000    -0.3407     3.4330     3.4330     0.0000
  8 C      5.7931     6.0000     0.2069     3.8414     3.8414     0.0000
  9 N      7.5625     7.0000    -0.5625     3.0778     3.0778    -0.0000
 10 C      5.8805     6.0000     0.1195     3.9098     3.9098     0.0000
 11 N      7.4380     7.0000    -0.4380     3.3804     3.3804     0.0000
 12 C      6.0737     6.0000    -0.0737     3.8814     3.8814    -0.0000
 13 N      7.4300     7.0000    -0.4300     3.4254     3.4254     0.0000
 14 C      5.7831     6.0000     0.2169     3.7868     3.7868    -0.0000
 15 N      7.4414     7.0000    -0.4414     3.3702     3.3702     0.0000
 16 C      5.7687     6.0000     0.2313     3.7773     3.7773    -0.0000
 17 C      6.1275     6.0000    -0.1275     3.9819     3.9819    -0.0000
 18 C      6.1564     6.0000    -0.1564     3.7520     3.7520    -0.0000
 19 C      5.7970     6.0000     0.2030     3.8660     3.8660    -0.0000
 20 C      5.7857     6.0000     0.2143     3.8286     3.8286    -0.0000
 21 C      6.0873     6.0000    -0.0873     3.8761     3.8761    -0.0000
 22 C      6.0893     6.0000    -0.0893     3.9819     3.9819     0.0000
 23 C      6.0402     6.0000    -0.0402     3.9924     3.9924    -0.0000
 24 C      5.8049     6.0000     0.1951     3.8213     3.8213    -0.0000
 25 C      5.8857     6.0000     0.1143     3.8907     3.8907     0.0000
 26 C      6.0830     6.0000    -0.0830     3.9061     3.9061     0.0000
 27 C      5.7875     6.0000     0.2125     3.8617     3.8617     0.0000
 28 C      6.0610     6.0000    -0.0610     3.9888     3.9888    -0.0000
 29 C      6.1818     6.0000    -0.1818     3.7464     3.7464     0.0000
 30 C      5.7545     6.0000     0.2455     3.7986     3.7986     0.0000
 31 C      5.7700     6.0000     0.2300     3.8180     3.8180    -0.0000
 32 C      6.0614     6.0000    -0.0614     3.9235     3.9235     0.0000
 33 C      6.0617     6.0000    -0.0617     3.9722     3.9722    -0.0000
 34 C      6.0501     6.0000    -0.0501     3.9842     3.9842     0.0000
 35 C      5.7739     6.0000     0.2261     3.8169     3.8169    -0.0000
 36 C      5.8914     6.0000     0.1086     3.8757     3.8757     0.0000
 37 C      6.0644     6.0000    -0.0644     3.9175     3.9175     0.0000
 38 C      5.7677     6.0000     0.2323     3.8019     3.8019    -0.0000
 39 C      6.0587     6.0000    -0.0587     3.9835     3.9835    -0.0000
 40 C      6.1811     6.0000    -0.1811     3.7275     3.7275     0.0000
 41 C      5.7754     6.0000     0.2246     3.8865     3.8865     0.0000
 42 C      5.8029     6.0000     0.1971     3.8261     3.8261    -0.0000
 43 C      6.0727     6.0000    -0.0727     3.8999     3.8999    -0.0000
 44 C      6.0908     6.0000    -0.0908     3.9858     3.9858    -0.0000
 45 C      6.0612     6.0000    -0.0612     3.9920     3.9920     0.0000
 46 C      5.7899     6.0000     0.2101     3.8287     3.8287     0.0000
 47 C      5.8844     6.0000     0.1156     3.8936     3.8936     0.0000
 48 C      6.0676     6.0000    -0.0676     3.9091     3.9091     0.0000
 49 C      5.7622     6.0000     0.2378     3.8950     3.8950    -0.0000
 50 C      6.0466     6.0000    -0.0466     3.9904     3.9904    -0.0000
 51 C      6.1946     6.0000    -0.1946     3.7368     3.7368    -0.0000
 52 H      0.9617     1.0000     0.0383     0.9858     0.9858    -0.0000
 53 H      1.0174     1.0000    -0.0174     0.9987     0.9987    -0.0000
 54 H      0.9468     1.0000     0.0532     1.0213     1.0213    -0.0000
 55 H      0.9638     1.0000     0.0362     0.9868     0.9868    -0.0000
 56 H      0.9514     1.0000     0.0486     0.9695     0.9695    -0.0000
 57 H      0.9517     1.0000     0.0483     0.9824     0.9824    -0.0000
 58 H      0.9536     1.0000     0.0464     0.9850     0.9850    -0.0000
 59 H      1.0001     1.0000    -0.0001     1.0026     1.0026    -0.0000
 60 H      0.9500     1.0000     0.0500     1.0159     1.0159    -0.0000
 61 H      0.8291     1.0000     0.1709     1.0419     1.0419     0.0000
 62 H      0.8244     1.0000     0.1756     1.0436     1.0436     0.0000
 63 H      0.9439     1.0000     0.0561     0.9852     0.9852     0.0000
 64 H      1.0053     1.0000    -0.0053     0.9960     0.9960    -0.0000
 65 H      0.9530     1.0000     0.0470     1.0099     1.0099    -0.0000
 66 H      0.9438     1.0000     0.0562     0.9854     0.9854     0.0000
 67 H      0.9369     1.0000     0.0631     0.9720     0.9720     0.0000
 68 H      0.9424     1.0000     0.0576     0.9868     0.9868    -0.0000
 69 H      0.9431     1.0000     0.0569     0.9828     0.9828    -0.0000
 70 H      1.0291     1.0000    -0.0291     0.9934     0.9934     0.0000
 71 H      0.9543     1.0000     0.0457     1.0059     1.0059    -0.0000
 72 H      0.9294     1.0000     0.0706     0.9836     0.9836     0.0000
 73 H      1.0081     1.0000    -0.0081     1.0008     1.0008    -0.0000
 74 H      0.9402     1.0000     0.0598     1.0102     1.0102    -0.0000
 75 H      0.9301     1.0000     0.0699     0.9840     0.9840     0.0000
 76 H      0.9257     1.0000     0.0743     0.9721     0.9721    -0.0000
 77 H      0.9325     1.0000     0.0675     0.9855     0.9855     0.0000
 78 H      0.9333     1.0000     0.0667     0.9854     0.9854     0.0000
 79 H      1.0160     1.0000    -0.0160     0.9977     0.9977    -0.0000
 80 H      0.9395     1.0000     0.0605     1.0072     1.0072    -0.0000
 81 H      0.9461     1.0000     0.0539     0.9857     0.9857     0.0000
 82 H      1.0252     1.0000    -0.0252     0.9933     0.9933    -0.0000
 83 H      0.9588     1.0000     0.0412     1.0083     1.0083     0.0000
 84 H      0.9466     1.0000     0.0534     0.9853     0.9853    -0.0000
 85 H      0.9398     1.0000     0.0602     0.9716     0.9716    -0.0000
 86 H      0.9449     1.0000     0.0551     0.9839     0.9839    -0.0000
 87 H      0.9431     1.0000     0.0569     0.9856     0.9856     0.0000
 88 H      1.0148     1.0000    -0.0148     0.9967     0.9967    -0.0000
 89 H      0.9533     1.0000     0.0467     1.0072     1.0072     0.0000

  Mayer bond orders larger than 0.100000
B(  0-C ,  1-N ) :   1.0959 B(  0-C , 17-C ) :   1.7107 B(  0-C , 52-H ) :   0.9650 
B(  1-N ,  8-C ) :   1.0841 B(  1-N , 10-C ) :   0.9784 B(  2-C , 12-C ) :   1.4996 
B(  2-C , 16-C ) :   1.3620 B(  2-C , 53-H ) :   0.9751 B(  3-N , 14-C ) :   1.2189 
B(  3-N , 16-C ) :   1.1886 B(  3-N , 61-H ) :   0.8993 B(  4-C ,  6-C ) :   1.2117 
B(  4-C , 17-C ) :   1.2107 B(  4-C , 18-C ) :   1.4521 B(  5-N , 19-C ) :   1.4547 
B(  5-N , 27-C ) :   1.3767 B(  6-C ,  8-C ) :   1.7157 B(  6-C , 54-H ) :   0.9433 
B(  7-N , 30-C ) :   1.1944 B(  7-N , 38-C ) :   1.1912 B(  7-N , 62-H ) :   0.8967 
B(  8-C , 55-H ) :   0.9665 B(  9-N , 41-C ) :   1.3926 B(  9-N , 49-C ) :   1.4276 
B( 10-C , 56-H ) :   0.9771 B( 10-C , 57-H ) :   0.9832 B( 10-C , 58-H ) :   0.9835 
B( 11-N , 20-C ) :   1.1320 B( 11-N , 24-C ) :   1.1092 B( 11-N , 25-C ) :   0.9593 
B( 12-C , 14-C ) :   1.3579 B( 12-C , 59-H ) :   0.9678 B( 13-N , 31-C ) :   1.1604 
B( 13-N , 35-C ) :   1.1565 B( 13-N , 36-C ) :   0.9424 B( 14-C , 18-C ) :   1.1241 
B( 15-N , 42-C ) :   1.1068 B( 15-N , 46-C ) :   1.1222 B( 15-N , 47-C ) :   0.9621 
B( 16-C , 51-C ) :   1.1693 B( 17-C , 60-H ) :   0.9429 B( 18-C , 19-C ) :   1.1243 
B( 19-C , 21-C ) :   1.2486 B( 20-C , 28-C ) :   1.6267 B( 20-C , 63-H ) :   0.9702 
B( 21-C , 26-C ) :   1.6007 B( 21-C , 64-H ) :   0.9666 B( 22-C , 23-C ) :   1.2907 
B( 22-C , 28-C ) :   1.2660 B( 22-C , 29-C ) :   1.2222 B( 23-C , 24-C ) :   1.6182 
B( 23-C , 65-H ) :   0.9704 B( 24-C , 66-H ) :   0.9695 B( 25-C , 67-H ) :   0.9760 
B( 25-C , 68-H ) :   0.9828 B( 25-C , 69-H ) :   0.9823 B( 26-C , 27-C ) :   1.2458 
B( 26-C , 70-H ) :   0.9692 B( 27-C , 29-C ) :   1.2104 B( 28-C , 71-H ) :   0.9719 
B( 29-C , 30-C ) :   1.2453 B( 30-C , 32-C ) :   1.2795 B( 31-C , 39-C ) :   1.5904 
B( 31-C , 72-H ) :   0.9682 B( 32-C , 37-C ) :   1.5798 B( 32-C , 73-H ) :   0.9785 
B( 33-C , 34-C ) :   1.3065 B( 33-C , 39-C ) :   1.3012 B( 33-C , 40-C ) :   1.1787 
B( 34-C , 35-C ) :   1.5872 B( 34-C , 74-H ) :   0.9696 B( 35-C , 75-H ) :   0.9682 
B( 36-C , 76-H ) :   0.9767 B( 36-C , 77-H ) :   0.9816 B( 36-C , 78-H ) :   0.9824 
B( 37-C , 38-C ) :   1.2844 B( 37-C , 79-H ) :   0.9766 B( 38-C , 40-C ) :   1.2339 
B( 39-C , 80-H ) :   0.9706 B( 40-C , 41-C ) :   1.2489 B( 41-C , 43-C ) :   1.1876 
B( 42-C , 50-C ) :   1.6353 B( 42-C , 81-H ) :   0.9697 B( 43-C , 48-C ) :   1.6647 
B( 43-C , 82-H ) :   0.9721 B( 44-C , 45-C ) :   1.2623 B( 44-C , 50-C ) :   1.2701 
B( 44-C , 51-C ) :   1.2645 B( 45-C , 46-C ) :   1.6364 B( 45-C , 83-H ) :   0.9718 
B( 46-C , 84-H ) :   0.9701 B( 47-C , 85-H ) :   0.9762 B( 47-C , 86-H ) :   0.9829 
B( 47-C , 87-H ) :   0.9825 B( 48-C , 49-C ) :   1.1911 B( 48-C , 88-H ) :   0.9749 
B( 49-C , 51-C ) :   1.2400 B( 50-C , 89-H ) :   0.9709 

-------
TIMINGS
-------

Total SCF time: 0 days 0 hours 44 min 1 sec 

Total time                  ....    2641.221 sec
Sum of individual times     ....    2638.298 sec  ( 99.9%)

Fock matrix formation       ....    2620.759 sec  ( 99.2%)
Diagonalization             ....       4.736 sec  (  0.2%)
Density matrix formation    ....       0.484 sec  (  0.0%)
Population analysis         ....       0.302 sec  (  0.0%)
Initial guess               ....       2.350 sec  (  0.1%)
Orbital Transformation      ....       0.000 sec  (  0.0%)
Orbital Orthonormalization  ....       0.000 sec  (  0.0%)
DIIS solution               ....       2.504 sec  (  0.1%)
SOSCF solution              ....       5.815 sec  (  0.2%)

Maximum memory used throughout the entire SCF-calculation: 304.2 MB


           ************************************************************
           *        Program running with 8 parallel MPI-processes     *
           *              working on a common directory               *
           ************************************************************

------------------------------------------------------------------------------
                                ORCA  MP2 
------------------------------------------------------------------------------

Freezing NCore=104 chemical core electrons

----------
MP2 ENERGY (disk based algorithm)
----------

Dimension of the basis                    ...  918
Memory devoted to MP2                     ... 7000 MB   
Data format for buffers                   ... DOUBLE
Compression type for matrix containers    ... UNCOMPRESSED

-------------------------------
PARTIAL EXCHANGE TRANSFORMATION
-------------------------------

Transformation type                        ... one-operator
Generation of integrals (i,mue|j,nue)      ... ON
Generation of integrals (mue,kappa|nue,tau)... OFF
Generation of integrals (i,mue|a,nue)      ... OFF
Dimension of the basis                     ...  918
Number of internal MOs                     ...  127 (  52- 178)
Pair cutoff                                ... 2.500e-12 Eh
Number of AO pairs in the trafo            ... 421821
Total Number of distinct AO pairs          ... 421821
Memory devoted for trafo                   ... 7000.0 MB 
Max. Number of MO pairs treated together   ... 1088      
Number Format for Storage                  ... Double (8 Byte)
Integral package used                      ... LIBINT

Starting integral evaluation:
    ... done with AO integral generation
Closing buffer AOK     (38.27 GB; CompressionRatio= 1.32)
Collecting buffer AOK 
Number of MO pairs included in the trafo   ... 8128
------------------------
SORTING OF (i,mue|j,nue)
------------------------

IBATCH = 1 of  1
Closing buffer KAO     (51.03 GB; CompressionRatio= 1.00)
Collecting buffer KAO 
N(AO-Batches) Done                         ... 174836887 
N(AO-Batches) Skipped                      ... 167241589 
N(IJ)-pairs Skipped                        ...         0 
TOTAL TIME for half transformation         ...  1093.466 sec
AO-integral generation                     ...   253.426 sec
Half transformation                        ...   470.094 sec
K-integral sorting                         ...    94.448 sec

Finished integral transformation - now doing MP2 part

OPERATOR COMBINATION   0   0: ij=( 52..178, 52..178)
Process 5:   Internal MO 132
Process 2:   Internal MO  84
Process 0:   Internal MO  54
Process 0:   Internal MO  57
Process 1:   Internal MO  69
Process 0:   Internal MO  60
Process 4:   Internal MO 117
Process 0:   Internal MO  63
Process 1:   Internal MO  72
Process 3:   Internal MO 102
Process 2:   Internal MO  87
Process 0:   Internal MO  66
Process 7:   Internal MO 165
Process 1:   Internal MO  75
Process 6:   Internal MO 150
Process 2:   Internal MO  90
Process 1:   Internal MO  78
Process 5:   Internal MO 135
Process 3:   Internal MO 105
Process 4:   Internal MO 120
Process 1:   Internal MO  81
Process 2:   Internal MO  93
Process 3:   Internal MO 108
Process 7:   Internal MO 168
Process 2:   Internal MO  96
Process 4:   Internal MO 123
Process 6:   Internal MO 153
Process 5:   Internal MO 138
Process 3:   Internal MO 111
Process 2:   Internal MO  99
Process 4:   Internal MO 126
Process 5:   Internal MO 141
Process 3:   Internal MO 114
Process 6:   Internal MO 156
Process 7:   Internal MO 171
Process 4:   Internal MO 129
Process 5:   Internal MO 144
Process 6:   Internal MO 159
Process 7:   Internal MO 174
Process 5:   Internal MO 147
Process 6:   Internal MO 162
Process 7:   Internal MO 177
-----------------------------------------------
 MP2 CORRELATION ENERGY   :     -7.282796458 Eh
-----------------------------------------------


-------
TIMINGS
-------
Total time                : 1253.021 sec
Integral trafo            : 1102.986 sec ( 88.0%)
K(i,j)                    :    9.806 sec (  0.8%)
T(i,j)                    :    0.178 sec (  0.0%)

---------------------------------------
MP2 TOTAL ENERGY:    -2130.869645885 Eh
---------------------------------------

Maximum memory used throughout the entire MP2-calculation: 6735.8 MB

-------------------------   --------------------
FINAL SINGLE POINT ENERGY     -2130.869645884599
-------------------------   --------------------


                            ***************************************
                            *     ORCA property calculations      *
                            ***************************************


  WARNING: The energy has been calculated at the MP2 level but the densities
           used in the property calculations are still SCF densities
           MP2 response densities have not been calculated 
           use %mp2 Density relaxed end
           or  %mp2 Density unrelaxed end

                                    ---------------------
                                    Active property flags
                                    ---------------------
   (+) Dipole Moment


------------------------------------------------------------------------------
                       ORCA ELECTRIC PROPERTIES CALCULATION
------------------------------------------------------------------------------

Dipole Moment Calculation                       ... on
Quadrupole Moment Calculation                   ... off
Polarizability Calculation                      ... off
GBWName                                         ... /scratch/chu_02/allen/tmpyp4_amber_gaff2/conf1/conf1/Conf338.orca.gbw
Electron density                                ... /scratch/chu_02/allen/tmpyp4_amber_gaff2/conf1/conf1/Conf338.orca.scfp
The origin for moment calculation is the CENTER OF MASS  = (-0.001383, -0.005018  0.000838)

-------------
DIPOLE MOMENT
-------------
                                X             Y             Z
Electronic contribution:      2.47990      -4.26218      -0.06808
Nuclear contribution   :     -0.01518       0.17710       0.07808
                        -----------------------------------------
Total Dipole Moment    :      2.46472      -4.08507       0.01001
                        -----------------------------------------
Magnitude (a.u.)       :      4.77103
Magnitude (Debye)      :     12.12700



--------------------
Rotational spectrum 
--------------------
 
Rotational constants in cm-1:     0.001503     0.001477     0.000760 
Rotational constants in MHz :    45.048915    44.270637    22.794785 

 Dipole components along the rotational axes: 
x,y,z [a.u.] :     3.257135    -3.486210     0.012424 
x,y,z [Debye]:     8.278979    -8.861242     0.031579 

 

Timings for individual modules:

Sum of individual times         ...     3899.680 sec (=  64.995 min)
GTO integral calculation        ...        2.868 sec (=   0.048 min)   0.1 %
SCF iterations                  ...     2642.484 sec (=  44.041 min)  67.8 %
MP2 module                      ...     1254.329 sec (=  20.905 min)  32.2 %
                             ****ORCA TERMINATED NORMALLY****
TOTAL RUN TIME: 0 days 1 hours 5 minutes 2 seconds 140 msec
# of primitive gaussian functions

