
                                 *****************
                                 * O   R   C   A *
                                 *****************

                                            #,                                       
                                            ###                                      
                                            ####                                     
                                            #####                                    
                                            ######                                   
                                           ########,                                 
                                     ,,################,,,,,                         
                               ,,#################################,,                 
                          ,,##########################################,,             
                       ,#########################################, ''#####,          
                    ,#############################################,,   '####,        
                  ,##################################################,,,,####,       
                ,###########''''           ''''###############################       
              ,#####''   ,,,,##########,,,,          '''####'''          '####       
            ,##' ,,,,###########################,,,                        '##       
           ' ,,###''''                  '''############,,,                           
         ,,##''                                '''############,,,,        ,,,,,,###''
      ,#''                                            '''#######################'''  
     '                                                          ''''####''''         
             ,#######,   #######,   ,#######,      ##                                
            ,#'     '#,  ##    ##  ,#'     '#,    #''#        ######   ,####,        
            ##       ##  ##   ,#'  ##            #'  '#       #        #'  '#        
            ##       ##  #######   ##           ,######,      #####,   #    #        
            '#,     ,#'  ##    ##  '#,     ,#' ,#      #,         ##   #,  ,#        
             '#######'   ##     ##  '#######'  #'      '#     #####' # '####'        



                  #######################################################
                  #                        -***-                        #
                  #          Department of theory and spectroscopy      #
                  #    Directorship and core code : Frank Neese         #
                  #        Max Planck Institute fuer Kohlenforschung    #
                  #                Kaiser Wilhelm Platz 1               #
                  #                 D-45470 Muelheim/Ruhr               #
                  #                      Germany                        #
                  #                                                     #
                  #                  All rights reserved                #
                  #                        -***-                        #
                  #######################################################


                         Program Version 5.0.4 -  RELEASE  -


 With contributions from (in alphabetic order):
   Daniel Aravena         : Magnetic Suceptibility
   Michael Atanasov       : Ab Initio Ligand Field Theory (pilot matlab implementation)
   Alexander A. Auer      : GIAO ZORA, VPT2 properties, NMR spectrum
   Ute Becker             : Parallelization
   Giovanni Bistoni       : ED, misc. LED, open-shell LED, HFLD
   Martin Brehm           : Molecular dynamics
   Dmytro Bykov           : SCF Hessian
   Vijay G. Chilkuri      : MRCI spin determinant printing, contributions to CSF-ICE
   Dipayan Datta          : RHF DLPNO-CCSD density
   Achintya Kumar Dutta   : EOM-CC, STEOM-CC
   Dmitry Ganyushin       : Spin-Orbit,Spin-Spin,Magnetic field MRCI
   Miquel Garcia          : C-PCM and meta-GGA Hessian, CC/C-PCM, Gaussian charge scheme
   Yang Guo               : DLPNO-NEVPT2, F12-NEVPT2, CIM, IAO-localization
   Andreas Hansen         : Spin unrestricted coupled pair/coupled cluster methods
   Benjamin Helmich-Paris : MC-RPA, TRAH-SCF, COSX integrals
   Lee Huntington         : MR-EOM, pCC
   Robert Izsak           : Overlap fitted RIJCOSX, COSX-SCS-MP3, EOM
   Marcus Kettner         : VPT2
   Christian Kollmar      : KDIIS, OOCD, Brueckner-CCSD(T), CCSD density, CASPT2, CASPT2-K
   Simone Kossmann        : Meta GGA functionals, TD-DFT gradient, OOMP2, MP2 Hessian
   Martin Krupicka        : Initial AUTO-CI
   Lucas Lang             : DCDCAS
   Marvin Lechner         : AUTO-CI (C++ implementation), FIC-MRCC
   Dagmar Lenk            : GEPOL surface, SMD
   Dimitrios Liakos       : Extrapolation schemes; Compound Job, initial MDCI parallelization
   Dimitrios Manganas     : Further ROCIS development; embedding schemes
   Dimitrios Pantazis     : SARC Basis sets
   Anastasios Papadopoulos: AUTO-CI, single reference methods and gradients
   Taras Petrenko         : DFT Hessian,TD-DFT gradient, ASA, ECA, R-Raman, ABS, FL, XAS/XES, NRVS
   Peter Pinski           : DLPNO-MP2, DLPNO-MP2 Gradient
   Christoph Reimann      : Effective Core Potentials
   Marius Retegan         : Local ZFS, SOC
   Christoph Riplinger    : Optimizer, TS searches, QM/MM, DLPNO-CCSD(T), (RO)-DLPNO pert. Triples
   Tobias Risthaus        : Range-separated hybrids, TD-DFT gradient, RPA, STAB
   Michael Roemelt        : Original ROCIS implementation
   Masaaki Saitow         : Open-shell DLPNO-CCSD energy and density
   Barbara Sandhoefer     : DKH picture change effects
   Avijit Sen             : IP-ROCIS
   Kantharuban Sivalingam : CASSCF convergence, NEVPT2, FIC-MRCI
   Bernardo de Souza      : ESD, SOC TD-DFT
   Georgi Stoychev        : AutoAux, RI-MP2 NMR, DLPNO-MP2 response
   Willem Van den Heuvel  : Paramagnetic NMR
   Boris Wezisla          : Elementary symmetry handling
   Frank Wennmohs         : Technical directorship


 We gratefully acknowledge several colleagues who have allowed us to
 interface, adapt or use parts of their codes:
   Stefan Grimme, W. Hujo, H. Kruse, P. Pracht,  : VdW corrections, initial TS optimization,
                  C. Bannwarth, S. Ehlert          DFT functionals, gCP, sTDA/sTD-DF
   Ed Valeev, F. Pavosevic, A. Kumar             : LibInt (2-el integral package), F12 methods
   Garnet Chan, S. Sharma, J. Yang, R. Olivares  : DMRG
   Ulf Ekstrom                                   : XCFun DFT Library
   Mihaly Kallay                                 : mrcc  (arbitrary order and MRCC methods)
   Jiri Pittner, Ondrej Demel                    : Mk-CCSD
   Frank Weinhold                                : gennbo (NPA and NBO analysis)
   Christopher J. Cramer and Donald G. Truhlar   : smd solvation model
   Lars Goerigk                                  : TD-DFT with DH, B97 family of functionals
   V. Asgeirsson, H. Jonsson                     : NEB implementation
   FAccTs GmbH                                   : IRC, NEB, NEB-TS, DLPNO-Multilevel, CI-OPT
                                                   MM, QMMM, 2- and 3-layer-ONIOM, Crystal-QMMM,
                                                   LR-CPCM, SF, NACMEs, symmetry and pop. for TD-DFT,
                                                   nearIR, NL-DFT gradient (VV10), updates on ESD,
                                                   ML-optimized integration grids
   S Lehtola, MJT Oliveira, MAL Marques          : LibXC Library
   Liviu Ungur et al                             : ANISO software


 Your calculation uses the libint2 library for the computation of 2-el integrals
 For citations please refer to: http://libint.valeyev.net

 Your ORCA version has been built with support for libXC version: 5.1.0
 For citations please refer to: https://tddft.org/programs/libxc/

 This ORCA versions uses:
   CBLAS   interface :  Fast vector & matrix operations
   LAPACKE interface :  Fast linear algebra routines
   SCALAPACK package :  Parallel linear algebra routines
   Shared memory     :  Shared parallel matrices
   BLAS/LAPACK       :  OpenBLAS 0.3.15  USE64BITINT DYNAMIC_ARCH NO_AFFINITY Sandybridge SINGLE_THREADED
        Core in use  :  Sandybridge
   Copyright (c) 2011-2014, The OpenBLAS Project


================================================================================

----- Orbital basis set information -----
Your calculation utilizes the basis: cc-pVDZ 
       H, B-Ne : Obtained from the ccRepo (grant-hill.group.shef.ac.uk/ccrepo) Feb. 2017
                 T. H. Dunning, Jr., J. Chem. Phys. 90, 1007 (1989)
            He : Obtained from the ccRepo (grant-hill.group.shef.ac.uk/ccrepo) Feb. 2017
                 D. E. Woon, T. H. Dunning, Jr., J. Chem. Phys. 100, 2975 (1994)
  Li-Be, Na-Mg : Obtained from the ccRepo (grant-hill.group.shef.ac.uk/ccrepo) Feb. 2017
                 B. P. Prascher, D. E. Woon, K. A. Peterson, T. H. Dunning, Jr., A. K. Wilson, Theor. Chem. Acc. 128, 69 (2011)
         Al-Ar : Obtained from the ccRepo (grant-hill.group.shef.ac.uk/ccrepo) Feb. 2017
                 D. E. Woon, T. H. Dunning, Jr., J. Chem. Phys. 98, 1358 (1993)
            Ca : Obtained from the Peterson Research Group Website (tyr0.chem.wsu.edu/~kipeters) Feb. 2017
                 J. Koput, K. A. Peterson, J. Phys. Chem. 106, 9595 (2002)
         Sc-Zn : Obtained from the ccRepo (grant-hill.group.shef.ac.uk/ccrepo) Feb. 2017
                 N. B. Balabanov, K. A. Peterson, J. Chem. Phys. 123, 064107 (2005)
                 N. B. Balabanov, K. A. Peterson, J. Chem. Phys. 125, 074110 (2006)
         Ga-Kr : Obtained from the ccRepo (grant-hill.group.shef.ac.uk/ccrepo) Feb. 2017
                 A. K. Wilson, D. E. Woon, K. A. Peterson, T. H. Dunning, Jr., J. Chem. Phys. 110, 7667 (1999)

================================================================================
                                        WARNINGS
                       Please study these warnings very carefully!
================================================================================


WARNING: No MP2 level density has been requested!
         To caclulate MP2 level properties use
         %mp2 Density relaxed end
         or
         %mp2 Density unrelaxed end

WARNING: Post HF methods need fully converged wavefunctions
  ===> : Setting SCFConvForced true
         You can overwrite this default with %scf ConvForced false 


INFO   : the flag for use of the SHARK integral package has been found!

================================================================================
                                       INPUT FILE
================================================================================
NAME = /scratch/allen/tmpyp4_amber_gaff2/2.Mdgx/conf11/conf11/Conf24.orca
|  1> ! PAL2
|  2> ! mp2 cc-pvdz TightSCF  NoKeepInts
|  3> 
|  4> %scf
|  5>   MaxCore 2000
|  6> end
|  7> %mp2
|  8>   MaxCore 2000
|  9> end
| 10> * xyz 0 1
| 11>    C       -3.10500         6.45500        -0.34400
| 12>    C        1.47400         4.04100         0.05700
| 13>    C       -2.80200         4.09300         0.04900
| 14>    C       -4.12400         4.05400         0.52000
| 15>    C       -4.88700         5.20400         0.54000
| 16>    C       -5.23100         7.59000         0.11600
| 17>    C        0.13200         4.30700         0.06100
| 18>    C       -0.56900         3.05600         0.04700
| 19>    C        1.64900         2.61800         0.02300
| 20>    C       -2.30500         5.33000        -0.39000
| 21>    N       -4.37500         6.38300         0.11600
| 22>    N        0.38800         2.06700         0.02500
| 23>    N       -2.01000         0.39500        -0.07500
| 24>    N       -0.38800        -2.07400        -0.02700
| 25>    N        2.01000        -0.40100         0.06500
| 26>    C       -1.96000         2.86100         0.02400
| 27>    C       -2.62300         1.61500        -0.01800
| 28>    C       -5.57300        -4.32900         1.06600
| 29>    C       -4.07300         1.47100         0.05600
| 30>    C       -4.10600        -2.75600        -0.02600
| 31>    C       -4.99500        -2.75700        -1.11100
| 32>    C       -6.13200        -3.54200        -1.07600
| 33>    C       -7.65100        -5.11300         0.04000
| 34>    C       -4.32400         0.14100         0.03700
| 35>    C       -3.02500        -0.52000        -0.04800
| 36>    C       -4.42200        -3.56600         1.07500
| 37>    N       -6.40700        -4.31300         0.00100
| 38>    C       -2.86700        -1.92200        -0.04000
| 39>    C       -1.65000        -2.62400        -0.02700
| 40>    C        3.56800        -6.14200        -1.04000
| 41>    C       -1.47600        -4.04900        -0.03400
| 42>    C        2.80300        -4.09900        -0.00800
| 43>    C        3.65700        -4.38400         1.06900
| 44>    C        4.42700        -5.53000         1.05900
| 45>    C        5.24500        -7.58800         0.01400
| 46>    C       -0.13400        -4.31500        -0.02200
| 47>    C        0.56800        -3.06400        -0.02700
| 48>    C        2.77500        -5.01200        -1.07400
| 49>    N        4.37600        -6.39100         0.01700
| 50>    C        1.95900        -2.86900        -0.00900
| 51>    C        2.62100        -1.62200         0.00900
| 52>    C        5.54300         4.33900        -1.13000
| 53>    C        4.07000        -1.47900        -0.09400
| 54>    C        4.10400         2.75100        -0.02100
| 55>    C        5.02700         2.72900         1.03600
| 56>    C        6.16600         3.50900         0.97800
| 57>    C        7.61900         5.15300        -0.11500
| 58>    C        4.32100        -0.14800        -0.09200
| 59>    C        3.02500         0.51400         0.01500
| 60>    C        4.38700         3.58200        -1.11500
| 61>    C        2.86600         1.91600         0.01300
| 62>    N        6.41300         4.29600        -0.09500
| 63>    H       -2.75900         7.43100        -0.66000
| 64>    H        2.27400         4.76600         0.08100
| 65>    H       -4.56700         3.12700         0.86300
| 66>    H       -5.91200         5.22100         0.88600
| 67>    H       -5.80100         7.62100        -0.81600
| 68>    H       -5.90800         7.54000         0.96800
| 69>    H       -4.59400         8.47100         0.19500
| 70>    H       -0.33200         5.28200         0.06900
| 71>    H       -1.28700         5.42800        -0.75100
| 72>    H        0.18200         1.07200         0.00500
| 73>    H       -0.18300        -1.08000        -0.02100
| 74>    H       -5.86400        -4.96200         1.89500
| 75>    H       -4.79400         2.27200         0.13900
| 76>    H       -4.80000        -2.16000        -1.99400
| 77>    H       -6.84100        -3.58200        -1.89300
| 78>    H       -8.42800        -4.53600         0.54600
| 79>    H       -7.95600        -5.33700        -0.98100
| 80>    H       -7.45600        -6.03700         0.58400
| 81>    H       -5.28700        -0.34400         0.10000
| 82>    H       -3.78000        -3.60100         1.94700
| 83>    H        3.58700        -6.86800        -1.84300
| 84>    H       -2.27600        -4.77400        -0.05000
| 85>    H        3.71400        -3.72400         1.92600
| 86>    H        5.09200        -5.79500         1.87100
| 87>    H        6.20500        -7.32900        -0.43900
| 88>    H        5.39300        -7.91700         1.04200
| 89>    H        4.75900        -8.37300        -0.56400
| 90>    H        0.32900        -5.29000        -0.00800
| 91>    H        2.14600        -4.84200        -1.94000
| 92>    H        5.80800         4.98600        -1.95600
| 93>    H        4.78800        -2.28100        -0.18500
| 94>    H        4.86000         2.11400         1.91200
| 95>    H        6.90100         3.53100         1.77200
| 96>    H        7.38300         6.10900         0.35600
| 97>    H        8.41400         4.65200         0.43500
| 98>    H        7.92100         5.31000        -1.15000
| 99>    H        5.28300         0.33600        -0.17900
|100>    H        3.72000         3.63200        -1.96700
|101> *
|102> 
|103>                          ****END OF INPUT****
================================================================================

                       ****************************
                       * Single Point Calculation *
                       ****************************

---------------------------------
CARTESIAN COORDINATES (ANGSTROEM)
---------------------------------
  C     -3.105000    6.455000   -0.344000
  C      1.474000    4.041000    0.057000
  C     -2.802000    4.093000    0.049000
  C     -4.124000    4.054000    0.520000
  C     -4.887000    5.204000    0.540000
  C     -5.231000    7.590000    0.116000
  C      0.132000    4.307000    0.061000
  C     -0.569000    3.056000    0.047000
  C      1.649000    2.618000    0.023000
  C     -2.305000    5.330000   -0.390000
  N     -4.375000    6.383000    0.116000
  N      0.388000    2.067000    0.025000
  N     -2.010000    0.395000   -0.075000
  N     -0.388000   -2.074000   -0.027000
  N      2.010000   -0.401000    0.065000
  C     -1.960000    2.861000    0.024000
  C     -2.623000    1.615000   -0.018000
  C     -5.573000   -4.329000    1.066000
  C     -4.073000    1.471000    0.056000
  C     -4.106000   -2.756000   -0.026000
  C     -4.995000   -2.757000   -1.111000
  C     -6.132000   -3.542000   -1.076000
  C     -7.651000   -5.113000    0.040000
  C     -4.324000    0.141000    0.037000
  C     -3.025000   -0.520000   -0.048000
  C     -4.422000   -3.566000    1.075000
  N     -6.407000   -4.313000    0.001000
  C     -2.867000   -1.922000   -0.040000
  C     -1.650000   -2.624000   -0.027000
  C      3.568000   -6.142000   -1.040000
  C     -1.476000   -4.049000   -0.034000
  C      2.803000   -4.099000   -0.008000
  C      3.657000   -4.384000    1.069000
  C      4.427000   -5.530000    1.059000
  C      5.245000   -7.588000    0.014000
  C     -0.134000   -4.315000   -0.022000
  C      0.568000   -3.064000   -0.027000
  C      2.775000   -5.012000   -1.074000
  N      4.376000   -6.391000    0.017000
  C      1.959000   -2.869000   -0.009000
  C      2.621000   -1.622000    0.009000
  C      5.543000    4.339000   -1.130000
  C      4.070000   -1.479000   -0.094000
  C      4.104000    2.751000   -0.021000
  C      5.027000    2.729000    1.036000
  C      6.166000    3.509000    0.978000
  C      7.619000    5.153000   -0.115000
  C      4.321000   -0.148000   -0.092000
  C      3.025000    0.514000    0.015000
  C      4.387000    3.582000   -1.115000
  C      2.866000    1.916000    0.013000
  N      6.413000    4.296000   -0.095000
  H     -2.759000    7.431000   -0.660000
  H      2.274000    4.766000    0.081000
  H     -4.567000    3.127000    0.863000
  H     -5.912000    5.221000    0.886000
  H     -5.801000    7.621000   -0.816000
  H     -5.908000    7.540000    0.968000
  H     -4.594000    8.471000    0.195000
  H     -0.332000    5.282000    0.069000
  H     -1.287000    5.428000   -0.751000
  H      0.182000    1.072000    0.005000
  H     -0.183000   -1.080000   -0.021000
  H     -5.864000   -4.962000    1.895000
  H     -4.794000    2.272000    0.139000
  H     -4.800000   -2.160000   -1.994000
  H     -6.841000   -3.582000   -1.893000
  H     -8.428000   -4.536000    0.546000
  H     -7.956000   -5.337000   -0.981000
  H     -7.456000   -6.037000    0.584000
  H     -5.287000   -0.344000    0.100000
  H     -3.780000   -3.601000    1.947000
  H      3.587000   -6.868000   -1.843000
  H     -2.276000   -4.774000   -0.050000
  H      3.714000   -3.724000    1.926000
  H      5.092000   -5.795000    1.871000
  H      6.205000   -7.329000   -0.439000
  H      5.393000   -7.917000    1.042000
  H      4.759000   -8.373000   -0.564000
  H      0.329000   -5.290000   -0.008000
  H      2.146000   -4.842000   -1.940000
  H      5.808000    4.986000   -1.956000
  H      4.788000   -2.281000   -0.185000
  H      4.860000    2.114000    1.912000
  H      6.901000    3.531000    1.772000
  H      7.383000    6.109000    0.356000
  H      8.414000    4.652000    0.435000
  H      7.921000    5.310000   -1.150000
  H      5.283000    0.336000   -0.179000
  H      3.720000    3.632000   -1.967000

----------------------------
CARTESIAN COORDINATES (A.U.)
----------------------------
  NO LB      ZA    FRAG     MASS         X           Y           Z
   0 C     6.0000    0    12.011   -5.867600   12.198182   -0.650066
   1 C     6.0000    0    12.011    2.785456    7.636383    0.107714
   2 C     6.0000    0    12.011   -5.295013    7.734649    0.092597
   3 C     6.0000    0    12.011   -7.793231    7.660950    0.982658
   4 C     6.0000    0    12.011   -9.235092    9.834135    1.020452
   5 C     6.0000    0    12.011   -9.885157   14.343021    0.219208
   6 C     6.0000    0    12.011    0.249444    8.139050    0.115273
   7 C     6.0000    0    12.011   -1.075254    5.775003    0.088817
   8 C     6.0000    0    12.011    3.116158    4.947303    0.043464
   9 C     6.0000    0    12.011   -4.355819   10.072240   -0.736993
  10 N     7.0000    0    14.007   -8.267552   12.062122    0.219208
  11 N     7.0000    0    14.007    0.733214    3.906064    0.047243
  12 N     7.0000    0    14.007   -3.798350    0.746442   -0.141729
  13 N     7.0000    0    14.007   -0.733214   -3.919292   -0.051023
  14 N     7.0000    0    14.007    3.798350   -0.757780    0.122832
  15 C     6.0000    0    12.011   -3.703863    5.406506    0.045353
  16 C     6.0000    0    12.011   -4.956752    3.051908   -0.034015
  17 C     6.0000    0    12.011  -10.531444   -8.180624    2.014448
  18 C     6.0000    0    12.011   -7.696855    2.779787    0.105825
  19 C     6.0000    0    12.011   -7.759216   -5.208085   -0.049133
  20 C     6.0000    0    12.011   -9.439182   -5.209975   -2.099486
  21 C     6.0000    0    12.011  -11.587801   -6.693410   -2.033345
  22 C     6.0000    0    12.011  -14.458295   -9.662170    0.075589
  23 C     6.0000    0    12.011   -8.171176    0.266451    0.069920
  24 C     6.0000    0    12.011   -5.716422   -0.982658   -0.090707
  25 C     6.0000    0    12.011   -8.356369   -6.738763    2.031456
  26 N     7.0000    0    14.007  -12.107475   -8.150389    0.001890
  27 C     6.0000    0    12.011   -5.417845   -3.632054   -0.075589
  28 C     6.0000    0    12.011   -3.118048   -4.958641   -0.051023
  29 C     6.0000    0    12.011    6.742543  -11.606698   -1.965315
  30 C     6.0000    0    12.011   -2.789236   -7.651501   -0.064251
  31 C     6.0000    0    12.011    5.296902   -7.745987   -0.015118
  32 C     6.0000    0    12.011    6.910728   -8.284559    2.020117
  33 C     6.0000    0    12.011    8.365818  -10.450186    2.001220
  34 C     6.0000    0    12.011    9.911614  -14.339242    0.026456
  35 C     6.0000    0    12.011   -0.253223   -8.154168   -0.041574
  36 C     6.0000    0    12.011    1.073364   -5.790121   -0.051023
  37 C     6.0000    0    12.011    5.243990   -9.471307   -2.029566
  38 N     7.0000    0    14.007    8.269442  -12.077240    0.032125
  39 C     6.0000    0    12.011    3.701973   -5.421624   -0.017008
  40 C     6.0000    0    12.011    4.952972   -3.065136    0.017008
  41 C     6.0000    0    12.011   10.474752    8.199522   -2.135391
  42 C     6.0000    0    12.011    7.691185   -2.794905   -0.177634
  43 C     6.0000    0    12.011    7.755436    5.198637   -0.039684
  44 C     6.0000    0    12.011    9.499653    5.157063    1.957756
  45 C     6.0000    0    12.011   11.652051    6.631049    1.848152
  46 C     6.0000    0    12.011   14.397823    9.737759   -0.217319
  47 C     6.0000    0    12.011    8.165507   -0.279679   -0.173855
  48 C     6.0000    0    12.011    5.716422    0.971319    0.028346
  49 C     6.0000    0    12.011    8.290229    6.768999   -2.107045
  50 C     6.0000    0    12.011    5.415955    3.620715    0.024566
  51 N     7.0000    0    14.007   12.118814    8.118263   -0.179524
  52 H     1.0000    0     1.008   -5.213754   14.042555   -1.247219
  53 H     1.0000    0     1.008    4.297237    9.006435    0.153068
  54 H     1.0000    0     1.008   -8.630379    5.909174    1.630834
  55 H     1.0000    0     1.008  -11.172061    9.866260    1.674297
  56 H     1.0000    0     1.008  -10.962301   14.401603   -1.542017
  57 H     1.0000    0     1.008  -11.164502   14.248535    1.829255
  58 H     1.0000    0     1.008   -8.681402   16.007870    0.368497
  59 H     1.0000    0     1.008   -0.627389    9.981533    0.130391
  60 H     1.0000    0     1.008   -2.432078   10.257433   -1.419184
  61 H     1.0000    0     1.008    0.343930    2.025786    0.009449
  62 H     1.0000    0     1.008   -0.345820   -2.040904   -0.039684
  63 H     1.0000    0     1.008  -11.081354   -9.376821    3.581031
  64 H     1.0000    0     1.008   -9.059347    4.293458    0.262672
  65 H     1.0000    0     1.008   -9.070685   -4.081808   -3.768114
  66 H     1.0000    0     1.008  -12.927616   -6.768999   -3.577252
  67 H     1.0000    0     1.008  -15.926612   -8.571798    1.031790
  68 H     1.0000    0     1.008  -15.034661  -10.085468   -1.853821
  69 H     1.0000    0     1.008  -14.089798  -11.408277    1.103600
  70 H     1.0000    0     1.008   -9.990982   -0.650066    0.188973
  71 H     1.0000    0     1.008   -7.143165   -6.804904    3.679297
  72 H     1.0000    0     1.008    6.778448  -12.978639   -3.482765
  73 H     1.0000    0     1.008   -4.301017   -9.021553   -0.094486
  74 H     1.0000    0     1.008    7.018443   -7.037340    3.639613
  75 H     1.0000    0     1.008    9.622485  -10.950963    3.535678
  76 H     1.0000    0     1.008   11.725751  -13.849803   -0.829590
  77 H     1.0000    0     1.008   10.191293  -14.960962    1.969095
  78 H     1.0000    0     1.008    8.993207  -15.822677   -1.065806
  79 H     1.0000    0     1.008    0.621720   -9.996651   -0.015118
  80 H     1.0000    0     1.008    4.055352   -9.150054   -3.666069
  81 H     1.0000    0     1.008   10.975529    9.422175   -3.696304
  82 H     1.0000    0     1.008    9.048009   -4.310465   -0.349599
  83 H     1.0000    0     1.008    9.184069    3.994881    3.613156
  84 H     1.0000    0     1.008   13.041000    6.672623    3.348595
  85 H     1.0000    0     1.008   13.951848   11.544337    0.672743
  86 H     1.0000    0     1.008   15.900156    8.791006    0.822031
  87 H     1.0000    0     1.008   14.968521   10.034446   -2.173185
  88 H     1.0000    0     1.008    9.983423    0.634948   -0.338261
  89 H     1.0000    0     1.008    7.029781    6.863485   -3.717091

--------------------------------
INTERNAL COORDINATES (ANGSTROEM)
--------------------------------
 C      0   0   0     0.000000000000     0.00000000     0.00000000
 C      1   0   0     5.191862671527     0.00000000     0.00000000
 C      1   2   0     2.413566241063    54.66739112     0.00000000
 C      3   1   2     1.403939457384    87.91391243   160.94663461
 C      4   3   1     1.380242370021   120.14923203     0.18229795
 C      5   4   3     2.447673997901   152.54518734     1.49826218
 C      2   1   3     1.368114030335    17.19622649   353.26917567
 C      7   2   1     1.434084376876   108.05010202   163.65147863
 C      2   1   3     1.434123425651   124.55119666    13.06908475
 C      1   2   3     1.381209976796    27.50514338   338.87252137
 N      1   2   3     1.352658123844   140.99104938    31.25448106
 N      9   2   1     1.376127174356   106.58526707   353.18543938
 N     12   9   2     2.925062050624   168.53581413   171.12065651
 N     13  12   9     2.954513327098    91.55032014    11.12112580
 N     14  13  12     2.925371258490    88.43092389   359.84326247
 C      8   7   2     1.404790019896   127.24786865   181.11170171
 C     13  12   9     1.366535034311    81.72106996   188.00453233
 C     14  13  12     5.758810554272    80.56209567   166.76250791
 C     17  13  12     1.459010623676   111.08861209   183.82872609
 C     18  14  13     2.412235892279    27.27532823    36.33507194
 C     20  18  14     1.402692767501    87.95206320   148.94598259
 C     21  20  18     1.382106725257   120.14573887   359.70382047
 C     18  14  13     2.446510985056   144.15733107    82.80075377
 C     19  17  13     1.353610726908   106.29293361   359.75308708
 C     13  12   9     1.366813447402   172.21332906    33.46711076
 C     18  14  13     1.380960173213    15.08449437   309.23336894
 N     22  21  20     1.352773077792   120.73759875     0.27865223
 C     25  13  17     1.410897586645   125.60330303   182.37774668
 C     14  13  12     1.376642291955    80.24689249   177.85461986
 C     14  13  12     5.764089607215   164.51507311   312.20821879
 C     29  14  13     1.435600919476   106.58649366   178.76395472
 C     30  14  13     2.413316804732    27.10625047    82.12560436
 C     32  30  14     1.403734305344    87.90059683   149.76154742
 C     33  32  30     1.380694028378   120.14881443   359.74174632
 C     34  33  32     2.448777858443   152.49203239     2.45173620
 C     31  29  14     1.368160809262   108.16950133     0.70383075
 C     14  13  12     1.376239804685   169.26375223   353.09862627
 C     30  14  13     1.380907310430    14.68948582   353.70041132
 N     34  33  32     1.352658863128   120.85575621     0.19603406
 C     37  14  29     1.404717053360   126.01551127   180.90772073
 C     15  14  13     1.366491126938    81.61824056   183.09049352
 C      2   1   3     4.249062720177   142.22262454   154.48122389
 C     41  15  14     1.459677704153   111.05201287   175.08990246
 C     42   2   1     2.412953791518    41.78584867   187.31645791
 C     44  42   2     1.403446472082    87.95153797   233.97558675
 C     45  44  42     1.381696421071   120.11137308     0.19721020
 C     42   2   1     2.450019795838   135.97209175    97.63130701
 C     43  41  15     1.354461516618   106.26758155     0.30894352
 C     15  14  13     1.367461151185   171.87382904   332.35056460
 C     42   2   1     1.381886391857    32.59078432   236.17173710
 C      9   2   1     1.404988612053   126.98745415   174.18977691
 N     42   2   1     1.352765315936   113.57249190   125.36789620
 H      1   2   3     1.082657840687    99.19744033   188.14698831
 H      2   1   3     1.079907866440   110.05501790   188.09244393
 H      4   3   1     1.083156036774   121.00620099   179.54673336
 H      5   4   3     1.081956561050   122.78075793   179.47331880
 H      6   5   4     1.092924974552   104.39862247   100.17933105
 H      6   5   4     1.089372755305    84.67064276   209.62332297
 H      6   5   4     1.090032568321   133.88257216   322.51886996
 H      7   2   1     1.079807853278   126.66122480   343.88989241
 H     10   1   2     1.084550137154   118.76042404   325.42494804
 H     12   9   2     1.016297692608   125.29023241   180.00180175
 H     14  13  12     1.014936943854    44.97226959   359.42596618
 H     18  14  13     1.082871645210   128.03556573   234.20482432
 H     19  17  13     1.080893611786   126.41830519   178.11313280
 H     21  20  18     1.083569563987   121.05669627   180.67006309
 H     22  21  20     1.082483256222   122.73097286   180.59748951
 H     23  18  14     1.092105306278   103.92715769   234.93429879
 H     23  18  14     1.088871893291   134.19244188    12.25587044
 H     23  18  14     1.089833473518    84.85857450   125.45241208
 H     24  19  17     1.080075460327   127.28078426   178.44613241
 H     26  18  14     1.083408048706   118.76995697   244.94906660
 H     30  14  13     1.082703098730   127.99711412   279.66882698
 H     31  29  14     1.079759695488   125.22293469   180.92530585
 H     33  32  30     1.083188810873   121.01964473   180.74284758
 H     34  33  32     1.082494341787   122.70821597   180.59516895
 H     35  34  33     1.092652735319   105.73575241    97.19771933
 H     35  34  33     1.089462711615    84.05943581   206.43036958
 H     35  34  33     1.089268102902   133.08365142   318.50306270
 H     36  31  29     1.079439669458   126.61599965   178.98859863
 H     38  30  73     1.083742127999   118.77264435   359.90091293
 H     42   2   1     1.082178358682   119.31790784   341.99942665
 H     43  41  15     1.080281907652   126.36969097   182.06329380
 H     45  44  42     1.083277434455   121.10105945   179.58025624
 H     46  45  44     1.082194529648   122.72144639   179.46906377
 H     47  42   2     1.091546151109   106.65128841   315.16475048
 H     47  42   2     1.088818625851   132.46019523    94.52397119
 H     47  42   2     1.089531091801    83.63838232   206.04504406
 H     48  43  41     1.080402239909   127.23657387   181.62955349
 H     50  42   2     1.083186502870   118.77001737    94.71359229

---------------------------
INTERNAL COORDINATES (A.U.)
---------------------------
 C      0   0   0     0.000000000000     0.00000000     0.00000000
 C      1   0   0     9.811198574116     0.00000000     0.00000000
 C      1   2   0     4.560979201687    54.66739112     0.00000000
 C      3   1   2     2.653061083062    87.91391243   160.94663461
 C      4   3   1     2.608280077773   120.14923203     0.18229795
 C      5   4   3     4.625433521153   152.54518734     1.49826218
 C      2   1   3     2.585360837309    17.19622649   353.26917567
 C      7   2   1     2.710026725231   108.05010202   163.65147863
 C      2   1   3     2.710100516721   124.55119666    13.06908475
 C      1   2   3     2.610108589584    27.50514338   338.87252137
 N      1   2   3     2.556153406888   140.99104938    31.25448106
 N      9   2   1     2.600503484979   106.58526707   353.18543938
 N     12   9   2     5.527566200405   168.53581413   171.12065651
 N     13  12   9     5.583221047236    91.55032014    11.12112580
 N     14  13  12     5.528150518591    88.43092389   359.84326247
 C      8   7   2     2.654668413270   127.24786865   181.11170171
 C     13  12   9     2.582376967257    81.72106996   188.00453233
 C     14  13  12    10.882574804710    80.56209567   166.76250791
 C     17  13  12     2.757130505230   111.08861209   183.82872609
 C     18  14  13     4.558465206823    27.27532823    36.33507194
 C     20  18  14     2.650705180609    87.95206320   148.94598259
 C     21  20  18     2.611803198586   120.14573887   359.70382047
 C     18  14  13     4.623235745386   144.15733107    82.80075377
 C     19  17  13     2.557953565794   106.29293361   359.75308708
 C     13  12   9     2.582903091751   172.21332906    33.46711076
 C     18  14  13     2.609636529225    15.08449437   309.23336894
 N     22  21  20     2.556370638369   120.73759875     0.27865223
 C     25  13  17     2.666210041769   125.60330303   182.37774668
 C     14  13  12     2.601476916169    80.24689249   177.85461986
 C     14  13  12    10.892550769017   164.51507311   312.20821879
 C     29  14  13     2.712892575415   106.58649366   178.76395472
 C     30  14  13     4.560507835333    27.10625047    82.12560436
 C     32  30  14     2.652673401891    87.90059683   149.76154742
 C     33  32  30     2.609133588376   120.14881443   359.74174632
 C     34  33  32     4.627519515267   152.49203239     2.45173620
 C     31  29  14     2.585449236669   108.16950133     0.70383075
 C     14  13  12     2.600716325456   169.26375223   353.09862627
 C     30  14  13     2.609536633043    14.68948582   353.70041132
 N     34  33  32     2.556154803934   120.85575621     0.19603406
 C     37  14  29     2.654530526499   126.01551127   180.90772073
 C     15  14  13     2.582293994346    81.61824056   183.09049352
 C      2   1   3     8.029564866989   142.22262454   154.48122389
 C     41  15  14     2.758391104639   111.05201287   175.08990246
 C     42   2   1     4.559821839776    41.78584867   187.31645791
 C     44  42   2     2.652129475853    87.95153797   233.97558675
 C     45  44  42     2.611027836043   120.11137308     0.19721020
 C     42   2   1     4.629866436820   135.97209175    97.63130701
 C     43  41  15     2.559561325344   106.26758155     0.30894352
 C     15  14  13     2.584127074516   171.87382904   332.35056460
 C     42   2   1     2.611386828803    32.59078432   236.17173710
 C      9   2   1     2.655043698059   126.98745415   174.18977691
 N     42   2   1     2.556355970587   113.57249190   125.36789620
 H      1   2   3     2.045926815640    99.19744033   188.14698831
 H      2   1   3     2.040730117440   110.05501790   188.09244393
 H      4   3   1     2.046868269806   121.00620099   179.54673336
 H      5   4   3     2.044601589184   122.78075793   179.47331880
 H      6   5   4     2.065328886827   104.39862247   100.17933105
 H      6   5   4     2.058616165281    84.67064276   209.62332297
 H      6   5   4     2.059863031181   133.88257216   322.51886996
 H      7   2   1     2.040541119952   126.66122480   343.88989241
 H     10   1   2     2.049502737727   118.76042404   325.42494804
 H     12   9   2     1.920524309565   125.29023241   180.00180175
 H     14  13  12     1.917952867083    44.97226959   359.42596618
 H     18  14  13     2.046330847636   128.03556573   234.20482432
 H     19  17  13     2.042592906181   126.41830519   178.11313280
 H     21  20  18     2.047649722989   121.05669627   180.67006309
 H     22  21  20     2.045596898814   122.73097286   180.59748951
 H     23  18  14     2.063779938267   103.92715769   234.93429879
 H     23  18  14     2.057669673245   134.19244188    12.25587044
 H     23  18  14     2.059486796529    84.85857450   125.45241208
 H     24  19  17     2.041046823986   127.28078426   178.44613241
 H     26  18  14     2.047344503340   118.76995697   244.94906660
 H     30  14  13     2.046012340948   127.99711412   279.66882698
 H     31  29  14     2.040450114918   125.22293469   180.92530585
 H     33  32  30     2.046930203877   121.01964473   180.74284758
 H     34  33  32     2.045617847496   122.70821597   180.59516895
 H     35  34  33     2.064814429233   105.73575241    97.19771933
 H     35  34  33     2.058786158072    84.05943581   206.43036958
 H     35  34  33     2.058418400901   133.08365142   318.50306270
 H     36  31  29     2.039845353366   126.61599965   178.98859863
 H     38  30  73     2.047975821711   118.77264435   359.90091293
 H     42   2   1     2.045020725966   119.31790784   341.99942665
 H     43  41  15     2.041436952892   126.36969097   182.06329380
 H     45  44  42     2.047097678177   121.10105945   179.58025624
 H     46  45  44     2.045051284662   122.72144639   179.46906377
 H     47  42   2     2.062723288131   106.65128841   315.16475048
 H     47  42   2     2.057569012371   132.46019523    94.52397119
 H     47  42   2     2.058915377895    83.63838232   206.04504406
 H     48  43  41     2.041664347903   127.23657387   181.62955349
 H     50  42   2     2.046925842384   118.77001737    94.71359229

---------------------
BASIS SET INFORMATION
---------------------
There are 3 groups of distinct atoms

 Group   1 Type C   : 17s4p1d contracted to 3s2p1d pattern {881/31/1}
 Group   2 Type N   : 17s4p1d contracted to 3s2p1d pattern {881/31/1}
 Group   3 Type H   : 4s1p contracted to 2s1p pattern {31/1}

Atom   0C    basis set group =>   1
Atom   1N    basis set group =>   2
Atom   2C    basis set group =>   1
Atom   3N    basis set group =>   2
Atom   4C    basis set group =>   1
Atom   5N    basis set group =>   2
Atom   6C    basis set group =>   1
Atom   7N    basis set group =>   2
Atom   8C    basis set group =>   1
Atom   9N    basis set group =>   2
Atom  10C    basis set group =>   1
Atom  11N    basis set group =>   2
Atom  12C    basis set group =>   1
Atom  13N    basis set group =>   2
Atom  14C    basis set group =>   1
Atom  15N    basis set group =>   2
Atom  16C    basis set group =>   1
Atom  17C    basis set group =>   1
Atom  18C    basis set group =>   1
Atom  19C    basis set group =>   1
Atom  20C    basis set group =>   1
Atom  21C    basis set group =>   1
Atom  22C    basis set group =>   1
Atom  23C    basis set group =>   1
Atom  24C    basis set group =>   1
Atom  25C    basis set group =>   1
Atom  26C    basis set group =>   1
Atom  27C    basis set group =>   1
Atom  28C    basis set group =>   1
Atom  29C    basis set group =>   1
Atom  30C    basis set group =>   1
Atom  31C    basis set group =>   1
Atom  32C    basis set group =>   1
Atom  33C    basis set group =>   1
Atom  34C    basis set group =>   1
Atom  35C    basis set group =>   1
Atom  36C    basis set group =>   1
Atom  37C    basis set group =>   1
Atom  38C    basis set group =>   1
Atom  39C    basis set group =>   1
Atom  40C    basis set group =>   1
Atom  41C    basis set group =>   1
Atom  42C    basis set group =>   1
Atom  43C    basis set group =>   1
Atom  44C    basis set group =>   1
Atom  45C    basis set group =>   1
Atom  46C    basis set group =>   1
Atom  47C    basis set group =>   1
Atom  48C    basis set group =>   1
Atom  49C    basis set group =>   1
Atom  50C    basis set group =>   1
Atom  51C    basis set group =>   1
Atom  52H    basis set group =>   3
Atom  53H    basis set group =>   3
Atom  54H    basis set group =>   3
Atom  55H    basis set group =>   3
Atom  56H    basis set group =>   3
Atom  57H    basis set group =>   3
Atom  58H    basis set group =>   3
Atom  59H    basis set group =>   3
Atom  60H    basis set group =>   3
Atom  61H    basis set group =>   3
Atom  62H    basis set group =>   3
Atom  63H    basis set group =>   3
Atom  64H    basis set group =>   3
Atom  65H    basis set group =>   3
Atom  66H    basis set group =>   3
Atom  67H    basis set group =>   3
Atom  68H    basis set group =>   3
Atom  69H    basis set group =>   3
Atom  70H    basis set group =>   3
Atom  71H    basis set group =>   3
Atom  72H    basis set group =>   3
Atom  73H    basis set group =>   3
Atom  74H    basis set group =>   3
Atom  75H    basis set group =>   3
Atom  76H    basis set group =>   3
Atom  77H    basis set group =>   3
Atom  78H    basis set group =>   3
Atom  79H    basis set group =>   3
Atom  80H    basis set group =>   3
Atom  81H    basis set group =>   3
Atom  82H    basis set group =>   3
Atom  83H    basis set group =>   3
Atom  84H    basis set group =>   3
Atom  85H    basis set group =>   3
Atom  86H    basis set group =>   3
Atom  87H    basis set group =>   3
Atom  88H    basis set group =>   3
Atom  89H    basis set group =>   3


           ************************************************************
           *        Program running with 16 parallel MPI-processes    *
           *              working on a common directory               *
           ************************************************************
------------------------------------------------------------------------------
                           ORCA GTO INTEGRAL CALCULATION
------------------------------------------------------------------------------
------------------------------------------------------------------------------
                   ___                                                        
                  /   \      - P O W E R E D   B Y -                         
                 /     \                                                     
                 |  |  |   _    _      __       _____    __    __             
                 |  |  |  | |  | |    /  \     |  _  \  |  |  /  |          
                  \  \/   | |  | |   /    \    | | | |  |  | /  /          
                 / \  \   | |__| |  /  /\  \   | |_| |  |  |/  /          
                |  |  |   |  __  | /  /__\  \  |    /   |      \           
                |  |  |   | |  | | |   __   |  |    \   |  |\   \          
                \     /   | |  | | |  |  |  |  | |\  \  |  | \   \       
                 \___/    |_|  |_| |__|  |__|  |_| \__\ |__|  \__/        
                                                                              
                      - O R C A' S   B I G   F R I E N D -                    
                                      &                                       
                       - I N T E G R A L  F E E D E R -                       
                                                                              
 v1 FN, 2020, v2 2021                                                         
------------------------------------------------------------------------------


Reading SHARK input file /scratch/allen/tmpyp4_amber_gaff2/conf1/conf1/Conf24.orca.SHARKINP.tmp ... ok
----------------------
SHARK INTEGRAL PACKAGE
----------------------

Number of atoms                             ...     90
Number of basis functions                   ...   1230
Number of shells                            ...    738
Maximum angular momentum                    ...      2
Integral batch strategy                     ... SHARK/LIBINT Hybrid
RI-J (if used) integral strategy            ... SPLIT-RIJ (Revised 2003 algorithm where possible)
Printlevel                                  ...      1
Contraction scheme used                     ... PARTIAL GENERAL contraction
Coulomb Range Separation                    ... NOT USED
Exchange Range Separation                   ... NOT USED
Finite Nucleus Model                        ... NOT USED
Auxiliary Coulomb fitting basis             ... NOT available
Auxiliary J/K fitting basis                 ... NOT available
Auxiliary Correlation fitting basis         ... NOT available
Auxiliary 'external' fitting basis          ... NOT available
Integral threshold                          ...     2.500000e-11
Primitive cut-off                           ...     2.500000e-12
Primitive pair pre-selection threshold      ...     2.500000e-12

Calculating pre-screening integrals         ... done (  0.1 sec) Dimension = 738
Calculating pre-screening integrals (ORCA)  ... done (  0.3 sec) Dimension = 426
Organizing shell pair data                  ... done (  0.8 sec)
Shell pair information
Total number of shell pairs                 ...    272691
Shell pairs after pre-screening             ...     71702
Total number of primitive shell pairs       ...    422091
Primitive shell pairs kept                  ...     92583
          la=0 lb=0:  29434 shell pairs
          la=1 lb=0:  26021 shell pairs
          la=1 lb=1:   4702 shell pairs
          la=2 lb=0:   7892 shell pairs
          la=2 lb=1:   3124 shell pairs
          la=2 lb=2:    529 shell pairs

Calculating one electron integrals          ... done (  0.3 sec)
Calculating Nuclear repulsion               ... done (  0.0 sec) ENN=   6233.182691605217 Eh

SHARK setup successfully completed in   2.2 seconds

Maximum memory used throughout the entire GTOINT-calculation: 99.1 MB


           ************************************************************
           *        Program running with 16 parallel MPI-processes    *
           *              working on a common directory               *
           ************************************************************
-------------------------------------------------------------------------------
                                 ORCA SCF
-------------------------------------------------------------------------------

------------
SCF SETTINGS
------------
Hamiltonian:
 Ab initio Hamiltonian  Method          .... Hartree-Fock(GTOs)


General Settings:
 Integral files         IntName         .... /scratch/allen/tmpyp4_amber_gaff2/conf1/conf1/Conf24.orca
 Hartree-Fock type      HFTyp           .... RHF
 Total Charge           Charge          ....    0
 Multiplicity           Mult            ....    1
 Number of Electrons    NEL             ....  358
 Basis Dimension        Dim             ....  918
 Nuclear Repulsion      ENuc            ....   6233.1826916052 Eh

Convergence Acceleration:
 DIIS                   CNVDIIS         .... on
   Start iteration      DIISMaxIt       ....    12
   Startup error        DIISStart       ....  0.200000
   # of expansion vecs  DIISMaxEq       ....     5
   Bias factor          DIISBfac        ....   1.050
   Max. coefficient     DIISMaxC        ....  10.000
 Trust-Rad. Augm. Hess. CNVTRAH         .... auto
   Auto Start mean grad. ratio tolernc. ....  1.125000
   Auto Start start iteration           ....    20
   Auto Start num. interpolation iter.  ....    10
   Max. Number of Micro iterations      ....    16
   Max. Number of Macro iterations      .... Maxiter - #DIIS iter
   Number of Davidson start vectors     ....     2
   Converg. threshold I  (grad. norm)   ....   1.000e-05
   Converg. threshold II (energy diff.) ....   1.000e-08
   Grad. Scal. Fac. for Micro threshold ....   0.100
   Minimum threshold for Micro iter.    ....   0.010
   NR start threshold (gradient norm)   ....   0.001
   Initial trust radius                 ....   0.400
   Minimum AH scaling param. (alpha)    ....   1.000
   Maximum AH scaling param. (alpha)    .... 1000.000
   Orbital update algorithm             .... Taylor
   White noise on init. David. guess    .... on
   Maximum white noise                  ....   0.010
   Quad. conv. algorithm                .... NR
 SOSCF                  CNVSOSCF        .... on
   Start iteration      SOSCFMaxIt      ....   150
   Startup grad/error   SOSCFStart      ....  0.003300
 Level Shifting         CNVShift        .... on
   Level shift para.    LevelShift      ....    0.2500
   Turn off err/grad.   ShiftErr        ....    0.0010
 Zerner damping         CNVZerner       .... off
 Static damping         CNVDamp         .... on
   Fraction old density DampFac         ....    0.7000
   Max. Damping (<1)    DampMax         ....    0.9800
   Min. Damping (>=0)   DampMin         ....    0.0000
   Turn off err/grad.   DampErr         ....    0.1000
 Fernandez-Rico         CNVRico         .... off

SCF Procedure:
 Maximum # iterations   MaxIter         ....   125
 SCF integral mode      SCFMode         .... Direct
   Integral package                     .... SHARK and LIBINT hybrid scheme
 Reset frequency        DirectResetFreq ....    20
 Integral Threshold     Thresh          ....  2.500e-11 Eh
 Primitive CutOff       TCut            ....  2.500e-12 Eh

Convergence Tolerance:
 Convergence Check Mode ConvCheckMode   .... Total+1el-Energy
 Convergence forced     ConvForced      .... 1
 Energy Change          TolE            ....  1.000e-08 Eh
 1-El. energy change                    ....  1.000e-05 Eh
 Orbital Gradient       TolG            ....  1.000e-05
 Orbital Rotation angle TolX            ....  1.000e-05
 DIIS Error             TolErr          ....  5.000e-07


Diagonalization of the overlap matrix:
Smallest eigenvalue                        ... 2.099e-04
Time for diagonalization                   ...    0.400 sec
Threshold for overlap eigenvalues          ... 1.000e-08
Number of eigenvalues below threshold      ... 0
Time for construction of square roots      ...    0.240 sec
Total time needed                          ...    0.645 sec

Time for model grid setup =    1.051 sec

------------------------------
INITIAL GUESS: MODEL POTENTIAL
------------------------------
Loading Hartree-Fock densities                     ... done
Calculating cut-offs                               ... done
Initializing the effective Hamiltonian             ... done
Setting up the integral package (SHARK)            ... done
Starting the Coulomb interaction                   ... done (   1.1 sec)
Reading the grid                                   ... done
Mapping shells                                     ... done
Starting the XC term evaluation                    ... done (   0.2 sec)
Transforming the Hamiltonian                       ... done (   0.2 sec)
Diagonalizing the Hamiltonian                      ... done (   0.3 sec)
Back transforming the eigenvectors                 ... done (   0.1 sec)
Now organizing SCF variables                       ... done
                      ------------------
                      INITIAL GUESS DONE (   3.1 sec)
                      ------------------
--------------
SCF ITERATIONS
--------------
ITER       Energy         Delta-E        Max-DP      RMS-DP      [F,P]     Damp
               ***  Starting incremental Fock matrix formation  ***
  0  -2121.6555887203   0.000000000000 0.07495692  0.00123767  0.2316541 0.7000
  1  -2122.3041490877  -0.648560367399 0.05678689  0.00100836  0.1436303 0.7000
                               ***Turning on DIIS***
  2  -2122.7080119369  -0.403862849231 0.13265798  0.00228667  0.0802667 0.0000
  3  -2117.9870023493   4.721009587634 0.05347269  0.00068705  0.0436531 0.0000
  4  -2123.3921295198  -5.405127170492 0.01562709  0.00022797  0.0088472 0.0000
  5  -2123.5384847943  -0.146355274528 0.00737666  0.00013304  0.0049022 0.0000
  6  -2123.5228682414   0.015616552897 0.00433726  0.00008537  0.0021429 0.0000
  7  -2123.6176108827  -0.094742641317 0.00307156  0.00006737  0.0015937 0.0000
  8  -2123.6264561249  -0.008845242148 0.00326878  0.00006413  0.0014901 0.0000
  9  -2123.5979586961   0.028497428801 0.00261425  0.00004528  0.0011954 0.0000
 10  -2123.6064706193  -0.008511923221 0.00523939  0.00009461  0.0009305 0.0000
                      *** Initiating the SOSCF procedure ***
                           *** Shutting down DIIS ***
                      *** Re-Reading the Fockian *** 
                      *** Removing any level shift *** 
ITER      Energy       Delta-E        Grad      Rot      Max-DP    RMS-DP
 11  -2123.49888962   0.1075809990  0.000179  0.000179  0.000239  0.000005
               *** Restarting incremental Fock matrix formation ***
 12  -2123.56510567  -0.0662160473  0.000888  0.006207  0.001419  0.000035
 13  -2123.56521462  -0.0001089514  0.001107  0.030784  0.006471  0.000136
 14  -2123.56539996  -0.0001853448  0.000358  0.001468  0.000643  0.000012
 15  -2123.56541542  -0.0000154577  0.000185  0.002576  0.000621  0.000015
 16  -2123.56542378  -0.0000083623  0.000146  0.002462  0.000444  0.000009
 17  -2123.56542665  -0.0000028628  0.000138  0.001895  0.000317  0.000007
 18  -2123.56542816  -0.0000015145  0.000066  0.001074  0.000262  0.000004
 19  -2123.56542896  -0.0000008012  0.000045  0.001233  0.000221  0.000005
 20  -2123.56542936  -0.0000003980  0.000027  0.000843  0.000129  0.000003
 21  -2123.56542958  -0.0000002152  0.000025  0.001041  0.000161  0.000003
 22  -2123.56542977  -0.0000001952  0.000022  0.000894  0.000143  0.000003
 23  -2123.56542989  -0.0000001180  0.000015  0.000494  0.000080  0.000002
 24  -2123.56542995  -0.0000000564  0.000009  0.000350  0.000055  0.000001
 25  -2123.56542998  -0.0000000357  0.000009  0.000160  0.000042  0.000001
 26  -2123.56543000  -0.0000000163  0.000006  0.000116  0.000033  0.000001
 27  -2123.56543000  -0.0000000044  0.000003  0.000084  0.000023  0.000000
                  ***Gradient check signals convergence***
              ***Rediagonalizing the Fockian in SOSCF/NRSCF***

               *****************************************************
               *                     SUCCESS                       *
               *           SCF CONVERGED AFTER  28 CYCLES          *
               *****************************************************


----------------
TOTAL SCF ENERGY
----------------

Total Energy       :        -2123.56543000 Eh          -57785.15309 eV

Components:
Nuclear Repulsion  :         6233.18269161 Eh          169613.52402 eV
Electronic Energy  :        -8356.74812160 Eh         -227398.67711 eV
One Electron Energy:       -15307.02066775 Eh         -416525.20810 eV
Two Electron Energy:         6950.27254615 Eh          189126.53099 eV

Virial components:
Potential Energy   :        -4245.90350951 Eh         -115536.90828 eV
Kinetic Energy     :         2122.33807951 Eh           57751.75519 eV
Virial Ratio       :            2.00057830


---------------
SCF CONVERGENCE
---------------

  Last Energy change         ...    2.0191e-09  Tolerance :   1.0000e-08
  Last MAX-Density change    ...    1.0853e-05  Tolerance :   1.0000e-07
  Last RMS-Density change    ...    2.1820e-07  Tolerance :   5.0000e-09
  Last Orbital Gradient      ...    2.1719e-06  Tolerance :   1.0000e-05
  Last Orbital Rotation      ...    5.1048e-05  Tolerance :   1.0000e-05

             **** THE GBW FILE WAS UPDATED (/scratch/allen/tmpyp4_amber_gaff2/conf1/conf1/Conf24.orca.gbw) ****
             **** DENSITY /scratch/allen/tmpyp4_amber_gaff2/conf1/conf1/Conf24.orca.scfp WAS UPDATED ****
             **** ENERGY FILE WAS UPDATED (/scratch/allen/tmpyp4_amber_gaff2/conf1/conf1/Conf24.orca.en.tmp) ****
             **** THE GBW FILE WAS UPDATED (/scratch/allen/tmpyp4_amber_gaff2/conf1/conf1/Conf24.orca.gbw) ****
             **** DENSITY /scratch/allen/tmpyp4_amber_gaff2/conf1/conf1/Conf24.orca.scfp WAS UPDATED ****
----------------
ORBITAL ENERGIES
----------------

  NO   OCC          E(Eh)            E(eV) 
   0   2.0000     -15.677131      -426.5964 
   1   2.0000     -15.633574      -425.4112 
   2   2.0000     -15.631967      -425.3674 
   3   2.0000     -15.589303      -424.2065 
   4   2.0000     -15.524839      -422.4523 
   5   2.0000     -15.515984      -422.2114 
   6   2.0000     -15.453487      -420.5108 
   7   2.0000     -15.440344      -420.1531 
   8   2.0000     -11.327215      -308.2292 
   9   2.0000     -11.326296      -308.2042 
  10   2.0000     -11.326141      -308.2000 
  11   2.0000     -11.299077      -307.4635 
  12   2.0000     -11.298438      -307.4461 
  13   2.0000     -11.292545      -307.2858 
  14   2.0000     -11.291158      -307.2480 
  15   2.0000     -11.286826      -307.1301 
  16   2.0000     -11.286348      -307.1171 
  17   2.0000     -11.279560      -306.9324 
  18   2.0000     -11.271494      -306.7130 
  19   2.0000     -11.261536      -306.4420 
  20   2.0000     -11.260553      -306.4152 
  21   2.0000     -11.254211      -306.2426 
  22   2.0000     -11.251407      -306.1663 
  23   2.0000     -11.237314      -305.7829 
  24   2.0000     -11.236727      -305.7669 
  25   2.0000     -11.230877      -305.6077 
  26   2.0000     -11.230071      -305.5858 
  27   2.0000     -11.229862      -305.5801 
  28   2.0000     -11.229739      -305.5767 
  29   2.0000     -11.210316      -305.0482 
  30   2.0000     -11.209060      -305.0140 
  31   2.0000     -11.196923      -304.6838 
  32   2.0000     -11.190611      -304.5120 
  33   2.0000     -11.190463      -304.5080 
  34   2.0000     -11.188810      -304.4630 
  35   2.0000     -11.187661      -304.4317 
  36   2.0000     -11.186380      -304.3969 
  37   2.0000     -11.186182      -304.3915 
  38   2.0000     -11.182261      -304.2848 
  39   2.0000     -11.173696      -304.0517 
  40   2.0000     -11.171915      -304.0033 
  41   2.0000     -11.170874      -303.9749 
  42   2.0000     -11.167643      -303.8870 
  43   2.0000     -11.160999      -303.7062 
  44   2.0000     -11.160322      -303.6878 
  45   2.0000     -11.157416      -303.6087 
  46   2.0000     -11.156051      -303.5716 
  47   2.0000     -11.155309      -303.5514 
  48   2.0000     -11.147646      -303.3429 
  49   2.0000     -11.137353      -303.0628 
  50   2.0000     -11.130343      -302.8720 
  51   2.0000     -11.118855      -302.5594 
  52   2.0000      -1.358126       -36.9565 
  53   2.0000      -1.320881       -35.9430 
  54   2.0000      -1.319732       -35.9117 
  55   2.0000      -1.282601       -34.9014 
  56   2.0000      -1.225675       -33.3523 
  57   2.0000      -1.210473       -32.9386 
  58   2.0000      -1.172872       -31.9155 
  59   2.0000      -1.151051       -31.3217 
  60   2.0000      -1.141798       -31.0699 
  61   2.0000      -1.110147       -30.2086 
  62   2.0000      -1.108873       -30.1740 
  63   2.0000      -1.079990       -29.3880 
  64   2.0000      -1.078853       -29.3571 
  65   2.0000      -1.045082       -28.4381 
  66   2.0000      -1.044397       -28.4195 
  67   2.0000      -1.039879       -28.2965 
  68   2.0000      -1.014721       -27.6120 
  69   2.0000      -1.013075       -27.5672 
  70   2.0000      -1.009380       -27.4666 
  71   2.0000      -0.993038       -27.0219 
  72   2.0000      -0.986286       -26.8382 
  73   2.0000      -0.980837       -26.6899 
  74   2.0000      -0.972434       -26.4613 
  75   2.0000      -0.961641       -26.1676 
  76   2.0000      -0.954099       -25.9623 
  77   2.0000      -0.945853       -25.7380 
  78   2.0000      -0.935577       -25.4583 
  79   2.0000      -0.918150       -24.9841 
  80   2.0000      -0.908612       -24.7246 
  81   2.0000      -0.895107       -24.3571 
  82   2.0000      -0.875456       -23.8224 
  83   2.0000      -0.871774       -23.7222 
  84   2.0000      -0.870062       -23.6756 
  85   2.0000      -0.857923       -23.3453 
  86   2.0000      -0.841659       -22.9027 
  87   2.0000      -0.835441       -22.7335 
  88   2.0000      -0.825434       -22.4612 
  89   2.0000      -0.797297       -21.6955 
  90   2.0000      -0.790428       -21.5086 
  91   2.0000      -0.753030       -20.4910 
  92   2.0000      -0.748325       -20.3629 
  93   2.0000      -0.733132       -19.9495 
  94   2.0000      -0.725355       -19.7379 
  95   2.0000      -0.722325       -19.6555 
  96   2.0000      -0.717166       -19.5151 
  97   2.0000      -0.713832       -19.4244 
  98   2.0000      -0.709637       -19.3102 
  99   2.0000      -0.697443       -18.9784 
 100   2.0000      -0.696411       -18.9503 
 101   2.0000      -0.687172       -18.6989 
 102   2.0000      -0.683378       -18.5957 
 103   2.0000      -0.682579       -18.5739 
 104   2.0000      -0.678309       -18.4577 
 105   2.0000      -0.674044       -18.3417 
 106   2.0000      -0.671089       -18.2613 
 107   2.0000      -0.660261       -17.9666 
 108   2.0000      -0.657398       -17.8887 
 109   2.0000      -0.652800       -17.7636 
 110   2.0000      -0.651676       -17.7330 
 111   2.0000      -0.644343       -17.5335 
 112   2.0000      -0.644102       -17.5269 
 113   2.0000      -0.638181       -17.3658 
 114   2.0000      -0.637364       -17.3436 
 115   2.0000      -0.628104       -17.0916 
 116   2.0000      -0.622972       -16.9519 
 117   2.0000      -0.620733       -16.8910 
 118   2.0000      -0.612706       -16.6726 
 119   2.0000      -0.612040       -16.6545 
 120   2.0000      -0.611584       -16.6421 
 121   2.0000      -0.609592       -16.5879 
 122   2.0000      -0.600812       -16.3489 
 123   2.0000      -0.586815       -15.9680 
 124   2.0000      -0.581424       -15.8214 
 125   2.0000      -0.580781       -15.8038 
 126   2.0000      -0.579652       -15.7731 
 127   2.0000      -0.572320       -15.5736 
 128   2.0000      -0.568786       -15.4775 
 129   2.0000      -0.559546       -15.2260 
 130   2.0000      -0.551977       -15.0201 
 131   2.0000      -0.547583       -14.9005 
 132   2.0000      -0.542113       -14.7517 
 133   2.0000      -0.541901       -14.7459 
 134   2.0000      -0.538190       -14.6449 
 135   2.0000      -0.536046       -14.5865 
 136   2.0000      -0.529690       -14.4136 
 137   2.0000      -0.520876       -14.1737 
 138   2.0000      -0.516705       -14.0603 
 139   2.0000      -0.514502       -14.0003 
 140   2.0000      -0.512485       -13.9454 
 141   2.0000      -0.511034       -13.9059 
 142   2.0000      -0.508891       -13.8476 
 143   2.0000      -0.504380       -13.7249 
 144   2.0000      -0.502070       -13.6620 
 145   2.0000      -0.496420       -13.5083 
 146   2.0000      -0.491007       -13.3610 
 147   2.0000      -0.482684       -13.1345 
 148   2.0000      -0.478850       -13.0302 
 149   2.0000      -0.467005       -12.7079 
 150   2.0000      -0.466400       -12.6914 
 151   2.0000      -0.457207       -12.4412 
 152   2.0000      -0.451273       -12.2797 
 153   2.0000      -0.444860       -12.1053 
 154   2.0000      -0.440159       -11.9773 
 155   2.0000      -0.428029       -11.6473 
 156   2.0000      -0.420336       -11.4379 
 157   2.0000      -0.407904       -11.0996 
 158   2.0000      -0.399430       -10.8690 
 159   2.0000      -0.388241       -10.5646 
 160   2.0000      -0.385939       -10.5019 
 161   2.0000      -0.378517       -10.3000 
 162   2.0000      -0.369964       -10.0672 
 163   2.0000      -0.356444        -9.6993 
 164   2.0000      -0.355898        -9.6845 
 165   2.0000      -0.341485        -9.2923 
 166   2.0000      -0.337623        -9.1872 
 167   2.0000      -0.325180        -8.8486 
 168   2.0000      -0.322664        -8.7801 
 169   2.0000      -0.304696        -8.2912 
 170   2.0000      -0.299640        -8.1536 
 171   2.0000      -0.285560        -7.7705 
 172   2.0000      -0.280412        -7.6304 
 173   2.0000      -0.263541        -7.1713 
 174   2.0000      -0.241789        -6.5794 
 175   2.0000      -0.189940        -5.1685 
 176   2.0000      -0.180544        -4.9128 
 177   2.0000      -0.077556        -2.1104 
 178   2.0000      -0.059082        -1.6077 
 179   0.0000       0.028346         0.7713 
 180   0.0000       0.065725         1.7885 
 181   0.0000       0.090707         2.4683 
 182   0.0000       0.107949         2.9374 
 183   0.0000       0.112492         3.0611 
 184   0.0000       0.137137         3.7317 
 185   0.0000       0.139413         3.7936 
 186   0.0000       0.142313         3.8725 
 187   0.0000       0.163683         4.4540 
 188   0.0000       0.165291         4.4978 
 189   0.0000       0.165604         4.5063 
 190   0.0000       0.171433         4.6649 
 191   0.0000       0.181760         4.9460 
 192   0.0000       0.185158         5.0384 
 193   0.0000       0.188103         5.1186 
 194   0.0000       0.205029         5.5791 
 195   0.0000       0.205559         5.5936 
 196   0.0000       0.208446         5.6721 
 197   0.0000       0.208546         5.6748 
 198   0.0000       0.217818         5.9271 
 199   0.0000       0.227914         6.2018 
 200   0.0000       0.232576         6.3287 
 201   0.0000       0.235044         6.3959 
 202   0.0000       0.239155         6.5077 
 203   0.0000       0.239771         6.5245 
 204   0.0000       0.247092         6.7237 
 205   0.0000       0.255947         6.9647 
 206   0.0000       0.256635         6.9834 
 207   0.0000       0.257297         7.0014 
 208   0.0000       0.258747         7.0409 
 209   0.0000       0.261100         7.1049 
 210   0.0000       0.263033         7.1575 
 211   0.0000       0.266715         7.2577 
 212   0.0000       0.269818         7.3421 
 213   0.0000       0.271804         7.3962 
 214   0.0000       0.272769         7.4224 
 215   0.0000       0.275853         7.5063 
 216   0.0000       0.277921         7.5626 
 217   0.0000       0.282379         7.6839 
 218   0.0000       0.286498         7.7960 
 219   0.0000       0.287704         7.8288 
 220   0.0000       0.289856         7.8874 
 221   0.0000       0.292065         7.9475 
 222   0.0000       0.295139         8.0312 
 223   0.0000       0.296482         8.0677 
 224   0.0000       0.297212         8.0876 
 225   0.0000       0.299510         8.1501 
 226   0.0000       0.305059         8.3011 
 227   0.0000       0.308877         8.4050 
 228   0.0000       0.310150         8.4396 
 229   0.0000       0.324709         8.8358 
 230   0.0000       0.327418         8.9095 
 231   0.0000       0.332943         9.0598 
 232   0.0000       0.340715         9.2713 
 233   0.0000       0.348365         9.4795 
 234   0.0000       0.354716         9.6523 
 235   0.0000       0.360240         9.8026 
 236   0.0000       0.376138        10.2352 
 237   0.0000       0.388519        10.5721 
 238   0.0000       0.394072        10.7233 
 239   0.0000       0.397041        10.8040 
 240   0.0000       0.401749        10.9322 
 241   0.0000       0.409584        11.1453 
 242   0.0000       0.412823        11.2335 
 243   0.0000       0.419337        11.4107 
 244   0.0000       0.429285        11.6814 
 245   0.0000       0.434000        11.8097 
 246   0.0000       0.436458        11.8766 
 247   0.0000       0.440888        11.9972 
 248   0.0000       0.441989        12.0271 
 249   0.0000       0.448261        12.1978 
 250   0.0000       0.457706        12.4548 
 251   0.0000       0.464915        12.6510 
 252   0.0000       0.469262        12.7693 
 253   0.0000       0.470274        12.7968 
 254   0.0000       0.472206        12.8494 
 255   0.0000       0.474706        12.9174 
 256   0.0000       0.476348        12.9621 
 257   0.0000       0.480012        13.0618 
 258   0.0000       0.487573        13.2675 
 259   0.0000       0.496836        13.5196 
 260   0.0000       0.503763        13.7081 
 261   0.0000       0.505497        13.7553 
 262   0.0000       0.506415        13.7803 
 263   0.0000       0.510431        13.8895 
 264   0.0000       0.515124        14.0172 
 265   0.0000       0.519519        14.1368 
 266   0.0000       0.524339        14.2680 
 267   0.0000       0.529468        14.4076 
 268   0.0000       0.532641        14.4939 
 269   0.0000       0.536636        14.6026 
 270   0.0000       0.542486        14.7618 
 271   0.0000       0.545113        14.8333 
 272   0.0000       0.556925        15.1547 
 273   0.0000       0.559231        15.2174 
 274   0.0000       0.561459        15.2781 
 275   0.0000       0.565634        15.3917 
 276   0.0000       0.570068        15.5123 
 277   0.0000       0.573398        15.6030 
 278   0.0000       0.578149        15.7322 
 279   0.0000       0.586566        15.9613 
 280   0.0000       0.590630        16.0719 
 281   0.0000       0.593078        16.1385 
 282   0.0000       0.594327        16.1725 
 283   0.0000       0.595448        16.2030 
 284   0.0000       0.598019        16.2729 
 285   0.0000       0.599987        16.3265 
 286   0.0000       0.606614        16.5068 
 287   0.0000       0.611679        16.6446 
 288   0.0000       0.616918        16.7872 
 289   0.0000       0.623484        16.9659 
 290   0.0000       0.626355        17.0440 
 291   0.0000       0.628812        17.1108 
 292   0.0000       0.634864        17.2755 
 293   0.0000       0.638789        17.3823 
 294   0.0000       0.644438        17.5361 
 295   0.0000       0.647760        17.6264 
 296   0.0000       0.652637        17.7592 
 297   0.0000       0.655578        17.8392 
 298   0.0000       0.661839        18.0096 
 299   0.0000       0.666858        18.1461 
 300   0.0000       0.672308        18.2944 
 301   0.0000       0.675047        18.3690 
 302   0.0000       0.676933        18.4203 
 303   0.0000       0.679223        18.4826 
 304   0.0000       0.681151        18.5351 
 305   0.0000       0.684653        18.6303 
 306   0.0000       0.688273        18.7289 
 307   0.0000       0.690943        18.8015 
 308   0.0000       0.695573        18.9275 
 309   0.0000       0.698300        19.0017 
 310   0.0000       0.702445        19.1145 
 311   0.0000       0.703688        19.1483 
 312   0.0000       0.706652        19.2290 
 313   0.0000       0.711430        19.3590 
 314   0.0000       0.712653        19.3923 
 315   0.0000       0.715780        19.4774 
 316   0.0000       0.717441        19.5225 
 317   0.0000       0.717752        19.5310 
 318   0.0000       0.722686        19.6653 
 319   0.0000       0.723497        19.6874 
 320   0.0000       0.726846        19.7785 
 321   0.0000       0.729907        19.8618 
 322   0.0000       0.731624        19.9085 
 323   0.0000       0.733001        19.9460 
 324   0.0000       0.734683        19.9917 
 325   0.0000       0.740123        20.1398 
 326   0.0000       0.743847        20.2411 
 327   0.0000       0.749581        20.3971 
 328   0.0000       0.753094        20.4927 
 329   0.0000       0.753743        20.5104 
 330   0.0000       0.756085        20.5741 
 331   0.0000       0.759888        20.6776 
 332   0.0000       0.760810        20.7027 
 333   0.0000       0.766954        20.8699 
 334   0.0000       0.768206        20.9039 
 335   0.0000       0.772404        21.0182 
 336   0.0000       0.775595        21.1050 
 337   0.0000       0.781714        21.2715 
 338   0.0000       0.781979        21.2787 
 339   0.0000       0.788862        21.4660 
 340   0.0000       0.793257        21.5856 
 341   0.0000       0.794074        21.6079 
 342   0.0000       0.797640        21.7049 
 343   0.0000       0.802917        21.8485 
 344   0.0000       0.805312        21.9137 
 345   0.0000       0.807689        21.9783 
 346   0.0000       0.808646        22.0044 
 347   0.0000       0.814320        22.1588 
 348   0.0000       0.815461        22.1898 
 349   0.0000       0.817617        22.2485 
 350   0.0000       0.820145        22.3173 
 351   0.0000       0.821510        22.3544 
 352   0.0000       0.823457        22.4074 
 353   0.0000       0.826457        22.4890 
 354   0.0000       0.828209        22.5367 
 355   0.0000       0.832666        22.6580 
 356   0.0000       0.833321        22.6758 
 357   0.0000       0.836222        22.7548 
 358   0.0000       0.837790        22.7974 
 359   0.0000       0.839702        22.8494 
 360   0.0000       0.840323        22.8663 
 361   0.0000       0.842852        22.9352 
 362   0.0000       0.844361        22.9762 
 363   0.0000       0.848841        23.0981 
 364   0.0000       0.849484        23.1156 
 365   0.0000       0.855139        23.2695 
 366   0.0000       0.857385        23.3306 
 367   0.0000       0.861027        23.4297 
 368   0.0000       0.865197        23.5432 
 369   0.0000       0.867758        23.6129 
 370   0.0000       0.871292        23.7091 
 371   0.0000       0.872443        23.7404 
 372   0.0000       0.874482        23.7959 
 373   0.0000       0.875743        23.8302 
 374   0.0000       0.878647        23.9092 
 375   0.0000       0.883733        24.0476 
 376   0.0000       0.886057        24.1108 
 377   0.0000       0.889855        24.2142 
 378   0.0000       0.891214        24.2512 
 379   0.0000       0.892121        24.2759 
 380   0.0000       0.897076        24.4107 
 381   0.0000       0.898636        24.4531 
 382   0.0000       0.899708        24.4823 
 383   0.0000       0.900911        24.5150 
 384   0.0000       0.905333        24.6354 
 385   0.0000       0.905694        24.6452 
 386   0.0000       0.908065        24.7097 
 387   0.0000       0.909620        24.7520 
 388   0.0000       0.912948        24.8426 
 389   0.0000       0.916350        24.9351 
 390   0.0000       0.920721        25.0541 
 391   0.0000       0.924704        25.1625 
 392   0.0000       0.926385        25.2082 
 393   0.0000       0.927539        25.2396 
 394   0.0000       0.928700        25.2712 
 395   0.0000       0.930345        25.3160 
 396   0.0000       0.934749        25.4358 
 397   0.0000       0.939946        25.5772 
 398   0.0000       0.942146        25.6371 
 399   0.0000       0.943879        25.6842 
 400   0.0000       0.947071        25.7711 
 401   0.0000       0.952839        25.9281 
 402   0.0000       0.953503        25.9461 
 403   0.0000       0.956270        26.0214 
 404   0.0000       0.959942        26.1213 
 405   0.0000       0.963052        26.2060 
 406   0.0000       0.969566        26.3832 
 407   0.0000       0.973097        26.4793 
 408   0.0000       0.979962        26.6661 
 409   0.0000       0.981874        26.7182 
 410   0.0000       0.984976        26.8026 
 411   0.0000       0.986975        26.8570 
 412   0.0000       0.993662        27.0389 
 413   0.0000       0.999493        27.1976 
 414   0.0000       1.002400        27.2767 
 415   0.0000       1.006202        27.3801 
 416   0.0000       1.012435        27.5498 
 417   0.0000       1.013463        27.5777 
 418   0.0000       1.023684        27.8559 
 419   0.0000       1.030564        28.0431 
 420   0.0000       1.032368        28.0922 
 421   0.0000       1.035248        28.1705 
 422   0.0000       1.040559        28.3150 
 423   0.0000       1.049765        28.5656 
 424   0.0000       1.056631        28.7524 
 425   0.0000       1.057834        28.7851 
 426   0.0000       1.063959        28.9518 
 427   0.0000       1.068100        29.0645 
 428   0.0000       1.077437        29.3186 
 429   0.0000       1.084498        29.5107 
 430   0.0000       1.086185        29.5566 
 431   0.0000       1.089329        29.6422 
 432   0.0000       1.094657        29.7871 
 433   0.0000       1.097095        29.8535 
 434   0.0000       1.101924        29.9849 
 435   0.0000       1.104431        30.0531 
 436   0.0000       1.108530        30.1646 
 437   0.0000       1.111532        30.2463 
 438   0.0000       1.115570        30.3562 
 439   0.0000       1.120623        30.4937 
 440   0.0000       1.121014        30.5043 
 441   0.0000       1.124101        30.5884 
 442   0.0000       1.125503        30.6265 
 443   0.0000       1.128601        30.7108 
 444   0.0000       1.135180        30.8898 
 445   0.0000       1.136594        30.9283 
 446   0.0000       1.140285        31.0287 
 447   0.0000       1.146227        31.1904 
 448   0.0000       1.149355        31.2755 
 449   0.0000       1.150331        31.3021 
 450   0.0000       1.154368        31.4119 
 451   0.0000       1.159406        31.5490 
 452   0.0000       1.164881        31.6980 
 453   0.0000       1.167153        31.7599 
 454   0.0000       1.169290        31.8180 
 455   0.0000       1.171544        31.8793 
 456   0.0000       1.176818        32.0229 
 457   0.0000       1.182040        32.1649 
 458   0.0000       1.185009        32.2457 
 459   0.0000       1.194264        32.4976 
 460   0.0000       1.197466        32.5847 
 461   0.0000       1.199739        32.6466 
 462   0.0000       1.200393        32.6643 
 463   0.0000       1.205817        32.8119 
 464   0.0000       1.208643        32.8888 
 465   0.0000       1.213491        33.0208 
 466   0.0000       1.216931        33.1144 
 467   0.0000       1.220470        33.2107 
 468   0.0000       1.224392        33.3174 
 469   0.0000       1.226540        33.3759 
 470   0.0000       1.229485        33.4560 
 471   0.0000       1.233813        33.5738 
 472   0.0000       1.236263        33.6404 
 473   0.0000       1.239577        33.7306 
 474   0.0000       1.243176        33.8286 
 475   0.0000       1.243469        33.8365 
 476   0.0000       1.249648        34.0046 
 477   0.0000       1.250611        34.0309 
 478   0.0000       1.251923        34.0666 
 479   0.0000       1.255831        34.1729 
 480   0.0000       1.260348        34.2958 
 481   0.0000       1.263481        34.3811 
 482   0.0000       1.264726        34.4149 
 483   0.0000       1.271625        34.6027 
 484   0.0000       1.276424        34.7333 
 485   0.0000       1.280360        34.8404 
 486   0.0000       1.282683        34.9036 
 487   0.0000       1.286527        35.0082 
 488   0.0000       1.289173        35.0802 
 489   0.0000       1.292830        35.1797 
 490   0.0000       1.295204        35.2443 
 491   0.0000       1.299154        35.3518 
 492   0.0000       1.301525        35.4163 
 493   0.0000       1.310936        35.6724 
 494   0.0000       1.311335        35.6832 
 495   0.0000       1.318326        35.8735 
 496   0.0000       1.319741        35.9120 
 497   0.0000       1.320847        35.9421 
 498   0.0000       1.326411        36.0935 
 499   0.0000       1.329447        36.1761 
 500   0.0000       1.332301        36.2538 
 501   0.0000       1.340284        36.4710 
 502   0.0000       1.341506        36.5042 
 503   0.0000       1.346078        36.6286 
 504   0.0000       1.347679        36.6722 
 505   0.0000       1.349717        36.7277 
 506   0.0000       1.351822        36.7850 
 507   0.0000       1.355280        36.8790 
 508   0.0000       1.358371        36.9632 
 509   0.0000       1.361125        37.0381 
[...]
      pz      :     0.022112  p :     0.079768
      px      :     0.043593
      py      :     0.014063
 77 H s       :     0.884778  s :     0.884778
      pz      :     0.047957  p :     0.079269
      px      :     0.015023
      py      :     0.016289
 78 H s       :     0.885115  s :     0.885115
      pz      :     0.025873  p :     0.079238
      px      :     0.020461
      py      :     0.032904
 79 H s       :     0.910673  s :     0.910673
      pz      :     0.021807  p :     0.086320
      px      :     0.021666
      py      :     0.042847
 80 H s       :     0.864756  s :     0.864756
      pz      :     0.039362  p :     0.084784
      px      :     0.030259
      py      :     0.015163
 81 H s       :     0.886785  s :     0.886785
      pz      :     0.037822  p :     0.084115
      px      :     0.016177
      py      :     0.030116
 82 H s       :     0.915903  s :     0.915903
      pz      :     0.021952  p :     0.086736
      px      :     0.031641
      py      :     0.033142
 83 H s       :     0.873266  s :     0.873266
      pz      :     0.039286  p :     0.084099
      px      :     0.015271
      py      :     0.029542
 84 H s       :     0.886596  s :     0.886596
      pz      :     0.035778  p :     0.083450
      px      :     0.031702
      py      :     0.015970
 85 H s       :     0.892768  s :     0.892768
      pz      :     0.022493  p :     0.079790
      px      :     0.014066
      py      :     0.043231
 86 H s       :     0.890915  s :     0.890915
      pz      :     0.024733  p :     0.078836
      px      :     0.032985
      py      :     0.021118
 87 H s       :     0.889833  s :     0.889833
      pz      :     0.048015  p :     0.078742
      px      :     0.015588
      py      :     0.015139
 88 H s       :     0.910694  s :     0.910694
      pz      :     0.021631  p :     0.087009
      px      :     0.042926
      py      :     0.022452
 89 H s       :     0.871305  s :     0.871305
      pz      :     0.037949  p :     0.083844
      px      :     0.030486
      py      :     0.015409


                      *****************************
                      * MAYER POPULATION ANALYSIS *
                      *****************************

  NA   - Mulliken gross atomic population
  ZA   - Total nuclear charge
  QA   - Mulliken gross atomic charge
  VA   - Mayer's total valence
  BVA  - Mayer's bonded valence
  FA   - Mayer's free valence

  ATOM       NA         ZA         QA         VA         BVA        FA
  0 C      5.7872     6.0000     0.2128     3.8443     3.8443    -0.0000
  1 N      7.4561     7.0000    -0.4561     3.3354     3.3354     0.0000
  2 C      6.0691     6.0000    -0.0691     3.9219     3.9219     0.0000
  3 N      7.3388     7.0000    -0.3388     3.4567     3.4567     0.0000
  4 C      6.0505     6.0000    -0.0505     4.0548     4.0548     0.0000
  5 N      7.5660     7.0000    -0.5660     3.0948     3.0948    -0.0000
  6 C      6.1099     6.0000    -0.1099     3.9665     3.9665     0.0000
  7 N      7.3406     7.0000    -0.3406     3.4333     3.4333    -0.0000
  8 C      5.7915     6.0000     0.2085     3.8446     3.8446     0.0000
  9 N      7.5622     7.0000    -0.5622     3.0773     3.0773     0.0000
 10 C      5.8811     6.0000     0.1189     3.9091     3.9091     0.0000
 11 N      7.4385     7.0000    -0.4385     3.3776     3.3776    -0.0000
 12 C      6.0756     6.0000    -0.0756     3.8833     3.8833     0.0000
 13 N      7.4300     7.0000    -0.4300     3.4254     3.4254    -0.0000
 14 C      5.7713     6.0000     0.2287     3.7879     3.7879    -0.0000
 15 N      7.4409     7.0000    -0.4409     3.3727     3.3727     0.0000
 16 C      5.7711     6.0000     0.2289     3.7772     3.7772    -0.0000
 17 C      6.1228     6.0000    -0.1228     3.9796     3.9796    -0.0000
 18 C      6.1891     6.0000    -0.1891     3.7653     3.7653    -0.0000
 19 C      5.7791     6.0000     0.2209     3.8650     3.8650    -0.0000
 20 C      5.7870     6.0000     0.2130     3.8291     3.8291     0.0000
 21 C      6.0832     6.0000    -0.0832     3.8624     3.8624     0.0000
 22 C      6.0912     6.0000    -0.0912     3.9829     3.9829     0.0000
 23 C      6.0399     6.0000    -0.0399     3.9926     3.9926    -0.0000
 24 C      5.8061     6.0000     0.1939     3.8214     3.8214    -0.0000
 25 C      5.8853     6.0000     0.1147     3.8917     3.8917    -0.0000
 26 C      6.0867     6.0000    -0.0867     3.9108     3.9108    -0.0000
 27 C      5.7863     6.0000     0.2137     3.8625     3.8625    -0.0000
 28 C      6.0614     6.0000    -0.0614     3.9887     3.9887    -0.0000
 29 C      6.1810     6.0000    -0.1810     3.7451     3.7451     0.0000
 30 C      5.7541     6.0000     0.2459     3.8006     3.8006     0.0000
 31 C      5.7710     6.0000     0.2290     3.8177     3.8177     0.0000
 32 C      6.0620     6.0000    -0.0620     3.9227     3.9227    -0.0000
 33 C      6.0615     6.0000    -0.0615     3.9723     3.9723    -0.0000
 34 C      6.0513     6.0000    -0.0513     3.9840     3.9840     0.0000
 35 C      5.7728     6.0000     0.2272     3.8171     3.8171    -0.0000
 36 C      5.8914     6.0000     0.1086     3.8757     3.8757     0.0000
 37 C      6.0643     6.0000    -0.0643     3.9178     3.9178    -0.0000
 38 C      5.7688     6.0000     0.2312     3.8002     3.8002    -0.0000
 39 C      6.0577     6.0000    -0.0577     3.9836     3.9836     0.0000
 40 C      6.1817     6.0000    -0.1817     3.7280     3.7280    -0.0000
 41 C      5.7741     6.0000     0.2259     3.8868     3.8868    -0.0000
 42 C      5.8022     6.0000     0.1978     3.8258     3.8258    -0.0000
 43 C      6.0723     6.0000    -0.0723     3.9001     3.9001    -0.0000
 44 C      6.0893     6.0000    -0.0893     3.9849     3.9849    -0.0000
 45 C      6.0610     6.0000    -0.0610     3.9921     3.9921     0.0000
 46 C      5.7885     6.0000     0.2115     3.8283     3.8283    -0.0000
 47 C      5.8847     6.0000     0.1153     3.8928     3.8928     0.0000
 48 C      6.0671     6.0000    -0.0671     3.9094     3.9094    -0.0000
 49 C      5.7615     6.0000     0.2385     3.8934     3.8934     0.0000
 50 C      6.0467     6.0000    -0.0467     3.9904     3.9904    -0.0000
 51 C      6.1923     6.0000    -0.1923     3.7362     3.7362    -0.0000
 52 H      0.9623     1.0000     0.0377     0.9859     0.9859    -0.0000
 53 H      1.0173     1.0000    -0.0173     0.9985     0.9985    -0.0000
 54 H      0.9497     1.0000     0.0503     1.0196     1.0196     0.0000
 55 H      0.9634     1.0000     0.0366     0.9866     0.9866     0.0000
 56 H      0.9505     1.0000     0.0495     0.9695     0.9695     0.0000
 57 H      0.9522     1.0000     0.0478     0.9828     0.9828    -0.0000
 58 H      0.9527     1.0000     0.0473     0.9847     0.9847     0.0000
 59 H      1.0008     1.0000    -0.0008     1.0011     1.0011     0.0000
 60 H      0.9529     1.0000     0.0471     1.0166     1.0166     0.0000
 61 H      0.8288     1.0000     0.1712     1.0421     1.0421     0.0000
 62 H      0.8247     1.0000     0.1753     1.0436     1.0436     0.0000
 63 H      0.9450     1.0000     0.0550     0.9853     0.9853     0.0000
 64 H      1.0135     1.0000    -0.0135     0.9943     0.9943     0.0000
 65 H      0.9529     1.0000     0.0471     1.0097     1.0097     0.0000
 66 H      0.9444     1.0000     0.0556     0.9855     0.9855    -0.0000
 67 H      0.9378     1.0000     0.0622     0.9719     0.9719     0.0000
 68 H      0.9428     1.0000     0.0572     0.9868     0.9868    -0.0000
 69 H      0.9437     1.0000     0.0563     0.9828     0.9828     0.0000
 70 H      1.0301     1.0000    -0.0301     0.9938     0.9938     0.0000
 71 H      0.9554     1.0000     0.0446     1.0059     1.0059    -0.0000
 72 H      0.9294     1.0000     0.0706     0.9836     0.9836    -0.0000
 73 H      1.0082     1.0000    -0.0082     1.0009     1.0009    -0.0000
 74 H      0.9403     1.0000     0.0597     1.0100     1.0100     0.0000
 75 H      0.9300     1.0000     0.0700     0.9839     0.9839    -0.0000
 76 H      0.9257     1.0000     0.0743     0.9721     0.9721     0.0000
 77 H      0.9325     1.0000     0.0675     0.9854     0.9854    -0.0000
 78 H      0.9332     1.0000     0.0668     0.9854     0.9854    -0.0000
 79 H      1.0165     1.0000    -0.0165     0.9975     0.9975    -0.0000
 80 H      0.9394     1.0000     0.0606     1.0072     1.0072     0.0000
 81 H      0.9456     1.0000     0.0544     0.9856     0.9856     0.0000
 82 H      1.0247     1.0000    -0.0247     0.9935     0.9935     0.0000
 83 H      0.9578     1.0000     0.0422     1.0083     1.0083    -0.0000
 84 H      0.9456     1.0000     0.0544     0.9852     0.9852    -0.0000
 85 H      0.9390     1.0000     0.0610     0.9716     0.9716    -0.0000
 86 H      0.9443     1.0000     0.0557     0.9839     0.9839    -0.0000
 87 H      0.9427     1.0000     0.0573     0.9856     0.9856    -0.0000
 88 H      1.0147     1.0000    -0.0147     0.9967     0.9967    -0.0000
 89 H      0.9535     1.0000     0.0465     1.0075     1.0075    -0.0000

  Mayer bond orders larger than 0.100000
B(  0-C ,  1-N ) :   1.0962 B(  0-C , 17-C ) :   1.7055 B(  0-C , 52-H ) :   0.9657 
B(  1-N ,  8-C ) :   1.0874 B(  1-N , 10-C ) :   0.9774 B(  2-C , 12-C ) :   1.5009 
B(  2-C , 16-C ) :   1.3617 B(  2-C , 53-H ) :   0.9743 B(  3-N , 14-C ) :   1.2201 
B(  3-N , 16-C ) :   1.1864 B(  3-N , 61-H ) :   0.8990 B(  4-C ,  6-C ) :   1.2114 
B(  4-C , 17-C ) :   1.2133 B(  4-C , 18-C ) :   1.4521 B(  5-N , 19-C ) :   1.4541 
B(  5-N , 27-C ) :   1.3762 B(  6-C ,  8-C ) :   1.7143 B(  6-C , 54-H ) :   0.9300 
B(  7-N , 30-C ) :   1.1960 B(  7-N , 38-C ) :   1.1899 B(  7-N , 62-H ) :   0.8969 
B(  8-C , 55-H ) :   0.9655 B(  9-N , 41-C ) :   1.3949 B(  9-N , 49-C ) :   1.4248 
B( 10-C , 56-H ) :   0.9773 B( 10-C , 57-H ) :   0.9822 B( 10-C , 58-H ) :   0.9843 
B( 11-N , 20-C ) :   1.1303 B( 11-N , 24-C ) :   1.1070 B( 11-N , 25-C ) :   0.9604 
B( 12-C , 14-C ) :   1.3565 B( 12-C , 59-H ) :   0.9649 B( 13-N , 31-C ) :   1.1591 
B( 13-N , 35-C ) :   1.1579 B( 13-N , 36-C ) :   0.9423 B( 14-C , 18-C ) :   1.1258 
B( 15-N , 42-C ) :   1.1083 B( 15-N , 46-C ) :   1.1241 B( 15-N , 47-C ) :   0.9612 
B( 16-C , 51-C ) :   1.1701 B( 17-C , 60-H ) :   0.9420 B( 18-C , 19-C ) :   1.1277 
B( 19-C , 21-C ) :   1.2496 B( 20-C , 28-C ) :   1.6291 B( 20-C , 63-H ) :   0.9703 
B( 21-C , 26-C ) :   1.5938 B( 21-C , 64-H ) :   0.9531 B( 22-C , 23-C ) :   1.2885 
B( 22-C , 28-C ) :   1.2637 B( 22-C , 29-C ) :   1.2259 B( 23-C , 24-C ) :   1.6209 
B( 23-C , 65-H ) :   0.9703 B( 24-C , 66-H ) :   0.9695 B( 25-C , 67-H ) :   0.9760 
B( 25-C , 68-H ) :   0.9828 B( 25-C , 69-H ) :   0.9823 B( 26-C , 27-C ) :   1.2512 
B( 26-C , 70-H ) :   0.9695 B( 27-C , 29-C ) :   1.2085 B( 28-C , 71-H ) :   0.9720 
B( 29-C , 30-C ) :   1.2438 B( 30-C , 32-C ) :   1.2813 B( 31-C , 39-C ) :   1.5901 
B( 31-C , 72-H ) :   0.9682 B( 32-C , 37-C ) :   1.5773 B( 32-C , 73-H ) :   0.9786 
B( 33-C , 34-C ) :   1.3052 B( 33-C , 39-C ) :   1.3023 B( 33-C , 40-C ) :   1.1801 
B( 34-C , 35-C ) :   1.5877 B( 34-C , 74-H ) :   0.9697 B( 35-C , 75-H ) :   0.9682 
B( 36-C , 76-H ) :   0.9767 B( 36-C , 77-H ) :   0.9816 B( 36-C , 78-H ) :   0.9824 
B( 37-C , 38-C ) :   1.2870 B( 37-C , 79-H ) :   0.9765 B( 38-C , 40-C ) :   1.2321 
B( 39-C , 80-H ) :   0.9706 B( 40-C , 41-C ) :   1.2494 B( 41-C , 43-C ) :   1.1854 
B( 42-C , 50-C ) :   1.6327 B( 42-C , 81-H ) :   0.9696 B( 43-C , 48-C ) :   1.6674 
B( 43-C , 82-H ) :   0.9722 B( 44-C , 45-C ) :   1.2642 B( 44-C , 50-C ) :   1.2725 
B( 44-C , 51-C ) :   1.2595 B( 45-C , 46-C ) :   1.6342 B( 45-C , 83-H ) :   0.9718 
B( 46-C , 84-H ) :   0.9700 B( 47-C , 85-H ) :   0.9762 B( 47-C , 86-H ) :   0.9829 
B( 47-C , 87-H ) :   0.9824 B( 48-C , 49-C ) :   1.1888 B( 48-C , 88-H ) :   0.9748 
B( 49-C , 51-C ) :   1.2431 B( 50-C , 89-H ) :   0.9709 

-------
TIMINGS
-------

Total SCF time: 0 days 0 hours 29 min 54 sec 

Total time                  ....    1794.924 sec
Sum of individual times     ....    1790.123 sec  ( 99.7%)

Fock matrix formation       ....    1766.794 sec  ( 98.4%)
Diagonalization             ....       6.997 sec  (  0.4%)
Density matrix formation    ....       0.667 sec  (  0.0%)
Population analysis         ....       0.522 sec  (  0.0%)
Initial guess               ....       2.055 sec  (  0.1%)
Orbital Transformation      ....       0.000 sec  (  0.0%)
Orbital Orthonormalization  ....       0.000 sec  (  0.0%)
DIIS solution               ....       3.562 sec  (  0.2%)
SOSCF solution              ....       8.474 sec  (  0.5%)

Maximum memory used throughout the entire SCF-calculation: 302.6 MB


           ************************************************************
           *        Program running with 16 parallel MPI-processes    *
           *              working on a common directory               *
           ************************************************************

------------------------------------------------------------------------------
                                ORCA  MP2 
------------------------------------------------------------------------------

Freezing NCore=104 chemical core electrons

----------
MP2 ENERGY (disk based algorithm)
----------

Dimension of the basis                    ...  918
Memory devoted to MP2                     ... 2000 MB   
Data format for buffers                   ... DOUBLE
Compression type for matrix containers    ... UNCOMPRESSED

-------------------------------
PARTIAL EXCHANGE TRANSFORMATION
-------------------------------

Transformation type                        ... one-operator
Generation of integrals (i,mue|j,nue)      ... ON
Generation of integrals (mue,kappa|nue,tau)... OFF
Generation of integrals (i,mue|a,nue)      ... OFF
Dimension of the basis                     ...  918
Number of internal MOs                     ...  127 (  52- 178)
Pair cutoff                                ... 2.500e-12 Eh
Number of AO pairs in the trafo            ... 421821
Total Number of distinct AO pairs          ... 421821
Memory devoted for trafo                   ... 2000.0 MB 
Max. Number of MO pairs treated together   ...  311      
Number Format for Storage                  ... Double (8 Byte)
Integral package used                      ... LIBINT

Starting integral evaluation:
    ... done with AO integral generation
Closing buffer AOK     (38.33 GB; CompressionRatio= 1.32)
Collecting buffer AOK 
Number of MO pairs included in the trafo   ... 8128
------------------------
SORTING OF (i,mue|j,nue)
------------------------

IBATCH = 1 of  2
IBATCH = 2 of  2
Closing buffer KAO     (51.03 GB; CompressionRatio= 1.00)
Collecting buffer KAO 
N(AO-Batches) Done                         ...  85927595 
N(AO-Batches) Skipped                      ...  82462239 
N(IJ)-pairs Skipped                        ...         0 
TOTAL TIME for half transformation         ...  3299.608 sec
AO-integral generation                     ...   215.722 sec
Half transformation                        ...   377.261 sec
K-integral sorting                         ...  2534.666 sec
Process 10:   Internal MO 132
Process  4:   Internal MO  84
Process 13:   Internal MO 156

Finished integral transformation - now doing MP2 part

OPERATOR COMBINATION   0   0: ij=( 52..178, 52..178)
Process  7:   Internal MO 108
Process  1:   Internal MO  60
Process  0:   Internal MO  54
Process  0:   Internal MO  57
Process  2:   Internal MO  69
Process  1:   Internal MO  63
Process  5:   Internal MO  93
Process  3:   Internal MO  78
Process  8:   Internal MO 117
Process  2:   Internal MO  72
Process  1:   Internal MO  66
Process 11:   Internal MO 141
Process  6:   Internal MO 102
Process  4:   Internal MO  87
Process 14:   Internal MO 165
Process  5:   Internal MO  96
Process  3:   Internal MO  81
Process  2:   Internal MO  75
Process  9:   Internal MO 126
Process  7:   Internal MO 111
Process 12:   Internal MO 150
Process  4:   Internal MO  90
Process 15:   Internal MO 174
Process 10:   Internal MO 135
Process  5:   Internal MO  99
Process  6:   Internal MO 105
Process  8:   Internal MO 120
Process 11:   Internal MO 144
Process 13:   Internal MO 159
Process  7:   Internal MO 114
Process  9:   Internal MO 129
Process 12:   Internal MO 153
Process 14:   Internal MO 168
Process  8:   Internal MO 123
Process 10:   Internal MO 138
Process 15:   Internal MO 177
Process 11:   Internal MO 147
Process 13:   Internal MO 162
Process 14:   Internal MO 171
-----------------------------------------------
 MP2 CORRELATION ENERGY   :     -7.285148593 Eh
-----------------------------------------------


-------
TIMINGS
-------
Total time                : 3844.213 sec
Integral trafo            : 3301.806 sec ( 85.9%)
K(i,j)                    :    6.948 sec (  0.2%)
T(i,j)                    :    0.122 sec (  0.0%)

---------------------------------------
MP2 TOTAL ENERGY:    -2130.850578592 Eh
---------------------------------------

Maximum memory used throughout the entire MP2-calculation: 2275.3 MB

-------------------------   --------------------
FINAL SINGLE POINT ENERGY     -2130.850578592406
-------------------------   --------------------


                            ***************************************
                            *     ORCA property calculations      *
                            ***************************************


  WARNING: The energy has been calculated at the MP2 level but the densities
           used in the property calculations are still SCF densities
           MP2 response densities have not been calculated 
           use %mp2 Density relaxed end
           or  %mp2 Density unrelaxed end

                                    ---------------------
                                    Active property flags
                                    ---------------------
   (+) Dipole Moment


------------------------------------------------------------------------------
                       ORCA ELECTRIC PROPERTIES CALCULATION
------------------------------------------------------------------------------

Dipole Moment Calculation                       ... on
Quadrupole Moment Calculation                   ... off
Polarizability Calculation                      ... off
GBWName                                         ... /scratch/allen/tmpyp4_amber_gaff2/conf1/conf1/Conf24.orca.gbw
Electron density                                ... /scratch/allen/tmpyp4_amber_gaff2/conf1/conf1/Conf24.orca.scfp
The origin for moment calculation is the CENTER OF MASS  = (-0.000848, -0.004665  0.003038)

-------------
DIPOLE MOMENT
-------------
                                X             Y             Z
Electronic contribution:      2.73288      -4.05601      -0.10721
Nuclear contribution   :     -0.04585       0.15264       0.12571
                        -----------------------------------------
Total Dipole Moment    :      2.68703      -3.90336       0.01850
                        -----------------------------------------
Magnitude (a.u.)       :      4.73885
Magnitude (Debye)      :     12.04520



--------------------
Rotational spectrum 
--------------------
 
Rotational constants in cm-1:     0.001503     0.001477     0.000760 
Rotational constants in MHz :    45.043978    44.283414    22.792496 

 Dipole components along the rotational axes: 
x,y,z [a.u.] :     3.418281     3.282004     0.022691 
x,y,z [Debye]:     8.688579     8.342192     0.057677 

 

Timings for individual modules:

Sum of individual times         ...     5666.973 sec (=  94.450 min)
GTO integral calculation        ...        3.273 sec (=   0.055 min)   0.1 %
SCF iterations                  ...     1796.236 sec (=  29.937 min)  31.7 %
MP2 module                      ...     3867.465 sec (=  64.458 min)  68.2 %
                             ****ORCA TERMINATED NORMALLY****
TOTAL RUN TIME: 0 days 1 hours 34 minutes 30 seconds 340 msec
# of primitive gaussian functions

