
                                 *****************
                                 * O   R   C   A *
                                 *****************

                                            #,                                       
                                            ###                                      
                                            ####                                     
                                            #####                                    
                                            ######                                   
                                           ########,                                 
                                     ,,################,,,,,                         
                               ,,#################################,,                 
                          ,,##########################################,,             
                       ,#########################################, ''#####,          
                    ,#############################################,,   '####,        
                  ,##################################################,,,,####,       
                ,###########''''           ''''###############################       
              ,#####''   ,,,,##########,,,,          '''####'''          '####       
            ,##' ,,,,###########################,,,                        '##       
           ' ,,###''''                  '''############,,,                           
         ,,##''                                '''############,,,,        ,,,,,,###''
      ,#''                                            '''#######################'''  
     '                                                          ''''####''''         
             ,#######,   #######,   ,#######,      ##                                
            ,#'     '#,  ##    ##  ,#'     '#,    #''#        ######   ,####,        
            ##       ##  ##   ,#'  ##            #'  '#       #        #'  '#        
            ##       ##  #######   ##           ,######,      #####,   #    #        
            '#,     ,#'  ##    ##  '#,     ,#' ,#      #,         ##   #,  ,#        
             '#######'   ##     ##  '#######'  #'      '#     #####' # '####'        



                  #######################################################
                  #                        -***-                        #
                  #          Department of theory and spectroscopy      #
                  #    Directorship and core code : Frank Neese         #
                  #        Max Planck Institute fuer Kohlenforschung    #
                  #                Kaiser Wilhelm Platz 1               #
                  #                 D-45470 Muelheim/Ruhr               #
                  #                      Germany                        #
                  #                                                     #
                  #                  All rights reserved                #
                  #                        -***-                        #
                  #######################################################


                         Program Version 5.0.4 -  RELEASE  -


 With contributions from (in alphabetic order):
   Daniel Aravena         : Magnetic Suceptibility
   Michael Atanasov       : Ab Initio Ligand Field Theory (pilot matlab implementation)
   Alexander A. Auer      : GIAO ZORA, VPT2 properties, NMR spectrum
   Ute Becker             : Parallelization
   Giovanni Bistoni       : ED, misc. LED, open-shell LED, HFLD
   Martin Brehm           : Molecular dynamics
   Dmytro Bykov           : SCF Hessian
   Vijay G. Chilkuri      : MRCI spin determinant printing, contributions to CSF-ICE
   Dipayan Datta          : RHF DLPNO-CCSD density
   Achintya Kumar Dutta   : EOM-CC, STEOM-CC
   Dmitry Ganyushin       : Spin-Orbit,Spin-Spin,Magnetic field MRCI
   Miquel Garcia          : C-PCM and meta-GGA Hessian, CC/C-PCM, Gaussian charge scheme
   Yang Guo               : DLPNO-NEVPT2, F12-NEVPT2, CIM, IAO-localization
   Andreas Hansen         : Spin unrestricted coupled pair/coupled cluster methods
   Benjamin Helmich-Paris : MC-RPA, TRAH-SCF, COSX integrals
   Lee Huntington         : MR-EOM, pCC
   Robert Izsak           : Overlap fitted RIJCOSX, COSX-SCS-MP3, EOM
   Marcus Kettner         : VPT2
   Christian Kollmar      : KDIIS, OOCD, Brueckner-CCSD(T), CCSD density, CASPT2, CASPT2-K
   Simone Kossmann        : Meta GGA functionals, TD-DFT gradient, OOMP2, MP2 Hessian
   Martin Krupicka        : Initial AUTO-CI
   Lucas Lang             : DCDCAS
   Marvin Lechner         : AUTO-CI (C++ implementation), FIC-MRCC
   Dagmar Lenk            : GEPOL surface, SMD
   Dimitrios Liakos       : Extrapolation schemes; Compound Job, initial MDCI parallelization
   Dimitrios Manganas     : Further ROCIS development; embedding schemes
   Dimitrios Pantazis     : SARC Basis sets
   Anastasios Papadopoulos: AUTO-CI, single reference methods and gradients
   Taras Petrenko         : DFT Hessian,TD-DFT gradient, ASA, ECA, R-Raman, ABS, FL, XAS/XES, NRVS
   Peter Pinski           : DLPNO-MP2, DLPNO-MP2 Gradient
   Christoph Reimann      : Effective Core Potentials
   Marius Retegan         : Local ZFS, SOC
   Christoph Riplinger    : Optimizer, TS searches, QM/MM, DLPNO-CCSD(T), (RO)-DLPNO pert. Triples
   Tobias Risthaus        : Range-separated hybrids, TD-DFT gradient, RPA, STAB
   Michael Roemelt        : Original ROCIS implementation
   Masaaki Saitow         : Open-shell DLPNO-CCSD energy and density
   Barbara Sandhoefer     : DKH picture change effects
   Avijit Sen             : IP-ROCIS
   Kantharuban Sivalingam : CASSCF convergence, NEVPT2, FIC-MRCI
   Bernardo de Souza      : ESD, SOC TD-DFT
   Georgi Stoychev        : AutoAux, RI-MP2 NMR, DLPNO-MP2 response
   Willem Van den Heuvel  : Paramagnetic NMR
   Boris Wezisla          : Elementary symmetry handling
   Frank Wennmohs         : Technical directorship


 We gratefully acknowledge several colleagues who have allowed us to
 interface, adapt or use parts of their codes:
   Stefan Grimme, W. Hujo, H. Kruse, P. Pracht,  : VdW corrections, initial TS optimization,
                  C. Bannwarth, S. Ehlert          DFT functionals, gCP, sTDA/sTD-DF
   Ed Valeev, F. Pavosevic, A. Kumar             : LibInt (2-el integral package), F12 methods
   Garnet Chan, S. Sharma, J. Yang, R. Olivares  : DMRG
   Ulf Ekstrom                                   : XCFun DFT Library
   Mihaly Kallay                                 : mrcc  (arbitrary order and MRCC methods)
   Jiri Pittner, Ondrej Demel                    : Mk-CCSD
   Frank Weinhold                                : gennbo (NPA and NBO analysis)
   Christopher J. Cramer and Donald G. Truhlar   : smd solvation model
   Lars Goerigk                                  : TD-DFT with DH, B97 family of functionals
   V. Asgeirsson, H. Jonsson                     : NEB implementation
   FAccTs GmbH                                   : IRC, NEB, NEB-TS, DLPNO-Multilevel, CI-OPT
                                                   MM, QMMM, 2- and 3-layer-ONIOM, Crystal-QMMM,
                                                   LR-CPCM, SF, NACMEs, symmetry and pop. for TD-DFT,
                                                   nearIR, NL-DFT gradient (VV10), updates on ESD,
                                                   ML-optimized integration grids
   S Lehtola, MJT Oliveira, MAL Marques          : LibXC Library
   Liviu Ungur et al                             : ANISO software


 Your calculation uses the libint2 library for the computation of 2-el integrals
 For citations please refer to: http://libint.valeyev.net

 Your ORCA version has been built with support for libXC version: 5.1.0
 For citations please refer to: https://tddft.org/programs/libxc/

 This ORCA versions uses:
   CBLAS   interface :  Fast vector & matrix operations
   LAPACKE interface :  Fast linear algebra routines
   SCALAPACK package :  Parallel linear algebra routines
   Shared memory     :  Shared parallel matrices
   BLAS/LAPACK       :  OpenBLAS 0.3.15  USE64BITINT DYNAMIC_ARCH NO_AFFINITY Sandybridge SINGLE_THREADED
        Core in use  :  Sandybridge
   Copyright (c) 2011-2014, The OpenBLAS Project


================================================================================

----- Orbital basis set information -----
Your calculation utilizes the basis: cc-pVDZ 
       H, B-Ne : Obtained from the ccRepo (grant-hill.group.shef.ac.uk/ccrepo) Feb. 2017
                 T. H. Dunning, Jr., J. Chem. Phys. 90, 1007 (1989)
            He : Obtained from the ccRepo (grant-hill.group.shef.ac.uk/ccrepo) Feb. 2017
                 D. E. Woon, T. H. Dunning, Jr., J. Chem. Phys. 100, 2975 (1994)
  Li-Be, Na-Mg : Obtained from the ccRepo (grant-hill.group.shef.ac.uk/ccrepo) Feb. 2017
                 B. P. Prascher, D. E. Woon, K. A. Peterson, T. H. Dunning, Jr., A. K. Wilson, Theor. Chem. Acc. 128, 69 (2011)
         Al-Ar : Obtained from the ccRepo (grant-hill.group.shef.ac.uk/ccrepo) Feb. 2017
                 D. E. Woon, T. H. Dunning, Jr., J. Chem. Phys. 98, 1358 (1993)
            Ca : Obtained from the Peterson Research Group Website (tyr0.chem.wsu.edu/~kipeters) Feb. 2017
                 J. Koput, K. A. Peterson, J. Phys. Chem. 106, 9595 (2002)
         Sc-Zn : Obtained from the ccRepo (grant-hill.group.shef.ac.uk/ccrepo) Feb. 2017
                 N. B. Balabanov, K. A. Peterson, J. Chem. Phys. 123, 064107 (2005)
                 N. B. Balabanov, K. A. Peterson, J. Chem. Phys. 125, 074110 (2006)
         Ga-Kr : Obtained from the ccRepo (grant-hill.group.shef.ac.uk/ccrepo) Feb. 2017
                 A. K. Wilson, D. E. Woon, K. A. Peterson, T. H. Dunning, Jr., J. Chem. Phys. 110, 7667 (1999)

================================================================================
                                        WARNINGS
                       Please study these warnings very carefully!
================================================================================


WARNING: No MP2 level density has been requested!
         To caclulate MP2 level properties use
         %mp2 Density relaxed end
         or
         %mp2 Density unrelaxed end

WARNING: Post HF methods need fully converged wavefunctions
  ===> : Setting SCFConvForced true
         You can overwrite this default with %scf ConvForced false 


INFO   : the flag for use of the SHARK integral package has been found!

================================================================================
                                       INPUT FILE
================================================================================
NAME = /scratch/allen/tmpyp4_amber_gaff2/2.Mdgx/conf11/conf11/Conf345.orca
|  1> ! PAL2
|  2> ! mp2 cc-pvdz TightSCF  NoKeepInts
|  3> 
|  4> %scf
|  5>   MaxCore 2000
|  6> end
|  7> %mp2
|  8>   MaxCore 2000
|  9> end
| 10> * xyz 0 1
| 11>    C       -3.07600         6.45900         0.43900
| 12>    C        1.47400         4.04100         0.05700
| 13>    C       -2.80200         4.09300         0.04900
| 14>    C       -4.16300         4.04300        -0.29000
| 15>    C       -4.92800         5.19200        -0.25600
| 16>    C       -5.22300         7.59600         0.09600
| 17>    C        0.13200         4.30700         0.06100
| 18>    C       -0.56900         3.05600         0.04700
| 19>    C        1.64900         2.61800         0.02300
| 20>    C       -2.26800         5.33800         0.41500
| 21>    N       -4.38500         6.37600         0.10700
| 22>    N        0.38800         2.06700         0.02500
| 23>    N       -2.01000         0.39500        -0.07500
| 24>    N       -0.38800        -2.07400        -0.02700
| 25>    N        2.01000        -0.40100         0.06500
| 26>    C       -1.96000         2.86100         0.02400
| 27>    C       -2.62300         1.61500        -0.01800
| 28>    C       -5.57300        -4.32900         1.06600
| 29>    C       -4.07300         1.47100         0.05600
| 30>    C       -4.10600        -2.75600        -0.02600
| 31>    C       -4.99500        -2.75700        -1.11100
| 32>    C       -6.13200        -3.54200        -1.07600
| 33>    C       -7.65100        -5.11300         0.04000
| 34>    C       -4.32400         0.14100         0.03700
| 35>    C       -3.02500        -0.52000        -0.04800
| 36>    C       -4.42200        -3.56600         1.07500
| 37>    N       -6.40700        -4.31300         0.00100
| 38>    C       -2.86700        -1.92200        -0.04000
| 39>    C       -1.65000        -2.62400        -0.02700
| 40>    C        3.56800        -6.14200        -1.04000
| 41>    C       -1.47600        -4.04900        -0.03400
| 42>    C        2.80300        -4.09900        -0.00800
| 43>    C        3.65700        -4.38400         1.06900
| 44>    C        4.42700        -5.53000         1.05900
| 45>    C        5.24500        -7.58800         0.01400
| 46>    C       -0.13400        -4.31500        -0.02200
| 47>    C        0.56800        -3.06400        -0.02700
| 48>    C        2.77500        -5.01200        -1.07400
| 49>    N        4.37600        -6.39100         0.01700
| 50>    C        1.95900        -2.86900        -0.00900
| 51>    C        2.62100        -1.62200         0.00900
| 52>    C        5.54300         4.33900        -1.13000
| 53>    C        4.07000        -1.47900        -0.09400
| 54>    C        4.10400         2.75100        -0.02100
| 55>    C        5.02700         2.72900         1.03600
| 56>    C        6.16600         3.50900         0.97800
| 57>    C        7.61900         5.15300        -0.11500
| 58>    C        4.32100        -0.14800        -0.09200
| 59>    C        3.02500         0.51400         0.01500
| 60>    C        4.38700         3.58200        -1.11500
| 61>    C        2.86600         1.91600         0.01300
| 62>    N        6.41300         4.29600        -0.09500
| 63>    H       -2.71000         7.43700         0.72600
| 64>    H        2.27400         4.76600         0.08100
| 65>    H       -4.63100         3.11300        -0.59000
| 66>    H       -5.97900         5.20400        -0.51700
| 67>    H       -5.21800         8.02100        -0.91000
| 68>    H       -6.23800         7.32600         0.38500
| 69>    H       -4.80900         8.31100         0.80700
| 70>    H       -0.33200         5.28200         0.06900
| 71>    H       -1.22800         5.43900         0.70100
| 72>    H        0.18200         1.07200         0.00500
| 73>    H       -0.18300        -1.08000        -0.02100
| 74>    H       -5.86400        -4.96200         1.89500
| 75>    H       -4.79400         2.27200         0.13900
| 76>    H       -4.80000        -2.16000        -1.99400
| 77>    H       -6.84100        -3.58200        -1.89300
| 78>    H       -8.42800        -4.53600         0.54600
| 79>    H       -7.95600        -5.33700        -0.98100
| 80>    H       -7.45600        -6.03700         0.58400
| 81>    H       -5.28700        -0.34400         0.10000
| 82>    H       -3.78000        -3.60100         1.94700
| 83>    H        3.58700        -6.86800        -1.84300
| 84>    H       -2.27600        -4.77400        -0.05000
| 85>    H        3.71400        -3.72400         1.92600
| 86>    H        5.09200        -5.79500         1.87100
| 87>    H        6.20500        -7.32900        -0.43900
| 88>    H        5.39300        -7.91700         1.04200
| 89>    H        4.75900        -8.37300        -0.56400
| 90>    H        0.32900        -5.29000        -0.00800
| 91>    H        2.14600        -4.84200        -1.94000
| 92>    H        5.80800         4.98600        -1.95600
| 93>    H        4.78800        -2.28100        -0.18500
| 94>    H        4.86000         2.11400         1.91200
| 95>    H        6.90100         3.53100         1.77200
| 96>    H        7.38300         6.10900         0.35600
| 97>    H        8.41400         4.65200         0.43500
| 98>    H        7.92100         5.31000        -1.15000
| 99>    H        5.28300         0.33600        -0.17900
|100>    H        3.72000         3.63200        -1.96700
|101> *
|102> 
|103>                          ****END OF INPUT****
================================================================================

                       ****************************
                       * Single Point Calculation *
                       ****************************

---------------------------------
CARTESIAN COORDINATES (ANGSTROEM)
---------------------------------
  C     -3.076000    6.459000    0.439000
  C      1.474000    4.041000    0.057000
  C     -2.802000    4.093000    0.049000
  C     -4.163000    4.043000   -0.290000
  C     -4.928000    5.192000   -0.256000
  C     -5.223000    7.596000    0.096000
  C      0.132000    4.307000    0.061000
  C     -0.569000    3.056000    0.047000
  C      1.649000    2.618000    0.023000
  C     -2.268000    5.338000    0.415000
  N     -4.385000    6.376000    0.107000
  N      0.388000    2.067000    0.025000
  N     -2.010000    0.395000   -0.075000
  N     -0.388000   -2.074000   -0.027000
  N      2.010000   -0.401000    0.065000
  C     -1.960000    2.861000    0.024000
  C     -2.623000    1.615000   -0.018000
  C     -5.573000   -4.329000    1.066000
  C     -4.073000    1.471000    0.056000
  C     -4.106000   -2.756000   -0.026000
  C     -4.995000   -2.757000   -1.111000
  C     -6.132000   -3.542000   -1.076000
  C     -7.651000   -5.113000    0.040000
  C     -4.324000    0.141000    0.037000
  C     -3.025000   -0.520000   -0.048000
  C     -4.422000   -3.566000    1.075000
  N     -6.407000   -4.313000    0.001000
  C     -2.867000   -1.922000   -0.040000
  C     -1.650000   -2.624000   -0.027000
  C      3.568000   -6.142000   -1.040000
  C     -1.476000   -4.049000   -0.034000
  C      2.803000   -4.099000   -0.008000
  C      3.657000   -4.384000    1.069000
  C      4.427000   -5.530000    1.059000
  C      5.245000   -7.588000    0.014000
  C     -0.134000   -4.315000   -0.022000
  C      0.568000   -3.064000   -0.027000
  C      2.775000   -5.012000   -1.074000
  N      4.376000   -6.391000    0.017000
  C      1.959000   -2.869000   -0.009000
  C      2.621000   -1.622000    0.009000
  C      5.543000    4.339000   -1.130000
  C      4.070000   -1.479000   -0.094000
  C      4.104000    2.751000   -0.021000
  C      5.027000    2.729000    1.036000
  C      6.166000    3.509000    0.978000
  C      7.619000    5.153000   -0.115000
  C      4.321000   -0.148000   -0.092000
  C      3.025000    0.514000    0.015000
  C      4.387000    3.582000   -1.115000
  C      2.866000    1.916000    0.013000
  N      6.413000    4.296000   -0.095000
  H     -2.710000    7.437000    0.726000
  H      2.274000    4.766000    0.081000
  H     -4.631000    3.113000   -0.590000
  H     -5.979000    5.204000   -0.517000
  H     -5.218000    8.021000   -0.910000
  H     -6.238000    7.326000    0.385000
  H     -4.809000    8.311000    0.807000
  H     -0.332000    5.282000    0.069000
  H     -1.228000    5.439000    0.701000
  H      0.182000    1.072000    0.005000
  H     -0.183000   -1.080000   -0.021000
  H     -5.864000   -4.962000    1.895000
  H     -4.794000    2.272000    0.139000
  H     -4.800000   -2.160000   -1.994000
  H     -6.841000   -3.582000   -1.893000
  H     -8.428000   -4.536000    0.546000
  H     -7.956000   -5.337000   -0.981000
  H     -7.456000   -6.037000    0.584000
  H     -5.287000   -0.344000    0.100000
  H     -3.780000   -3.601000    1.947000
  H      3.587000   -6.868000   -1.843000
  H     -2.276000   -4.774000   -0.050000
  H      3.714000   -3.724000    1.926000
  H      5.092000   -5.795000    1.871000
  H      6.205000   -7.329000   -0.439000
  H      5.393000   -7.917000    1.042000
  H      4.759000   -8.373000   -0.564000
  H      0.329000   -5.290000   -0.008000
  H      2.146000   -4.842000   -1.940000
  H      5.808000    4.986000   -1.956000
  H      4.788000   -2.281000   -0.185000
  H      4.860000    2.114000    1.912000
  H      6.901000    3.531000    1.772000
  H      7.383000    6.109000    0.356000
  H      8.414000    4.652000    0.435000
  H      7.921000    5.310000   -1.150000
  H      5.283000    0.336000   -0.179000
  H      3.720000    3.632000   -1.967000

----------------------------
CARTESIAN COORDINATES (A.U.)
----------------------------
  NO LB      ZA    FRAG     MASS         X           Y           Z
   0 C     6.0000    0    12.011   -5.812798   12.205741    0.829590
   1 C     6.0000    0    12.011    2.785456    7.636383    0.107714
   2 C     6.0000    0    12.011   -5.295013    7.734649    0.092597
   3 C     6.0000    0    12.011   -7.866930    7.640163   -0.548021
   4 C     6.0000    0    12.011   -9.312570    9.811458   -0.483770
   5 C     6.0000    0    12.011   -9.870040   14.354360    0.181414
   6 C     6.0000    0    12.011    0.249444    8.139050    0.115273
   7 C     6.0000    0    12.011   -1.075254    5.775003    0.088817
   8 C     6.0000    0    12.011    3.116158    4.947303    0.043464
   9 C     6.0000    0    12.011   -4.285899   10.087358    0.784236
  10 N     7.0000    0    14.007   -8.286449   12.048894    0.202201
  11 N     7.0000    0    14.007    0.733214    3.906064    0.047243
  12 N     7.0000    0    14.007   -3.798350    0.746442   -0.141729
  13 N     7.0000    0    14.007   -0.733214   -3.919292   -0.051023
  14 N     7.0000    0    14.007    3.798350   -0.757780    0.122832
  15 C     6.0000    0    12.011   -3.703863    5.406506    0.045353
  16 C     6.0000    0    12.011   -4.956752    3.051908   -0.034015
  17 C     6.0000    0    12.011  -10.531444   -8.180624    2.014448
  18 C     6.0000    0    12.011   -7.696855    2.779787    0.105825
  19 C     6.0000    0    12.011   -7.759216   -5.208085   -0.049133
  20 C     6.0000    0    12.011   -9.439182   -5.209975   -2.099486
  21 C     6.0000    0    12.011  -11.587801   -6.693410   -2.033345
  22 C     6.0000    0    12.011  -14.458295   -9.662170    0.075589
  23 C     6.0000    0    12.011   -8.171176    0.266451    0.069920
  24 C     6.0000    0    12.011   -5.716422   -0.982658   -0.090707
  25 C     6.0000    0    12.011   -8.356369   -6.738763    2.031456
  26 N     7.0000    0    14.007  -12.107475   -8.150389    0.001890
  27 C     6.0000    0    12.011   -5.417845   -3.632054   -0.075589
  28 C     6.0000    0    12.011   -3.118048   -4.958641   -0.051023
  29 C     6.0000    0    12.011    6.742543  -11.606698   -1.965315
  30 C     6.0000    0    12.011   -2.789236   -7.651501   -0.064251
  31 C     6.0000    0    12.011    5.296902   -7.745987   -0.015118
  32 C     6.0000    0    12.011    6.910728   -8.284559    2.020117
  33 C     6.0000    0    12.011    8.365818  -10.450186    2.001220
  34 C     6.0000    0    12.011    9.911614  -14.339242    0.026456
  35 C     6.0000    0    12.011   -0.253223   -8.154168   -0.041574
  36 C     6.0000    0    12.011    1.073364   -5.790121   -0.051023
  37 C     6.0000    0    12.011    5.243990   -9.471307   -2.029566
  38 N     7.0000    0    14.007    8.269442  -12.077240    0.032125
  39 C     6.0000    0    12.011    3.701973   -5.421624   -0.017008
  40 C     6.0000    0    12.011    4.952972   -3.065136    0.017008
  41 C     6.0000    0    12.011   10.474752    8.199522   -2.135391
  42 C     6.0000    0    12.011    7.691185   -2.794905   -0.177634
  43 C     6.0000    0    12.011    7.755436    5.198637   -0.039684
  44 C     6.0000    0    12.011    9.499653    5.157063    1.957756
  45 C     6.0000    0    12.011   11.652051    6.631049    1.848152
  46 C     6.0000    0    12.011   14.397823    9.737759   -0.217319
  47 C     6.0000    0    12.011    8.165507   -0.279679   -0.173855
  48 C     6.0000    0    12.011    5.716422    0.971319    0.028346
  49 C     6.0000    0    12.011    8.290229    6.768999   -2.107045
  50 C     6.0000    0    12.011    5.415955    3.620715    0.024566
  51 N     7.0000    0    14.007   12.118814    8.118263   -0.179524
  52 H     1.0000    0     1.008   -5.121158   14.053893    1.371941
  53 H     1.0000    0     1.008    4.297237    9.006435    0.153068
  54 H     1.0000    0     1.008   -8.751322    5.882717   -1.114938
  55 H     1.0000    0     1.008  -11.298673    9.834135   -0.976988
  56 H     1.0000    0     1.008   -9.860591   15.157493   -1.719651
  57 H     1.0000    0     1.008  -11.788112   13.844134    0.727545
  58 H     1.0000    0     1.008   -9.087693   15.705514    1.525009
  59 H     1.0000    0     1.008   -0.627389    9.981533    0.130391
  60 H     1.0000    0     1.008   -2.320584   10.278220    1.324698
  61 H     1.0000    0     1.008    0.343930    2.025786    0.009449
  62 H     1.0000    0     1.008   -0.345820   -2.040904   -0.039684
  63 H     1.0000    0     1.008  -11.081354   -9.376821    3.581031
  64 H     1.0000    0     1.008   -9.059347    4.293458    0.262672
  65 H     1.0000    0     1.008   -9.070685   -4.081808   -3.768114
  66 H     1.0000    0     1.008  -12.927616   -6.768999   -3.577252
  67 H     1.0000    0     1.008  -15.926612   -8.571798    1.031790
  68 H     1.0000    0     1.008  -15.034661  -10.085468   -1.853821
  69 H     1.0000    0     1.008  -14.089798  -11.408277    1.103600
  70 H     1.0000    0     1.008   -9.990982   -0.650066    0.188973
  71 H     1.0000    0     1.008   -7.143165   -6.804904    3.679297
  72 H     1.0000    0     1.008    6.778448  -12.978639   -3.482765
  73 H     1.0000    0     1.008   -4.301017   -9.021553   -0.094486
  74 H     1.0000    0     1.008    7.018443   -7.037340    3.639613
  75 H     1.0000    0     1.008    9.622485  -10.950963    3.535678
  76 H     1.0000    0     1.008   11.725751  -13.849803   -0.829590
  77 H     1.0000    0     1.008   10.191293  -14.960962    1.969095
  78 H     1.0000    0     1.008    8.993207  -15.822677   -1.065806
  79 H     1.0000    0     1.008    0.621720   -9.996651   -0.015118
  80 H     1.0000    0     1.008    4.055352   -9.150054   -3.666069
  81 H     1.0000    0     1.008   10.975529    9.422175   -3.696304
  82 H     1.0000    0     1.008    9.048009   -4.310465   -0.349599
  83 H     1.0000    0     1.008    9.184069    3.994881    3.613156
  84 H     1.0000    0     1.008   13.041000    6.672623    3.348595
  85 H     1.0000    0     1.008   13.951848   11.544337    0.672743
  86 H     1.0000    0     1.008   15.900156    8.791006    0.822031
  87 H     1.0000    0     1.008   14.968521   10.034446   -2.173185
  88 H     1.0000    0     1.008    9.983423    0.634948   -0.338261
  89 H     1.0000    0     1.008    7.029781    6.863485   -3.717091

--------------------------------
INTERNAL COORDINATES (ANGSTROEM)
--------------------------------
 C      0   0   0     0.000000000000     0.00000000     0.00000000
 C      1   0   0     5.166734752240     0.00000000     0.00000000
 C      1   2   0     2.413531023211    55.20096672     0.00000000
 C      3   1   2     1.403474973058    87.92911851   193.23439218
 C      4   3   1     1.380790353385   120.11055982     0.11314230
 C      5   4   3     2.447477272622   152.58190287     1.70948858
 C      2   1   3     1.368114030335    17.24771975     4.84933188
 C      7   2   1     1.434084376876   108.05010202   193.23999728
 C      2   1   3     1.434123425651   125.00002273   350.30495563
 C      1   2   3     1.382056800569    26.39786488    14.71010360
 N      5   4   3     1.352210782386   120.84708799   359.73157164
 N      9   2   1     1.376127174356   106.58526707     3.73365338
 N     12   9   2     2.925062050624   168.53581413   171.12065651
 N     13  12   9     2.954513327098    91.55032014    11.12112580
 N     14  13  12     2.925371258490    88.43092389   359.84326247
 C      8   7   2     1.404790019896   127.24786865   181.11170171
 C     13  12   9     1.366535034311    81.72106996   188.00453233
 C     14  13  12     5.758810554272    80.56209567   166.76250791
 C     17  13  12     1.459010623676   111.08861209   183.82872609
 C     18  14  13     2.412235892279    27.27532823    36.33507194
 C     20  18  14     1.402692767501    87.95206320   148.94598259
 C     21  20  18     1.382106725257   120.14573887   359.70382047
 C     18  14  13     2.446510985056   144.15733107    82.80075377
 C     19  17  13     1.353610726908   106.29293361   359.75308708
 C     13  12   9     1.366813447402   172.21332906    33.46711076
 C     18  14  13     1.380960173213    15.08449437   309.23336894
 N     22  21  20     1.352773077792   120.73759875     0.27865223
 C     25  13  17     1.410897586645   125.60330303   182.37774668
 C     14  13  12     1.376642291955    80.24689249   177.85461986
 C     14  13  12     5.764089607215   164.51507311   312.20821879
 C     29  14  13     1.435600919476   106.58649366   178.76395472
 C     30  14  13     2.413316804732    27.10625047    82.12560436
 C     32  30  14     1.403734305344    87.90059683   149.76154742
 C     33  32  30     1.380694028378   120.14881443   359.74174632
 C     34  33  32     2.448777858443   152.49203239     2.45173620
 C     31  29  14     1.368160809262   108.16950133     0.70383075
 C     14  13  12     1.376239804685   169.26375223   353.09862627
 C     30  14  13     1.380907310430    14.68948582   353.70041132
 N     34  33  32     1.352658863128   120.85575621     0.19603406
 C     37  14  29     1.404717053360   126.01551127   180.90772073
 C     15  14  13     1.366491126938    81.61824056   183.09049352
 C      2   1   3     4.249062720177   146.21675104   148.47813171
 C     41  15  14     1.459677704153   111.05201287   175.08990246
 C     42   2   1     2.412953791518    41.78584867   174.11422933
 C     44  42   2     1.403446472082    87.95153797   233.97558675
 C     45  44  42     1.381696421071   120.11137308     0.19721020
 C     42   2   1     2.450019795838   135.97209175    84.42907843
 C     43  41  15     1.354461516618   106.26758155     0.30894352
 C     15  14  13     1.367461151185   171.87382904   332.35056460
 C     42   2   1     1.381886391857    32.59078432   222.96950852
 C      9   2   1     1.404988612053   126.98745415   184.73799091
 N     42   2   1     1.352765315936   113.57249190   112.16566762
 H      1   2   3     1.082963064929    98.31458900   173.44806010
 H      2   1   3     1.079907866440   109.66647630   174.49184349
 H      4   3   1     1.083477733966   121.08635625   179.56431027
 H      5   4   3     1.082989381296   122.74844638   179.46678694
 H      6   5   4     1.092101643621   104.43079330    99.99435244
 H      6   5   4     1.089332823337    84.66425435   209.49793077
 H      6   5   4     1.090019265885   133.81500655   322.35266771
 H      7   2   1     1.079807853278   126.66122480    13.47841106
 H     10   1   2     1.083326820493   118.75390143    25.64826505
 H     12   9   2     1.016297692608   125.29023241   180.00180175
 H     14  13  12     1.014936943854    44.97226959   359.42596618
 H     18  14  13     1.082871645210   128.03556573   234.20482432
 H     19  17  13     1.080893611786   126.41830519   178.11313280
 H     21  20  18     1.083569563987   121.05669627   180.67006309
 H     22  21  20     1.082483256222   122.73097286   180.59748951
 H     23  18  14     1.092105306278   103.92715769   234.93429879
 H     23  18  14     1.088871893291   134.19244188    12.25587044
 H     23  18  14     1.089833473518    84.85857450   125.45241208
 H     24  19  17     1.080075460327   127.28078426   178.44613241
 H     26  18  14     1.083408048706   118.76995697   244.94906660
 H     30  14  13     1.082703098730   127.99711412   279.66882698
 H     31  29  14     1.079759695488   125.22293469   180.92530585
 H     33  32  30     1.083188810873   121.01964473   180.74284758
 H     34  33  32     1.082494341787   122.70821597   180.59516895
 H     35  34  33     1.092652735319   105.73575241    97.19771933
 H     35  34  33     1.089462711615    84.05943581   206.43036958
 H     35  34  33     1.089268102902   133.08365142   318.50306270
 H     36  31  29     1.079439669458   126.61599965   178.98859863
 H     38  30  73     1.083742127999   118.77264435   359.90091293
 H     42   2   1     1.082178358682   119.31790784   328.79719807
 H     43  41  15     1.080281907652   126.36969097   182.06329380
 H     45  44  42     1.083277434455   121.10105945   179.58025624
 H     46  45  44     1.082194529648   122.72144639   179.46906377
 H     47  42   2     1.091546151109   106.65128841   315.16475048
 H     47  42   2     1.088818625851   132.46019523    94.52397119
 H     47  42   2     1.089531091801    83.63838232   206.04504406
 H     48  43  41     1.080402239909   127.23657387   181.62955349
 H     50  42   2     1.083186502870   118.77001737    94.71359229

---------------------------
INTERNAL COORDINATES (A.U.)
---------------------------
 C      0   0   0     0.000000000000     0.00000000     0.00000000
 C      1   0   0     9.763713688346     0.00000000     0.00000000
 C      1   2   0     4.560912649591    55.20096672     0.00000000
 C      3   1   2     2.652183334892    87.92911851   193.23439218
 C      4   3   1     2.609315616257   120.11055982     0.11314230
 C      5   4   3     4.625061764252   152.58190287     1.70948858
 C      2   1   3     2.585360837309    17.24771975     4.84933188
 C      7   2   1     2.710026725231   108.05010202   193.23999728
 C      2   1   3     2.710100516721   125.00002273   350.30495563
 C      1   2   3     2.611708854599    26.39786488    14.71010360
 N      5   4   3     2.555308054044   120.84708799   359.73157164
 N      9   2   1     2.600503484979   106.58526707     3.73365338
 N     12   9   2     5.527566200405   168.53581413   171.12065651
 N     13  12   9     5.583221047236    91.55032014    11.12112580
 N     14  13  12     5.528150518591    88.43092389   359.84326247
 C      8   7   2     2.654668413270   127.24786865   181.11170171
 C     13  12   9     2.582376967257    81.72106996   188.00453233
 C     14  13  12    10.882574804710    80.56209567   166.76250791
 C     17  13  12     2.757130505230   111.08861209   183.82872609
 C     18  14  13     4.558465206823    27.27532823    36.33507194
 C     20  18  14     2.650705180609    87.95206320   148.94598259
 C     21  20  18     2.611803198586   120.14573887   359.70382047
 C     18  14  13     4.623235745386   144.15733107    82.80075377
 C     19  17  13     2.557953565794   106.29293361   359.75308708
 C     13  12   9     2.582903091751   172.21332906    33.46711076
 C     18  14  13     2.609636529225    15.08449437   309.23336894
 N     22  21  20     2.556370638369   120.73759875     0.27865223
 C     25  13  17     2.666210041769   125.60330303   182.37774668
 C     14  13  12     2.601476916169    80.24689249   177.85461986
 C     14  13  12    10.892550769017   164.51507311   312.20821879
 C     29  14  13     2.712892575415   106.58649366   178.76395472
 C     30  14  13     4.560507835333    27.10625047    82.12560436
 C     32  30  14     2.652673401891    87.90059683   149.76154742
 C     33  32  30     2.609133588376   120.14881443   359.74174632
 C     34  33  32     4.627519515267   152.49203239     2.45173620
 C     31  29  14     2.585449236669   108.16950133     0.70383075
 C     14  13  12     2.600716325456   169.26375223   353.09862627
 C     30  14  13     2.609536633043    14.68948582   353.70041132
 N     34  33  32     2.556154803934   120.85575621     0.19603406
 C     37  14  29     2.654530526499   126.01551127   180.90772073
 C     15  14  13     2.582293994346    81.61824056   183.09049352
 C      2   1   3     8.029564866989   146.21675104   148.47813171
 C     41  15  14     2.758391104639   111.05201287   175.08990246
 C     42   2   1     4.559821839776    41.78584867   174.11422933
 C     44  42   2     2.652129475853    87.95153797   233.97558675
 C     45  44  42     2.611027836043   120.11137308     0.19721020
 C     42   2   1     4.629866436820   135.97209175    84.42907843
 C     43  41  15     2.559561325344   106.26758155     0.30894352
 C     15  14  13     2.584127074516   171.87382904   332.35056460
 C     42   2   1     2.611386828803    32.59078432   222.96950852
 C      9   2   1     2.655043698059   126.98745415   184.73799091
 N     42   2   1     2.556355970587   113.57249190   112.16566762
 H      1   2   3     2.046503605867    98.31458900   173.44806010
 H      2   1   3     2.040730117440   109.66647630   174.49184349
 H      4   3   1     2.047476189397   121.08635625   179.56431027
 H      5   4   3     2.046553336594   122.74844638   179.46678694
 H      6   5   4     2.063773016849   104.43079330    99.99435244
 H      6   5   4     2.058540704799    84.66425435   209.49793077
 H      6   5   4     2.059837893220   133.81500655   322.35266771
 H      7   2   1     2.040541119952   126.66122480    13.47841106
 H     10   1   2     2.047191004264   118.75390143    25.64826505
 H     12   9   2     1.920524309565   125.29023241   180.00180175
 H     14  13  12     1.917952867083    44.97226959   359.42596618
 H     18  14  13     2.046330847636   128.03556573   234.20482432
 H     19  17  13     2.042592906181   126.41830519   178.11313280
 H     21  20  18     2.047649722989   121.05669627   180.67006309
 H     22  21  20     2.045596898814   122.73097286   180.59748951
 H     23  18  14     2.063779938267   103.92715769   234.93429879
 H     23  18  14     2.057669673245   134.19244188    12.25587044
 H     23  18  14     2.059486796529    84.85857450   125.45241208
 H     24  19  17     2.041046823986   127.28078426   178.44613241
 H     26  18  14     2.047344503340   118.76995697   244.94906660
 H     30  14  13     2.046012340948   127.99711412   279.66882698
 H     31  29  14     2.040450114918   125.22293469   180.92530585
 H     33  32  30     2.046930203877   121.01964473   180.74284758
 H     34  33  32     2.045617847496   122.70821597   180.59516895
 H     35  34  33     2.064814429233   105.73575241    97.19771933
 H     35  34  33     2.058786158072    84.05943581   206.43036958
 H     35  34  33     2.058418400901   133.08365142   318.50306270
 H     36  31  29     2.039845353366   126.61599965   178.98859863
 H     38  30  73     2.047975821711   118.77264435   359.90091293
 H     42   2   1     2.045020725966   119.31790784   328.79719807
 H     43  41  15     2.041436952892   126.36969097   182.06329380
 H     45  44  42     2.047097678177   121.10105945   179.58025624
 H     46  45  44     2.045051284662   122.72144639   179.46906377
 H     47  42   2     2.062723288131   106.65128841   315.16475048
 H     47  42   2     2.057569012371   132.46019523    94.52397119
 H     47  42   2     2.058915377895    83.63838232   206.04504406
 H     48  43  41     2.041664347903   127.23657387   181.62955349
 H     50  42   2     2.046925842384   118.77001737    94.71359229

---------------------
BASIS SET INFORMATION
---------------------
There are 3 groups of distinct atoms

 Group   1 Type C   : 17s4p1d contracted to 3s2p1d pattern {881/31/1}
 Group   2 Type N   : 17s4p1d contracted to 3s2p1d pattern {881/31/1}
 Group   3 Type H   : 4s1p contracted to 2s1p pattern {31/1}

Atom   0C    basis set group =>   1
Atom   1N    basis set group =>   2
Atom   2C    basis set group =>   1
Atom   3N    basis set group =>   2
Atom   4C    basis set group =>   1
Atom   5N    basis set group =>   2
Atom   6C    basis set group =>   1
Atom   7N    basis set group =>   2
Atom   8C    basis set group =>   1
Atom   9N    basis set group =>   2
Atom  10C    basis set group =>   1
Atom  11N    basis set group =>   2
Atom  12C    basis set group =>   1
Atom  13N    basis set group =>   2
Atom  14C    basis set group =>   1
Atom  15N    basis set group =>   2
Atom  16C    basis set group =>   1
Atom  17C    basis set group =>   1
Atom  18C    basis set group =>   1
Atom  19C    basis set group =>   1
Atom  20C    basis set group =>   1
Atom  21C    basis set group =>   1
Atom  22C    basis set group =>   1
Atom  23C    basis set group =>   1
Atom  24C    basis set group =>   1
Atom  25C    basis set group =>   1
Atom  26C    basis set group =>   1
Atom  27C    basis set group =>   1
Atom  28C    basis set group =>   1
Atom  29C    basis set group =>   1
Atom  30C    basis set group =>   1
Atom  31C    basis set group =>   1
Atom  32C    basis set group =>   1
Atom  33C    basis set group =>   1
Atom  34C    basis set group =>   1
Atom  35C    basis set group =>   1
Atom  36C    basis set group =>   1
Atom  37C    basis set group =>   1
Atom  38C    basis set group =>   1
Atom  39C    basis set group =>   1
Atom  40C    basis set group =>   1
Atom  41C    basis set group =>   1
Atom  42C    basis set group =>   1
Atom  43C    basis set group =>   1
Atom  44C    basis set group =>   1
Atom  45C    basis set group =>   1
Atom  46C    basis set group =>   1
Atom  47C    basis set group =>   1
Atom  48C    basis set group =>   1
Atom  49C    basis set group =>   1
Atom  50C    basis set group =>   1
Atom  51C    basis set group =>   1
Atom  52H    basis set group =>   3
Atom  53H    basis set group =>   3
Atom  54H    basis set group =>   3
Atom  55H    basis set group =>   3
Atom  56H    basis set group =>   3
Atom  57H    basis set group =>   3
Atom  58H    basis set group =>   3
Atom  59H    basis set group =>   3
Atom  60H    basis set group =>   3
Atom  61H    basis set group =>   3
Atom  62H    basis set group =>   3
Atom  63H    basis set group =>   3
Atom  64H    basis set group =>   3
Atom  65H    basis set group =>   3
Atom  66H    basis set group =>   3
Atom  67H    basis set group =>   3
Atom  68H    basis set group =>   3
Atom  69H    basis set group =>   3
Atom  70H    basis set group =>   3
Atom  71H    basis set group =>   3
Atom  72H    basis set group =>   3
Atom  73H    basis set group =>   3
Atom  74H    basis set group =>   3
Atom  75H    basis set group =>   3
Atom  76H    basis set group =>   3
Atom  77H    basis set group =>   3
Atom  78H    basis set group =>   3
Atom  79H    basis set group =>   3
Atom  80H    basis set group =>   3
Atom  81H    basis set group =>   3
Atom  82H    basis set group =>   3
Atom  83H    basis set group =>   3
Atom  84H    basis set group =>   3
Atom  85H    basis set group =>   3
Atom  86H    basis set group =>   3
Atom  87H    basis set group =>   3
Atom  88H    basis set group =>   3
Atom  89H    basis set group =>   3


           ************************************************************
           *        Program running with 8 parallel MPI-processes     *
           *              working on a common directory               *
           ************************************************************
------------------------------------------------------------------------------
                           ORCA GTO INTEGRAL CALCULATION
------------------------------------------------------------------------------
------------------------------------------------------------------------------
                   ___                                                        
                  /   \      - P O W E R E D   B Y -                         
                 /     \                                                     
                 |  |  |   _    _      __       _____    __    __             
                 |  |  |  | |  | |    /  \     |  _  \  |  |  /  |          
                  \  \/   | |  | |   /    \    | | | |  |  | /  /          
                 / \  \   | |__| |  /  /\  \   | |_| |  |  |/  /          
                |  |  |   |  __  | /  /__\  \  |    /   |      \           
                |  |  |   | |  | | |   __   |  |    \   |  |\   \          
                \     /   | |  | | |  |  |  |  | |\  \  |  | \   \       
                 \___/    |_|  |_| |__|  |__|  |_| \__\ |__|  \__/        
                                                                              
                      - O R C A' S   B I G   F R I E N D -                    
                                      &                                       
                       - I N T E G R A L  F E E D E R -                       
                                                                              
 v1 FN, 2020, v2 2021                                                         
------------------------------------------------------------------------------


Reading SHARK input file /scratch/chu_02/allen/tmpyp4_amber_gaff2/conf1/conf1/Conf345.orca.SHARKINP.tmp ... ok
----------------------
SHARK INTEGRAL PACKAGE
----------------------

Number of atoms                             ...     90
Number of basis functions                   ...   1230
Number of shells                            ...    738
Maximum angular momentum                    ...      2
Integral batch strategy                     ... SHARK/LIBINT Hybrid
RI-J (if used) integral strategy            ... SPLIT-RIJ (Revised 2003 algorithm where possible)
Printlevel                                  ...      1
Contraction scheme used                     ... PARTIAL GENERAL contraction
Coulomb Range Separation                    ... NOT USED
Exchange Range Separation                   ... NOT USED
Finite Nucleus Model                        ... NOT USED
Auxiliary Coulomb fitting basis             ... NOT available
Auxiliary J/K fitting basis                 ... NOT available
Auxiliary Correlation fitting basis         ... NOT available
Auxiliary 'external' fitting basis          ... NOT available
Integral threshold                          ...     2.500000e-11
Primitive cut-off                           ...     2.500000e-12
Primitive pair pre-selection threshold      ...     2.500000e-12

Calculating pre-screening integrals         ... done (  0.1 sec) Dimension = 738
Calculating pre-screening integrals (ORCA)  ... done (  0.4 sec) Dimension = 426
Organizing shell pair data                  ... done (  0.5 sec)
Shell pair information
Total number of shell pairs                 ...    272691
Shell pairs after pre-screening             ...     71716
Total number of primitive shell pairs       ...    422091
Primitive shell pairs kept                  ...     92627
          la=0 lb=0:  29434 shell pairs
          la=1 lb=0:  26037 shell pairs
          la=1 lb=1:   4702 shell pairs
          la=2 lb=0:   7890 shell pairs
          la=2 lb=1:   3124 shell pairs
          la=2 lb=2:    529 shell pairs

Calculating one electron integrals          ... done (  0.2 sec)
Calculating Nuclear repulsion               ... done (  0.0 sec) ENN=   6234.166983536721 Eh

SHARK setup successfully completed in   1.7 seconds

Maximum memory used throughout the entire GTOINT-calculation: 99.1 MB


           ************************************************************
           *        Program running with 8 parallel MPI-processes     *
           *              working on a common directory               *
           ************************************************************
-------------------------------------------------------------------------------
                                 ORCA SCF
-------------------------------------------------------------------------------

------------
SCF SETTINGS
------------
Hamiltonian:
 Ab initio Hamiltonian  Method          .... Hartree-Fock(GTOs)


General Settings:
 Integral files         IntName         .... /scratch/chu_02/allen/tmpyp4_amber_gaff2/conf1/conf1/Conf345.orca
 Hartree-Fock type      HFTyp           .... RHF
 Total Charge           Charge          ....    0
 Multiplicity           Mult            ....    1
 Number of Electrons    NEL             ....  358
 Basis Dimension        Dim             ....  918
 Nuclear Repulsion      ENuc            ....   6234.1669835367 Eh

Convergence Acceleration:
 DIIS                   CNVDIIS         .... on
   Start iteration      DIISMaxIt       ....    12
   Startup error        DIISStart       ....  0.200000
   # of expansion vecs  DIISMaxEq       ....     5
   Bias factor          DIISBfac        ....   1.050
   Max. coefficient     DIISMaxC        ....  10.000
 Trust-Rad. Augm. Hess. CNVTRAH         .... auto
   Auto Start mean grad. ratio tolernc. ....  1.125000
   Auto Start start iteration           ....    20
   Auto Start num. interpolation iter.  ....    10
   Max. Number of Micro iterations      ....    16
   Max. Number of Macro iterations      .... Maxiter - #DIIS iter
   Number of Davidson start vectors     ....     2
   Converg. threshold I  (grad. norm)   ....   1.000e-05
   Converg. threshold II (energy diff.) ....   1.000e-08
   Grad. Scal. Fac. for Micro threshold ....   0.100
   Minimum threshold for Micro iter.    ....   0.010
   NR start threshold (gradient norm)   ....   0.001
   Initial trust radius                 ....   0.400
   Minimum AH scaling param. (alpha)    ....   1.000
   Maximum AH scaling param. (alpha)    .... 1000.000
   Orbital update algorithm             .... Taylor
   White noise on init. David. guess    .... on
   Maximum white noise                  ....   0.010
   Quad. conv. algorithm                .... NR
 SOSCF                  CNVSOSCF        .... on
   Start iteration      SOSCFMaxIt      ....   150
   Startup grad/error   SOSCFStart      ....  0.003300
 Level Shifting         CNVShift        .... on
   Level shift para.    LevelShift      ....    0.2500
   Turn off err/grad.   ShiftErr        ....    0.0010
 Zerner damping         CNVZerner       .... off
 Static damping         CNVDamp         .... on
   Fraction old density DampFac         ....    0.7000
   Max. Damping (<1)    DampMax         ....    0.9800
   Min. Damping (>=0)   DampMin         ....    0.0000
   Turn off err/grad.   DampErr         ....    0.1000
 Fernandez-Rico         CNVRico         .... off

SCF Procedure:
 Maximum # iterations   MaxIter         ....   125
 SCF integral mode      SCFMode         .... Direct
   Integral package                     .... SHARK and LIBINT hybrid scheme
 Reset frequency        DirectResetFreq ....    20
 Integral Threshold     Thresh          ....  2.500e-11 Eh
 Primitive CutOff       TCut            ....  2.500e-12 Eh

Convergence Tolerance:
 Convergence Check Mode ConvCheckMode   .... Total+1el-Energy
 Convergence forced     ConvForced      .... 1
 Energy Change          TolE            ....  1.000e-08 Eh
 1-El. energy change                    ....  1.000e-05 Eh
 Orbital Gradient       TolG            ....  1.000e-05
 Orbital Rotation angle TolX            ....  1.000e-05
 DIIS Error             TolErr          ....  5.000e-07


Diagonalization of the overlap matrix:
Smallest eigenvalue                        ... 1.862e-04
Time for diagonalization                   ...    0.218 sec
Threshold for overlap eigenvalues          ... 1.000e-08
Number of eigenvalues below threshold      ... 0
Time for construction of square roots      ...    0.141 sec
Total time needed                          ...    0.363 sec

Time for model grid setup =    1.334 sec

------------------------------
INITIAL GUESS: MODEL POTENTIAL
------------------------------
Loading Hartree-Fock densities                     ... done
Calculating cut-offs                               ... done
Initializing the effective Hamiltonian             ... done
Setting up the integral package (SHARK)            ... done
Starting the Coulomb interaction                   ... done (   1.6 sec)
Reading the grid                                   ... done
Mapping shells                                     ... done
Starting the XC term evaluation                    ... done (   0.3 sec)
Transforming the Hamiltonian                       ... done (   0.1 sec)
Diagonalizing the Hamiltonian                      ... done (   0.2 sec)
Back transforming the eigenvectors                 ... done (   0.0 sec)
Now organizing SCF variables                       ... done
                      ------------------
                      INITIAL GUESS DONE (   3.7 sec)
                      ------------------
--------------
SCF ITERATIONS
--------------
ITER       Energy         Delta-E        Max-DP      RMS-DP      [F,P]     Damp
               ***  Starting incremental Fock matrix formation  ***
  0  -2121.6444902202   0.000000000000 0.08273731  0.00125259  0.2313473 0.7000
  1  -2122.2898946725  -0.645404452305 0.06250561  0.00101979  0.1435282 0.7000
                               ***Turning on DIIS***
  2  -2122.6922112242  -0.402316551656 0.14526217  0.00231716  0.0802962 0.0000
  3  -2118.0329933327   4.659217891423 0.04987410  0.00068523  0.0435083 0.0000
  4  -2123.3836725625  -5.350679229790 0.01506347  0.00022861  0.0091121 0.0000
  5  -2123.5219612427  -0.138288680126 0.00720635  0.00013271  0.0048669 0.0000
  6  -2123.5062361501   0.015725092586 0.00433559  0.00008497  0.0021943 0.0000
  7  -2123.5993517947  -0.093115644651 0.00316545  0.00006704  0.0016192 0.0000
  8  -2123.6068357380  -0.007483943256 0.00334661  0.00006406  0.0015136 0.0000
  9  -2123.5793444570   0.027491280984 0.00267844  0.00004560  0.0012171 0.0000
 10  -2123.5873764984  -0.008032041447 0.00539191  0.00009603  0.0009503 0.0000
                      *** Initiating the SOSCF procedure ***
                           *** Shutting down DIIS ***
                      *** Re-Reading the Fockian *** 
                      *** Removing any level shift *** 
ITER      Energy       Delta-E        Grad      Rot      Max-DP    RMS-DP
 11  -2123.48127104   0.1061054545  0.000178  0.000178  0.000240  0.000005
               *** Restarting incremental Fock matrix formation ***
 12  -2123.54692311  -0.0656520657  0.000892  0.006400  0.001484  0.000035
 13  -2123.54703506  -0.0001119504  0.001107  0.031366  0.006779  0.000139
 14  -2123.54722184  -0.0001867825  0.000381  0.001789  0.000591  0.000012
 15  -2123.54723692  -0.0000150773  0.000162  0.001925  0.000529  0.000013
 16  -2123.54724378  -0.0000068616  0.000142  0.002215  0.000475  0.000008
 17  -2123.54724623  -0.0000024480  0.000116  0.001684  0.000283  0.000006
 18  -2123.54724732  -0.0000010873  0.000057  0.000681  0.000219  0.000003
 19  -2123.54724788  -0.0000005677  0.000041  0.000995  0.000194  0.000004
 20  -2123.54724819  -0.0000003022  0.000021  0.000615  0.000098  0.000002
 21  -2123.54724832  -0.0000001370  0.000024  0.000832  0.000126  0.000003
 22  -2123.54724845  -0.0000001301  0.000018  0.000818  0.000130  0.000003
 23  -2123.54724854  -0.0000000854  0.000013  0.000441  0.000074  0.000001
 24  -2123.54724858  -0.0000000432  0.000007  0.000351  0.000055  0.000001
 25  -2123.54724861  -0.0000000305  0.000008  0.000136  0.000035  0.000001
 26  -2123.54724863  -0.0000000174  0.000006  0.000089  0.000030  0.000000
 27  -2123.54724864  -0.0000000092  0.000003  0.000076  0.000020  0.000000
                  ***Gradient check signals convergence***
              ***Rediagonalizing the Fockian in SOSCF/NRSCF***

               *****************************************************
               *                     SUCCESS                       *
               *           SCF CONVERGED AFTER  28 CYCLES          *
               *****************************************************


----------------
TOTAL SCF ENERGY
----------------

Total Energy       :        -2123.54724864 Eh          -57784.65835 eV

Components:
Nuclear Repulsion  :         6234.16698354 Eh          169640.30797 eV
Electronic Energy  :        -8357.71423218 Eh         -227424.96632 eV
One Electron Energy:       -15308.94613451 Eh         -416577.60272 eV
Two Electron Energy:         6951.23190233 Eh          189152.63640 eV

Virial components:
Potential Energy   :        -4245.95811142 Eh         -115538.39407 eV
Kinetic Energy     :         2122.41086278 Eh           57753.73572 eV
Virial Ratio       :            2.00053542


---------------
SCF CONVERGENCE
---------------

  Last Energy change         ...   -5.3733e-09  Tolerance :   1.0000e-08
  Last MAX-Density change    ...    1.0283e-05  Tolerance :   1.0000e-07
  Last RMS-Density change    ...    2.0386e-07  Tolerance :   5.0000e-09
  Last Orbital Gradient      ...    1.8738e-06  Tolerance :   1.0000e-05
  Last Orbital Rotation      ...    5.2662e-05  Tolerance :   1.0000e-05

             **** THE GBW FILE WAS UPDATED (/scratch/chu_02/allen/tmpyp4_amber_gaff2/conf1/conf1/Conf345.orca.gbw) ****
             **** DENSITY /scratch/chu_02/allen/tmpyp4_amber_gaff2/conf1/conf1/Conf345.orca.scfp WAS UPDATED ****
             **** ENERGY FILE WAS UPDATED (/scratch/chu_02/allen/tmpyp4_amber_gaff2/conf1/conf1/Conf345.orca.en.tmp) ****
             **** THE GBW FILE WAS UPDATED (/scratch/chu_02/allen/tmpyp4_amber_gaff2/conf1/conf1/Conf345.orca.gbw) ****
             **** DENSITY /scratch/chu_02/allen/tmpyp4_amber_gaff2/conf1/conf1/Conf345.orca.scfp WAS UPDATED ****
----------------
ORBITAL ENERGIES
----------------

  NO   OCC          E(Eh)            E(eV) 
   0   2.0000     -15.679406      -426.6583 
   1   2.0000     -15.635295      -425.4580 
   2   2.0000     -15.630582      -425.3298 
   3   2.0000     -15.587501      -424.1575 
   4   2.0000     -15.525523      -422.4710 
   5   2.0000     -15.515386      -422.1951 
   6   2.0000     -15.453445      -420.5096 
   7   2.0000     -15.440717      -420.1633 
   8   2.0000     -11.329279      -308.2853 
   9   2.0000     -11.327840      -308.2462 
  10   2.0000     -11.327688      -308.2421 
  11   2.0000     -11.300151      -307.4927 
  12   2.0000     -11.297572      -307.4226 
  13   2.0000     -11.294072      -307.3273 
  14   2.0000     -11.290126      -307.2199 
  15   2.0000     -11.287810      -307.1569 
  16   2.0000     -11.285480      -307.0935 
  17   2.0000     -11.281701      -306.9907 
  18   2.0000     -11.270010      -306.6726 
  19   2.0000     -11.263118      -306.4850 
  20   2.0000     -11.262136      -306.4583 
  21   2.0000     -11.252474      -306.1954 
  22   2.0000     -11.248827      -306.0962 
  23   2.0000     -11.239039      -305.8298 
  24   2.0000     -11.235402      -305.7308 
  25   2.0000     -11.232163      -305.6427 
  26   2.0000     -11.231527      -305.6254 
  27   2.0000     -11.228813      -305.5515 
  28   2.0000     -11.228498      -305.5430 
  29   2.0000     -11.211628      -305.0839 
  30   2.0000     -11.210173      -305.0443 
  31   2.0000     -11.194218      -304.6102 
  32   2.0000     -11.191431      -304.5343 
  33   2.0000     -11.190226      -304.5015 
  34   2.0000     -11.188040      -304.4420 
  35   2.0000     -11.187694      -304.4326 
  36   2.0000     -11.186351      -304.3961 
  37   2.0000     -11.179558      -304.2112 
  38   2.0000     -11.177428      -304.1533 
  39   2.0000     -11.175103      -304.0900 
  40   2.0000     -11.173274      -304.0403 
  41   2.0000     -11.169761      -303.9447 
  42   2.0000     -11.169155      -303.9282 
  43   2.0000     -11.161263      -303.7134 
  44   2.0000     -11.160371      -303.6891 
  45   2.0000     -11.157395      -303.6082 
  46   2.0000     -11.155821      -303.5653 
  47   2.0000     -11.153826      -303.5110 
  48   2.0000     -11.146133      -303.3017 
  49   2.0000     -11.135232      -303.0051 
  50   2.0000     -11.130350      -302.8722 
  51   2.0000     -11.118046      -302.5374 
  52   2.0000      -1.360049       -37.0088 
  53   2.0000      -1.322369       -35.9835 
  54   2.0000      -1.318538       -35.8792 
  55   2.0000      -1.280754       -34.8511 
  56   2.0000      -1.226654       -33.3790 
  57   2.0000      -1.209875       -32.9224 
  58   2.0000      -1.172954       -31.9177 
  59   2.0000      -1.151259       -31.3273 
  60   2.0000      -1.143369       -31.1127 
  61   2.0000      -1.111130       -30.2354 
  62   2.0000      -1.108142       -30.1541 
  63   2.0000      -1.081772       -29.4365 
  64   2.0000      -1.077132       -29.3103 
  65   2.0000      -1.046519       -28.4772 
  66   2.0000      -1.043235       -28.3879 
  67   2.0000      -1.041011       -28.3273 
  68   2.0000      -1.015181       -27.6245 
  69   2.0000      -1.012157       -27.5422 
  70   2.0000      -1.008664       -27.4471 
  71   2.0000      -0.994025       -27.0488 
  72   2.0000      -0.985593       -26.8194 
  73   2.0000      -0.981753       -26.7149 
  74   2.0000      -0.972273       -26.4569 
  75   2.0000      -0.961549       -26.1651 
  76   2.0000      -0.954196       -25.9650 
  77   2.0000      -0.945641       -25.7322 
  78   2.0000      -0.935981       -25.4693 
  79   2.0000      -0.917333       -24.9619 
  80   2.0000      -0.910231       -24.7686 
  81   2.0000      -0.896159       -24.3857 
  82   2.0000      -0.876324       -23.8460 
  83   2.0000      -0.873207       -23.7612 
  84   2.0000      -0.869567       -23.6621 
  85   2.0000      -0.858550       -23.3623 
  86   2.0000      -0.840297       -22.8656 
  87   2.0000      -0.836392       -22.7594 
  88   2.0000      -0.826196       -22.4819 
  89   2.0000      -0.796816       -21.6825 
  90   2.0000      -0.789193       -21.4750 
  91   2.0000      -0.756260       -20.5789 
  92   2.0000      -0.751790       -20.4573 
  93   2.0000      -0.733881       -19.9699 
  94   2.0000      -0.726078       -19.7576 
  95   2.0000      -0.723385       -19.6843 
  96   2.0000      -0.717955       -19.5366 
  97   2.0000      -0.715563       -19.4715 
  98   2.0000      -0.710411       -19.3313 
  99   2.0000      -0.698318       -19.0022 
 100   2.0000      -0.696634       -18.9564 
 101   2.0000      -0.687509       -18.7081 
 102   2.0000      -0.684620       -18.6295 
 103   2.0000      -0.683950       -18.6112 
 104   2.0000      -0.679125       -18.4799 
 105   2.0000      -0.673819       -18.3355 
 106   2.0000      -0.671823       -18.2812 
 107   2.0000      -0.660308       -17.9679 
 108   2.0000      -0.657033       -17.8788 
 109   2.0000      -0.653749       -17.7894 
 110   2.0000      -0.650927       -17.7126 
 111   2.0000      -0.645862       -17.5748 
 112   2.0000      -0.644889       -17.5483 
 113   2.0000      -0.637609       -17.3502 
 114   2.0000      -0.636530       -17.3209 
 115   2.0000      -0.627475       -17.0745 
 116   2.0000      -0.621443       -16.9103 
 117   2.0000      -0.621134       -16.9019 
 118   2.0000      -0.613653       -16.6983 
 119   2.0000      -0.613107       -16.6835 
 120   2.0000      -0.611171       -16.6308 
 121   2.0000      -0.610434       -16.6108 
 122   2.0000      -0.600006       -16.3270 
 123   2.0000      -0.587313       -15.9816 
 124   2.0000      -0.582405       -15.8480 
 125   2.0000      -0.580586       -15.7985 
 126   2.0000      -0.579519       -15.7695 
 127   2.0000      -0.571772       -15.5587 
 128   2.0000      -0.569168       -15.4879 
 129   2.0000      -0.559543       -15.2259 
 130   2.0000      -0.552817       -15.0429 
 131   2.0000      -0.547961       -14.9108 
 132   2.0000      -0.542907       -14.7733 
 133   2.0000      -0.541968       -14.7477 
 134   2.0000      -0.539188       -14.6721 
 135   2.0000      -0.535242       -14.5647 
 136   2.0000      -0.530153       -14.4262 
 137   2.0000      -0.519002       -14.1228 
 138   2.0000      -0.518149       -14.0996 
 139   2.0000      -0.514361       -13.9965 
 140   2.0000      -0.512077       -13.9343 
 141   2.0000      -0.510543       -13.8926 
 142   2.0000      -0.509511       -13.8645 
 143   2.0000      -0.504045       -13.7158 
 144   2.0000      -0.501409       -13.6440 
 145   2.0000      -0.495432       -13.4814 
 146   2.0000      -0.490747       -13.3539 
 147   2.0000      -0.481662       -13.1067 
 148   2.0000      -0.477476       -12.9928 
 149   2.0000      -0.467601       -12.7241 
 150   2.0000      -0.465988       -12.6802 
 151   2.0000      -0.456869       -12.4320 
 152   2.0000      -0.451100       -12.2750 
 153   2.0000      -0.445460       -12.1216 
 154   2.0000      -0.439342       -11.9551 
 155   2.0000      -0.427541       -11.6340 
 156   2.0000      -0.409603       -11.1459 
 157   2.0000      -0.407366       -11.0850 
 158   2.0000      -0.398610       -10.8467 
 159   2.0000      -0.387414       -10.5421 
 160   2.0000      -0.386185       -10.5086 
 161   2.0000      -0.377626       -10.2757 
 162   2.0000      -0.371262       -10.1026 
 163   2.0000      -0.357581        -9.7303 
 164   2.0000      -0.354997        -9.6599 
 165   2.0000      -0.341438        -9.2910 
 166   2.0000      -0.337868        -9.1939 
 167   2.0000      -0.325568        -8.8592 
 168   2.0000      -0.320454        -8.7200 
 169   2.0000      -0.305875        -8.3233 
 170   2.0000      -0.299260        -8.1433 
 171   2.0000      -0.284998        -7.7552 
 172   2.0000      -0.279093        -7.5945 
 173   2.0000      -0.263168        -7.1612 
 174   2.0000      -0.241706        -6.5772 
 175   2.0000      -0.190081        -5.1724 
 176   2.0000      -0.180898        -4.9225 
 177   2.0000      -0.079231        -2.1560 
 178   2.0000      -0.059473        -1.6183 
 179   0.0000       0.028201         0.7674 
 180   0.0000       0.065234         1.7751 
 181   0.0000       0.090443         2.4611 
 182   0.0000       0.106473         2.8973 
 183   0.0000       0.114436         3.1140 
 184   0.0000       0.136244         3.7074 
 185   0.0000       0.140099         3.8123 
 186   0.0000       0.141150         3.8409 
 187   0.0000       0.164213         4.4685 
 188   0.0000       0.164820         4.4850 
 189   0.0000       0.166354         4.5267 
 190   0.0000       0.172999         4.7075 
 191   0.0000       0.180563         4.9134 
 192   0.0000       0.183979         5.0063 
 193   0.0000       0.189285         5.1507 
 194   0.0000       0.204106         5.5540 
 195   0.0000       0.206254         5.6125 
 196   0.0000       0.207460         5.6453 
 197   0.0000       0.209421         5.6986 
 198   0.0000       0.216714         5.8971 
 199   0.0000       0.228240         6.2107 
 200   0.0000       0.233896         6.3646 
 201   0.0000       0.234869         6.3911 
 202   0.0000       0.238604         6.4928 
 203   0.0000       0.240195         6.5360 
 204   0.0000       0.246164         6.6985 
 205   0.0000       0.254946         6.9374 
 206   0.0000       0.256256         6.9731 
 207   0.0000       0.257991         7.0203 
 208   0.0000       0.259689         7.0665 
 209   0.0000       0.260661         7.0930 
 210   0.0000       0.264205         7.1894 
 211   0.0000       0.265760         7.2317 
 212   0.0000       0.268677         7.3111 
 213   0.0000       0.269578         7.3356 
 214   0.0000       0.272892         7.4258 
 215   0.0000       0.276402         7.5213 
 216   0.0000       0.278693         7.5836 
 217   0.0000       0.280925         7.6444 
 218   0.0000       0.286398         7.7933 
 219   0.0000       0.288301         7.8451 
 220   0.0000       0.289436         7.8760 
 221   0.0000       0.291992         7.9455 
 222   0.0000       0.294767         8.0210 
 223   0.0000       0.295936         8.0528 
 224   0.0000       0.298027         8.1097 
 225   0.0000       0.299722         8.1559 
 226   0.0000       0.304457         8.2847 
 227   0.0000       0.309017         8.4088 
 228   0.0000       0.310869         8.4592 
 229   0.0000       0.324529         8.8309 
 230   0.0000       0.328071         8.9273 
 231   0.0000       0.334704         9.1077 
 232   0.0000       0.342188         9.3114 
 233   0.0000       0.353347         9.6151 
 234   0.0000       0.356523         9.7015 
 235   0.0000       0.362049         9.8519 
 236   0.0000       0.375436        10.2161 
 237   0.0000       0.390969        10.6388 
 238   0.0000       0.395346        10.7579 
 239   0.0000       0.396776        10.7968 
 240   0.0000       0.404804        11.0153 
 241   0.0000       0.408875        11.1260 
 242   0.0000       0.411523        11.1981 
 243   0.0000       0.419195        11.4069 
 244   0.0000       0.428156        11.6507 
 245   0.0000       0.434424        11.8213 
 246   0.0000       0.436847        11.8872 
 247   0.0000       0.440335        11.9821 
 248   0.0000       0.441967        12.0265 
 249   0.0000       0.447928        12.1887 
 250   0.0000       0.458675        12.4812 
 251   0.0000       0.466803        12.7023 
 252   0.0000       0.469276        12.7696 
 253   0.0000       0.470635        12.8066 
 254   0.0000       0.472339        12.8530 
 255   0.0000       0.475051        12.9268 
 256   0.0000       0.477334        12.9889 
 257   0.0000       0.479317        13.0429 
 258   0.0000       0.489270        13.3137 
 259   0.0000       0.495201        13.4751 
 260   0.0000       0.503711        13.7067 
 261   0.0000       0.504828        13.7371 
 262   0.0000       0.506941        13.7946 
 263   0.0000       0.512918        13.9572 
 264   0.0000       0.516315        14.0496 
 265   0.0000       0.517187        14.0734 
 266   0.0000       0.525195        14.2913 
 267   0.0000       0.528041        14.3687 
 268   0.0000       0.532855        14.4997 
 269   0.0000       0.535952        14.5840 
 270   0.0000       0.541729        14.7412 
 271   0.0000       0.546616        14.8742 
 272   0.0000       0.558269        15.1913 
 273   0.0000       0.559327        15.2201 
 274   0.0000       0.560849        15.2615 
 275   0.0000       0.566506        15.4154 
 276   0.0000       0.570864        15.5340 
 277   0.0000       0.573682        15.6107 
 278   0.0000       0.578776        15.7493 
 279   0.0000       0.585742        15.9388 
 280   0.0000       0.590515        16.0687 
 281   0.0000       0.592215        16.1150 
 282   0.0000       0.594807        16.1855 
 283   0.0000       0.595368        16.2008 
 284   0.0000       0.597991        16.2722 
 285   0.0000       0.602111        16.3843 
 286   0.0000       0.606970        16.5165 
 287   0.0000       0.610828        16.6215 
 288   0.0000       0.615309        16.7434 
 289   0.0000       0.624935        17.0053 
 290   0.0000       0.625758        17.0277 
 291   0.0000       0.629142        17.1198 
 292   0.0000       0.635109        17.2822 
 293   0.0000       0.637769        17.3546 
 294   0.0000       0.644081        17.5263 
 295   0.0000       0.648116        17.6361 
 296   0.0000       0.653172        17.7737 
 297   0.0000       0.655735        17.8434 
 298   0.0000       0.661406        17.9978 
 299   0.0000       0.664930        18.0937 
 300   0.0000       0.670804        18.2535 
 301   0.0000       0.674980        18.3672 
 302   0.0000       0.677487        18.4354 
 303   0.0000       0.677977        18.4487 
 304   0.0000       0.680481        18.5168 
 305   0.0000       0.684019        18.6131 
 306   0.0000       0.689232        18.7550 
 307   0.0000       0.692600        18.8466 
 308   0.0000       0.696300        18.9473 
 309   0.0000       0.700106        19.0508 
 310   0.0000       0.701809        19.0972 
 311   0.0000       0.704409        19.1679 
 312   0.0000       0.707237        19.2449 
 313   0.0000       0.710540        19.3348 
 314   0.0000       0.711515        19.3613 
 315   0.0000       0.714517        19.4430 
 316   0.0000       0.716981        19.5100 
 317   0.0000       0.719034        19.5659 
 318   0.0000       0.722538        19.6613 
 319   0.0000       0.725940        19.7538 
 320   0.0000       0.728557        19.8250 
 321   0.0000       0.729039        19.8382 
 322   0.0000       0.730204        19.8699 
 323   0.0000       0.732631        19.9359 
 324   0.0000       0.737765        20.0756 
 325   0.0000       0.741446        20.1758 
 326   0.0000       0.744149        20.2493 
 327   0.0000       0.748883        20.3781 
 328   0.0000       0.753676        20.5086 
 329   0.0000       0.755617        20.5614 
 330   0.0000       0.758893        20.6505 
 331   0.0000       0.761669        20.7261 
 332   0.0000       0.763061        20.7639 
 333   0.0000       0.765665        20.8348 
 334   0.0000       0.768816        20.9205 
 335   0.0000       0.772774        21.0282 
 336   0.0000       0.777247        21.1500 
 337   0.0000       0.781846        21.2751 
 338   0.0000       0.786317        21.3968 
 339   0.0000       0.788514        21.4566 
 340   0.0000       0.792037        21.5524 
 341   0.0000       0.794738        21.6259 
 342   0.0000       0.797311        21.6959 
 343   0.0000       0.803714        21.8702 
 344   0.0000       0.806533        21.9469 
 345   0.0000       0.807951        21.9855 
 346   0.0000       0.808225        21.9929 
 347   0.0000       0.813720        22.1424 
 348   0.0000       0.816478        22.2175 
 349   0.0000       0.816863        22.2280 
 350   0.0000       0.818653        22.2767 
 351   0.0000       0.820477        22.3263 
 352   0.0000       0.825497        22.4629 
 353   0.0000       0.827265        22.5110 
 354   0.0000       0.829088        22.5606 
 355   0.0000       0.831327        22.6215 
 356   0.0000       0.832843        22.6628 
 357   0.0000       0.836338        22.7579 
 358   0.0000       0.839365        22.8403 
 359   0.0000       0.841320        22.8935 
 360   0.0000       0.841972        22.9112 
 361   0.0000       0.842633        22.9292 
 362   0.0000       0.845257        23.0006 
 363   0.0000       0.848030        23.0761 
 364   0.0000       0.848948        23.1010 
 365   0.0000       0.855726        23.2855 
 366   0.0000       0.857493        23.3336 
 367   0.0000       0.863383        23.4938 
 368   0.0000       0.865117        23.5410 
 369   0.0000       0.867542        23.6070 
 370   0.0000       0.870508        23.6877 
 371   0.0000       0.872405        23.7393 
 372   0.0000       0.874374        23.7929 
 373   0.0000       0.877467        23.8771 
 374   0.0000       0.878783        23.9129 
 375   0.0000       0.881122        23.9765 
 376   0.0000       0.887906        24.1611 
 377   0.0000       0.889953        24.2169 
 378   0.0000       0.891526        24.2597 
 379   0.0000       0.894908        24.3517 
 380   0.0000       0.897153        24.4128 
 381   0.0000       0.898590        24.4519 
 382   0.0000       0.900211        24.4960 
 383   0.0000       0.901501        24.5311 
 384   0.0000       0.905100        24.6290 
 385   0.0000       0.906368        24.6635 
 386   0.0000       0.909341        24.7444 
 387   0.0000       0.909824        24.7576 
 388   0.0000       0.913258        24.8510 
 389   0.0000       0.916085        24.9279 
 390   0.0000       0.920289        25.0423 
 391   0.0000       0.925040        25.1716 
 392   0.0000       0.926652        25.2155 
 393   0.0000       0.927621        25.2419 
 394   0.0000       0.929550        25.2943 
 395   0.0000       0.931510        25.3477 
 396   0.0000       0.935916        25.4676 
 397   0.0000       0.940844        25.6017 
 398   0.0000       0.942744        25.6534 
 399   0.0000       0.945924        25.7399 
 400   0.0000       0.947880        25.7931 
 401   0.0000       0.952070        25.9071 
 402   0.0000       0.954423        25.9712 
 403   0.0000       0.955335        25.9960 
 404   0.0000       0.960513        26.1369 
 405   0.0000       0.964585        26.2477 
 406   0.0000       0.968946        26.3664 
 407   0.0000       0.978710        26.6321 
 408   0.0000       0.979847        26.6630 
 409   0.0000       0.983045        26.7500 
 410   0.0000       0.986605        26.8469 
 411   0.0000       0.988118        26.8881 
 412   0.0000       0.993973        27.0474 
 413   0.0000       1.002324        27.2746 
 414   0.0000       1.006337        27.3838 
 415   0.0000       1.012187        27.5430 
 416   0.0000       1.014099        27.5950 
 417   0.0000       1.019152        27.7325 
 418   0.0000       1.022069        27.8119 
 419   0.0000       1.028134        27.9769 
 420   0.0000       1.032538        28.0968 
 421   0.0000       1.036940        28.2166 
 422   0.0000       1.047945        28.5160 
 423   0.0000       1.049933        28.5701 
 424   0.0000       1.053110        28.6566 
 425   0.0000       1.071160        29.1477 
 426   0.0000       1.074284        29.2328 
 427   0.0000       1.075632        29.2694 
 428   0.0000       1.081381        29.4259 
 429   0.0000       1.081465        29.4282 
 430   0.0000       1.085468        29.5371 
 431   0.0000       1.085601        29.5407 
 432   0.0000       1.094437        29.7812 
 433   0.0000       1.101621        29.9766 
 434   0.0000       1.104337        30.0505 
 435   0.0000       1.107327        30.1319 
 436   0.0000       1.111079        30.2340 
 437   0.0000       1.113836        30.3090 
 438   0.0000       1.115646        30.3583 
 439   0.0000       1.119703        30.4687 
 440   0.0000       1.121576        30.5196 
 441   0.0000       1.125437        30.6247 
 442   0.0000       1.130195        30.7542 
 443   0.0000       1.132008        30.8035 
 444   0.0000       1.135185        30.8900 
 445   0.0000       1.137861        30.9628 
 446   0.0000       1.141845        31.0712 
 447   0.0000       1.149267        31.2731 
 448   0.0000       1.151235        31.3267 
 449   0.0000       1.154441        31.4139 
 450   0.0000       1.159440        31.5500 
 451   0.0000       1.162507        31.6334 
 452   0.0000       1.163291        31.6547 
 453   0.0000       1.167318        31.7643 
 454   0.0000       1.168544        31.7977 
 455   0.0000       1.174689        31.9649 
 456   0.0000       1.179675        32.1006 
 457   0.0000       1.185645        32.2630 
 458   0.0000       1.188272        32.3345 
 459   0.0000       1.193975        32.4897 
 460   0.0000       1.199831        32.6491 
 461   0.0000       1.201739        32.7010 
 462   0.0000       1.203533        32.7498 
 463   0.0000       1.205535        32.8043 
 464   0.0000       1.208199        32.8768 
 465   0.0000       1.214609        33.0512 
 466   0.0000       1.217063        33.1180 
 467   0.0000       1.218910        33.1682 
 468   0.0000       1.223745        33.2998 
 469   0.0000       1.229753        33.4633 
 470   0.0000       1.235886        33.6302 
 471   0.0000       1.236026        33.6340 
 472   0.0000       1.239366        33.7249 
 473   0.0000       1.239592        33.7310 
 474   0.0000       1.241819        33.7916 
 475   0.0000       1.244074        33.8530 
 476   0.0000       1.248690        33.9786 
 477   0.0000       1.252999        34.0958 
 478   0.0000       1.255312        34.1588 
 479   0.0000       1.255803        34.1721 
 480   0.0000       1.260815        34.3085 
 481   0.0000       1.267312        34.4853 
 482   0.0000       1.270900        34.5830 
 483   0.0000       1.273346        34.6495 
 484   0.0000       1.275165        34.6990 
 485   0.0000       1.280070        34.8325 
 486   0.0000       1.285029        34.9674 
 487   0.0000       1.285648        34.9843 
 488   0.0000       1.290672        35.1210 
 489   0.0000       1.296484        35.2791 
 490   0.0000       1.298003        35.3205 
 491   0.0000       1.301808        35.4240 
 492   0.0000       1.304007        35.4838 
 493   0.0000       1.308426        35.6041 
 494   0.0000       1.312971        35.7278 
 495   0.0000       1.317707        35.8566 
 496   0.0000       1.318982        35.8913 
 497   0.0000       1.320963        35.9452 
 498   0.0000       1.326314        36.0908 
 499   0.0000       1.327128        36.1130 
 500   0.0000       1.329780        36.1852 
 501   0.0000       1.336778        36.3756 
 502   0.0000       1.340795        36.4849 
 503   0.0000       1.343480        36.5579 
 504   0.0000       1.348090        36.6834 
 505   0.0000       1.349016        36.7086 
 506   0.0000       1.353799        36.8388 
 507   0.0000       1.354874        36.8680 
 508   0.0000       1.358517        36.9671 
[...]
 76 H s       :     0.885375  s :     0.885375
      pz      :     0.022119  p :     0.079785
      px      :     0.043618
      py      :     0.014048
 77 H s       :     0.884509  s :     0.884509
      pz      :     0.047982  p :     0.079294
      px      :     0.015024
      py      :     0.016289
 78 H s       :     0.884884  s :     0.884884
      pz      :     0.025884  p :     0.079260
      px      :     0.020454
      py      :     0.032922
 79 H s       :     0.910613  s :     0.910613
      pz      :     0.021792  p :     0.086316
      px      :     0.021661
      py      :     0.042862
 80 H s       :     0.864454  s :     0.864454
      pz      :     0.039392  p :     0.084840
      px      :     0.030294
      py      :     0.015155
 81 H s       :     0.886880  s :     0.886880
      pz      :     0.037820  p :     0.084118
      px      :     0.016185
      py      :     0.030113
 82 H s       :     0.916165  s :     0.916165
      pz      :     0.021963  p :     0.086720
      px      :     0.031649
      py      :     0.033108
 83 H s       :     0.873641  s :     0.873641
      pz      :     0.039254  p :     0.084078
      px      :     0.015280
      py      :     0.029543
 84 H s       :     0.886881  s :     0.886881
      pz      :     0.035755  p :     0.083430
      px      :     0.031689
      py      :     0.015986
 85 H s       :     0.892989  s :     0.892989
      pz      :     0.022486  p :     0.079777
      px      :     0.014075
      py      :     0.043216
 86 H s       :     0.891127  s :     0.891127
      pz      :     0.024726  p :     0.078817
      px      :     0.032971
      py      :     0.021120
 87 H s       :     0.889927  s :     0.889927
      pz      :     0.048011  p :     0.078733
      px      :     0.015585
      py      :     0.015137
 88 H s       :     0.910557  s :     0.910557
      pz      :     0.021647  p :     0.087035
      px      :     0.042930
      py      :     0.022458
 89 H s       :     0.871055  s :     0.871055
      pz      :     0.037959  p :     0.083850
      px      :     0.030496
      py      :     0.015395


                      *****************************
                      * MAYER POPULATION ANALYSIS *
                      *****************************

  NA   - Mulliken gross atomic population
  ZA   - Total nuclear charge
  QA   - Mulliken gross atomic charge
  VA   - Mayer's total valence
  BVA  - Mayer's bonded valence
  FA   - Mayer's free valence

  ATOM       NA         ZA         QA         VA         BVA        FA
  0 C      5.7809     6.0000     0.2191     3.8487     3.8487    -0.0000
  1 N      7.4564     7.0000    -0.4564     3.3381     3.3381    -0.0000
  2 C      6.0760     6.0000    -0.0760     3.9250     3.9250     0.0000
  3 N      7.3404     7.0000    -0.3404     3.4577     3.4577    -0.0000
  4 C      6.0619     6.0000    -0.0619     4.0949     4.0949    -0.0000
  5 N      7.5663     7.0000    -0.5663     3.0963     3.0963    -0.0000
  6 C      6.1158     6.0000    -0.1158     3.9523     3.9523     0.0000
  7 N      7.3409     7.0000    -0.3409     3.4324     3.4324    -0.0000
  8 C      5.7902     6.0000     0.2098     3.8444     3.8444     0.0000
  9 N      7.5624     7.0000    -0.5624     3.0772     3.0772    -0.0000
 10 C      5.8807     6.0000     0.1193     3.9096     3.9096    -0.0000
 11 N      7.4382     7.0000    -0.4382     3.3795     3.3795    -0.0000
 12 C      6.0626     6.0000    -0.0626     3.8618     3.8618     0.0000
 13 N      7.4294     7.0000    -0.4294     3.4280     3.4280     0.0000
 14 C      5.7866     6.0000     0.2134     3.7907     3.7907    -0.0000
 15 N      7.4412     7.0000    -0.4412     3.3712     3.3712     0.0000
 16 C      5.7673     6.0000     0.2327     3.7764     3.7764     0.0000
 17 C      6.1270     6.0000    -0.1270     3.9622     3.9622    -0.0000
 18 C      6.1556     6.0000    -0.1556     3.7505     3.7505    -0.0000
 19 C      5.7984     6.0000     0.2016     3.8678     3.8678    -0.0000
 20 C      5.7857     6.0000     0.2143     3.8288     3.8288     0.0000
 21 C      6.0757     6.0000    -0.0757     3.8559     3.8559     0.0000
 22 C      6.0894     6.0000    -0.0894     3.9821     3.9821    -0.0000
 23 C      6.0398     6.0000    -0.0398     3.9925     3.9925    -0.0000
 24 C      5.8058     6.0000     0.1942     3.8211     3.8211    -0.0000
 25 C      5.8856     6.0000     0.1144     3.8911     3.8911     0.0000
 26 C      6.0889     6.0000    -0.0889     3.9087     3.9087    -0.0000
 27 C      5.7864     6.0000     0.2136     3.8612     3.8612    -0.0000
 28 C      6.0615     6.0000    -0.0615     3.9888     3.9888    -0.0000
 29 C      6.1829     6.0000    -0.1829     3.7469     3.7469    -0.0000
 30 C      5.7539     6.0000     0.2461     3.7991     3.7991    -0.0000
 31 C      5.7693     6.0000     0.2307     3.8173     3.8173    -0.0000
 32 C      6.0614     6.0000    -0.0614     3.9235     3.9235    -0.0000
 33 C      6.0604     6.0000    -0.0604     3.9712     3.9712     0.0000
 34 C      6.0506     6.0000    -0.0506     3.9836     3.9836    -0.0000
 35 C      5.7722     6.0000     0.2278     3.8164     3.8164    -0.0000
 36 C      5.8917     6.0000     0.1083     3.8748     3.8748    -0.0000
 37 C      6.0642     6.0000    -0.0642     3.9177     3.9177    -0.0000
 38 C      5.7684     6.0000     0.2316     3.8017     3.8017    -0.0000
 39 C      6.0582     6.0000    -0.0582     3.9831     3.9831     0.0000
 40 C      6.1809     6.0000    -0.1809     3.7266     3.7266     0.0000
 41 C      5.7748     6.0000     0.2252     3.8871     3.8871     0.0000
 42 C      5.8029     6.0000     0.1971     3.8258     3.8258     0.0000
 43 C      6.0726     6.0000    -0.0726     3.8999     3.8999    -0.0000
 44 C      6.0904     6.0000    -0.0904     3.9858     3.9858    -0.0000
 45 C      6.0616     6.0000    -0.0616     3.9919     3.9919    -0.0000
 46 C      5.7890     6.0000     0.2110     3.8287     3.8287     0.0000
 47 C      5.8845     6.0000     0.1155     3.8933     3.8933    -0.0000
 48 C      6.0670     6.0000    -0.0670     3.9092     3.9092     0.0000
 49 C      5.7617     6.0000     0.2383     3.8958     3.8958    -0.0000
 50 C      6.0462     6.0000    -0.0462     3.9903     3.9903    -0.0000
 51 C      6.1949     6.0000    -0.1949     3.7371     3.7371     0.0000
 52 H      0.9631     1.0000     0.0369     0.9857     0.9857    -0.0000
 53 H      1.0179     1.0000    -0.0179     0.9990     0.9990    -0.0000
 54 H      0.9490     1.0000     0.0510     1.0264     1.0264     0.0000
 55 H      0.9651     1.0000     0.0349     0.9867     0.9867    -0.0000
 56 H      0.9511     1.0000     0.0489     0.9695     0.9695     0.0000
 57 H      0.9518     1.0000     0.0482     0.9824     0.9824    -0.0000
 58 H      0.9537     1.0000     0.0463     0.9848     0.9848    -0.0000
 59 H      1.0053     1.0000    -0.0053     1.0001     1.0001    -0.0000
 60 H      0.9529     1.0000     0.0471     1.0168     1.0168     0.0000
 61 H      0.8290     1.0000     0.1710     1.0421     1.0421    -0.0000
 62 H      0.8243     1.0000     0.1757     1.0436     1.0436    -0.0000
 63 H      0.9442     1.0000     0.0558     0.9852     0.9852    -0.0000
 64 H      1.0106     1.0000    -0.0106     0.9948     0.9948     0.0000
 65 H      0.9531     1.0000     0.0469     1.0100     1.0100    -0.0000
 66 H      0.9441     1.0000     0.0559     0.9855     0.9855     0.0000
 67 H      0.9371     1.0000     0.0629     0.9720     0.9720    -0.0000
 68 H      0.9426     1.0000     0.0574     0.9868     0.9868    -0.0000
 69 H      0.9433     1.0000     0.0567     0.9828     0.9828    -0.0000
 70 H      1.0298     1.0000    -0.0298     0.9938     0.9938     0.0000
 71 H      0.9547     1.0000     0.0453     1.0058     1.0058     0.0000
 72 H      0.9286     1.0000     0.0714     0.9835     0.9835    -0.0000
 73 H      1.0079     1.0000    -0.0079     1.0009     1.0009     0.0000
 74 H      0.9395     1.0000     0.0605     1.0101     1.0101     0.0000
 75 H      0.9293     1.0000     0.0707     0.9839     0.9839     0.0000
 76 H      0.9250     1.0000     0.0750     0.9721     0.9721    -0.0000
 77 H      0.9320     1.0000     0.0680     0.9855     0.9855    -0.0000
 78 H      0.9327     1.0000     0.0673     0.9854     0.9854    -0.0000
 79 H      1.0164     1.0000    -0.0164     0.9976     0.9976    -0.0000
 80 H      0.9387     1.0000     0.0613     1.0072     1.0072     0.0000
 81 H      0.9458     1.0000     0.0542     0.9856     0.9856     0.0000
 82 H      1.0252     1.0000    -0.0252     0.9933     0.9933     0.0000
 83 H      0.9586     1.0000     0.0414     1.0083     1.0083    -0.0000
 84 H      0.9462     1.0000     0.0538     0.9852     0.9852     0.0000
 85 H      0.9394     1.0000     0.0606     0.9716     0.9716     0.0000
 86 H      0.9447     1.0000     0.0553     0.9839     0.9839    -0.0000
 87 H      0.9429     1.0000     0.0571     0.9856     0.9856    -0.0000
 88 H      1.0144     1.0000    -0.0144     0.9968     0.9968     0.0000
 89 H      0.9529     1.0000     0.0471     1.0073     1.0073    -0.0000

  Mayer bond orders larger than 0.100000
B(  0-C ,  1-N ) :   1.0984 B(  0-C , 17-C ) :   1.7140 B(  0-C , 52-H ) :   0.9633 
B(  1-N ,  8-C ) :   1.0870 B(  1-N , 10-C ) :   0.9779 B(  2-C , 12-C ) :   1.4919 
B(  2-C , 16-C ) :   1.3689 B(  2-C , 53-H ) :   0.9740 B(  3-N , 14-C ) :   1.2203 
B(  3-N , 16-C ) :   1.1847 B(  3-N , 61-H ) :   0.8991 B(  4-C ,  6-C ) :   1.2142 
B(  4-C , 17-C ) :   1.2140 B(  4-C , 18-C ) :   1.4676 B(  5-N , 19-C ) :   1.4567 
B(  5-N , 27-C ) :   1.3733 B(  6-C ,  8-C ) :   1.7191 B(  6-C , 54-H ) :   0.9176 
B(  7-N , 30-C ) :   1.1948 B(  7-N , 38-C ) :   1.1901 B(  7-N , 62-H ) :   0.8966 
B(  8-C , 55-H ) :   0.9647 B(  9-N , 41-C ) :   1.3928 B(  9-N , 49-C ) :   1.4271 
B( 10-C , 56-H ) :   0.9774 B( 10-C , 57-H ) :   0.9831 B( 10-C , 58-H ) :   0.9835 
B( 11-N , 20-C ) :   1.1319 B( 11-N , 24-C ) :   1.1079 B( 11-N , 25-C ) :   0.9597 
B( 12-C , 14-C ) :   1.3584 B( 12-C , 59-H ) :   0.9524 B( 13-N , 31-C ) :   1.1621 
B( 13-N , 35-C ) :   1.1594 B( 13-N , 36-C ) :   0.9414 B( 14-C , 18-C ) :   1.1191 
B( 15-N , 42-C ) :   1.1070 B( 15-N , 46-C ) :   1.1236 B( 15-N , 47-C ) :   0.9617 
B( 16-C , 51-C ) :   1.1674 B( 17-C , 60-H ) :   0.9187 B( 18-C , 19-C ) :   1.1176 
B( 19-C , 21-C ) :   1.2516 B( 20-C , 28-C ) :   1.6275 B( 20-C , 63-H ) :   0.9702 
B( 21-C , 26-C ) :   1.5895 B( 21-C , 64-H ) :   0.9510 B( 22-C , 23-C ) :   1.2904 
B( 22-C , 28-C ) :   1.2650 B( 22-C , 29-C ) :   1.2242 B( 23-C , 24-C ) :   1.6189 
B( 23-C , 65-H ) :   0.9703 B( 24-C , 66-H ) :   0.9695 B( 25-C , 67-H ) :   0.9760 
B( 25-C , 68-H ) :   0.9828 B( 25-C , 69-H ) :   0.9823 B( 26-C , 27-C ) :   1.2547 
B( 26-C , 70-H ) :   0.9680 B( 27-C , 29-C ) :   1.2071 B( 28-C , 71-H ) :   0.9720 
B( 29-C , 30-C ) :   1.2473 B( 30-C , 32-C ) :   1.2779 B( 31-C , 39-C ) :   1.5880 
B( 31-C , 72-H ) :   0.9681 B( 32-C , 37-C ) :   1.5811 B( 32-C , 73-H ) :   0.9786 
B( 33-C , 34-C ) :   1.3077 B( 33-C , 39-C ) :   1.3035 B( 33-C , 40-C ) :   1.1754 
B( 34-C , 35-C ) :   1.5851 B( 34-C , 74-H ) :   0.9696 B( 35-C , 75-H ) :   0.9681 
B( 36-C , 76-H ) :   0.9767 B( 36-C , 77-H ) :   0.9816 B( 36-C , 78-H ) :   0.9823 
B( 37-C , 38-C ) :   1.2835 B( 37-C , 79-H ) :   0.9765 B( 38-C , 40-C ) :   1.2350 
B( 39-C , 80-H ) :   0.9705 B( 40-C , 41-C ) :   1.2505 B( 41-C , 43-C ) :   1.1855 
B( 42-C , 50-C ) :   1.6344 B( 42-C , 81-H ) :   0.9696 B( 43-C , 48-C ) :   1.6671 
B( 43-C , 82-H ) :   0.9721 B( 44-C , 45-C ) :   1.2626 B( 44-C , 50-C ) :   1.2712 
B( 44-C , 51-C ) :   1.2631 B( 45-C , 46-C ) :   1.6356 B( 45-C , 83-H ) :   0.9719 
B( 46-C , 84-H ) :   0.9700 B( 47-C , 85-H ) :   0.9762 B( 47-C , 86-H ) :   0.9829 
B( 47-C , 87-H ) :   0.9825 B( 48-C , 49-C ) :   1.1890 B( 48-C , 88-H ) :   0.9749 
B( 49-C , 51-C ) :   1.2431 B( 50-C , 89-H ) :   0.9708 

-------
TIMINGS
-------

Total SCF time: 0 days 0 hours 43 min 13 sec 

Total time                  ....    2593.192 sec
Sum of individual times     ....    2590.227 sec  ( 99.9%)

Fock matrix formation       ....    2572.627 sec  ( 99.2%)
Diagonalization             ....       4.698 sec  (  0.2%)
Density matrix formation    ....       0.494 sec  (  0.0%)
Population analysis         ....       0.296 sec  (  0.0%)
Initial guess               ....       2.332 sec  (  0.1%)
Orbital Transformation      ....       0.000 sec  (  0.0%)
Orbital Orthonormalization  ....       0.000 sec  (  0.0%)
DIIS solution               ....       2.525 sec  (  0.1%)
SOSCF solution              ....       5.921 sec  (  0.2%)

Maximum memory used throughout the entire SCF-calculation: 304.3 MB


           ************************************************************
           *        Program running with 8 parallel MPI-processes     *
           *              working on a common directory               *
           ************************************************************

------------------------------------------------------------------------------
                                ORCA  MP2 
------------------------------------------------------------------------------

Freezing NCore=104 chemical core electrons

----------
MP2 ENERGY (disk based algorithm)
----------

Dimension of the basis                    ...  918
Memory devoted to MP2                     ... 7000 MB   
Data format for buffers                   ... DOUBLE
Compression type for matrix containers    ... UNCOMPRESSED

-------------------------------
PARTIAL EXCHANGE TRANSFORMATION
-------------------------------

Transformation type                        ... one-operator
Generation of integrals (i,mue|j,nue)      ... ON
Generation of integrals (mue,kappa|nue,tau)... OFF
Generation of integrals (i,mue|a,nue)      ... OFF
Dimension of the basis                     ...  918
Number of internal MOs                     ...  127 (  52- 178)
Pair cutoff                                ... 2.500e-12 Eh
Number of AO pairs in the trafo            ... 421821
Total Number of distinct AO pairs          ... 421821
Memory devoted for trafo                   ... 7000.0 MB 
Max. Number of MO pairs treated together   ... 1088      
Number Format for Storage                  ... Double (8 Byte)
Integral package used                      ... LIBINT

Starting integral evaluation:
    ... done with AO integral generation
Closing buffer AOK     (38.30 GB; CompressionRatio= 1.32)
Collecting buffer AOK 
Number of MO pairs included in the trafo   ... 8128
------------------------
SORTING OF (i,mue|j,nue)
------------------------

IBATCH = 1 of  1
Closing buffer KAO     (51.03 GB; CompressionRatio= 1.00)
Collecting buffer KAO 
N(AO-Batches) Done                         ... 175032860 
N(AO-Batches) Skipped                      ... 167246183 
N(IJ)-pairs Skipped                        ...         0 
TOTAL TIME for half transformation         ...  1146.108 sec
AO-integral generation                     ...   251.685 sec
Half transformation                        ...   467.726 sec
K-integral sorting                         ...    98.224 sec

Finished integral transformation - now doing MP2 part

OPERATOR COMBINATION   0   0: ij=( 52..178, 52..178)
Process 2:   Internal MO  84
Process 5:   Internal MO 132
Process 0:   Internal MO  54
Process 0:   Internal MO  57
Process 1:   Internal MO  69
Process 0:   Internal MO  60
Process 4:   Internal MO 117
Process 0:   Internal MO  63
Process 1:   Internal MO  72
Process 2:   Internal MO  87
Process 0:   Internal MO  66
Process 3:   Internal MO 102
Process 7:   Internal MO 165
Process 1:   Internal MO  75
Process 6:   Internal MO 150
Process 2:   Internal MO  90
Process 1:   Internal MO  78
Process 4:   Internal MO 120
Process 5:   Internal MO 135
Process 3:   Internal MO 105
Process 1:   Internal MO  81
Process 2:   Internal MO  93
Process 3:   Internal MO 108
Process 2:   Internal MO  96
Process 4:   Internal MO 123
Process 6:   Internal MO 153
Process 7:   Internal MO 168
Process 5:   Internal MO 138
Process 2:   Internal MO  99
Process 3:   Internal MO 111
Process 4:   Internal MO 126
Process 6:   Internal MO 156
Process 5:   Internal MO 141
Process 3:   Internal MO 114
Process 7:   Internal MO 171
Process 4:   Internal MO 129
Process 5:   Internal MO 144
Process 6:   Internal MO 159
Process 7:   Internal MO 174
Process 5:   Internal MO 147
Process 6:   Internal MO 162
Process 7:   Internal MO 177
-----------------------------------------------
 MP2 CORRELATION ENERGY   :     -7.285657258 Eh
-----------------------------------------------


-------
TIMINGS
-------
Total time                : 1306.761 sec
Integral trafo            : 1155.982 sec ( 88.5%)
K(i,j)                    :    9.238 sec (  0.7%)
T(i,j)                    :    0.136 sec (  0.0%)

---------------------------------------
MP2 TOTAL ENERGY:    -2130.832905902 Eh
---------------------------------------

Maximum memory used throughout the entire MP2-calculation: 6735.8 MB

-------------------------   --------------------
FINAL SINGLE POINT ENERGY     -2130.832905902377
-------------------------   --------------------


                            ***************************************
                            *     ORCA property calculations      *
                            ***************************************


  WARNING: The energy has been calculated at the MP2 level but the densities
           used in the property calculations are still SCF densities
           MP2 response densities have not been calculated 
           use %mp2 Density relaxed end
           or  %mp2 Density unrelaxed end

                                    ---------------------
                                    Active property flags
                                    ---------------------
   (+) Dipole Moment


------------------------------------------------------------------------------
                       ORCA ELECTRIC PROPERTIES CALCULATION
------------------------------------------------------------------------------

Dipole Moment Calculation                       ... on
Quadrupole Moment Calculation                   ... off
Polarizability Calculation                      ... off
GBWName                                         ... /scratch/chu_02/allen/tmpyp4_amber_gaff2/conf1/conf1/Conf345.orca.gbw
Electron density                                ... /scratch/chu_02/allen/tmpyp4_amber_gaff2/conf1/conf1/Conf345.orca.scfp
The origin for moment calculation is the CENTER OF MASS  = (-0.001397, -0.005072  0.001183)

-------------
DIPOLE MOMENT
-------------
                                X             Y             Z
Electronic contribution:      2.70113      -4.37304      -0.07140
Nuclear contribution   :     -0.02148       0.17154       0.08282
                        -----------------------------------------
Total Dipole Moment    :      2.67965      -4.20151       0.01142
                        -----------------------------------------
Magnitude (a.u.)       :      4.98330
Magnitude (Debye)      :     12.66655



--------------------
Rotational spectrum 
--------------------
 
Rotational constants in cm-1:     0.001503     0.001477     0.000760 
Rotational constants in MHz :    45.062917    44.284300    22.787872 

 Dipole components along the rotational axes: 
x,y,z [a.u.] :     3.427203    -3.617651     0.013960 
x,y,z [Debye]:     8.711258    -9.195339     0.035485 

 

Timings for individual modules:

Sum of individual times         ...     3907.547 sec (=  65.126 min)
GTO integral calculation        ...        2.971 sec (=   0.050 min)   0.1 %
SCF iterations                  ...     2596.478 sec (=  43.275 min)  66.4 %
MP2 module                      ...     1308.098 sec (=  21.802 min)  33.5 %
                             ****ORCA TERMINATED NORMALLY****
TOTAL RUN TIME: 0 days 1 hours 5 minutes 9 seconds 754 msec
# of primitive gaussian functions

