
                                 *****************
                                 * O   R   C   A *
                                 *****************

                                            #,                                       
                                            ###                                      
                                            ####                                     
                                            #####                                    
                                            ######                                   
                                           ########,                                 
                                     ,,################,,,,,                         
                               ,,#################################,,                 
                          ,,##########################################,,             
                       ,#########################################, ''#####,          
                    ,#############################################,,   '####,        
                  ,##################################################,,,,####,       
                ,###########''''           ''''###############################       
              ,#####''   ,,,,##########,,,,          '''####'''          '####       
            ,##' ,,,,###########################,,,                        '##       
           ' ,,###''''                  '''############,,,                           
         ,,##''                                '''############,,,,        ,,,,,,###''
      ,#''                                            '''#######################'''  
     '                                                          ''''####''''         
             ,#######,   #######,   ,#######,      ##                                
            ,#'     '#,  ##    ##  ,#'     '#,    #''#        ######   ,####,        
            ##       ##  ##   ,#'  ##            #'  '#       #        #'  '#        
            ##       ##  #######   ##           ,######,      #####,   #    #        
            '#,     ,#'  ##    ##  '#,     ,#' ,#      #,         ##   #,  ,#        
             '#######'   ##     ##  '#######'  #'      '#     #####' # '####'        



                  #######################################################
                  #                        -***-                        #
                  #          Department of theory and spectroscopy      #
                  #    Directorship and core code : Frank Neese         #
                  #        Max Planck Institute fuer Kohlenforschung    #
                  #                Kaiser Wilhelm Platz 1               #
                  #                 D-45470 Muelheim/Ruhr               #
                  #                      Germany                        #
                  #                                                     #
                  #                  All rights reserved                #
                  #                        -***-                        #
                  #######################################################


                         Program Version 5.0.4 -  RELEASE  -


 With contributions from (in alphabetic order):
   Daniel Aravena         : Magnetic Suceptibility
   Michael Atanasov       : Ab Initio Ligand Field Theory (pilot matlab implementation)
   Alexander A. Auer      : GIAO ZORA, VPT2 properties, NMR spectrum
   Ute Becker             : Parallelization
   Giovanni Bistoni       : ED, misc. LED, open-shell LED, HFLD
   Martin Brehm           : Molecular dynamics
   Dmytro Bykov           : SCF Hessian
   Vijay G. Chilkuri      : MRCI spin determinant printing, contributions to CSF-ICE
   Dipayan Datta          : RHF DLPNO-CCSD density
   Achintya Kumar Dutta   : EOM-CC, STEOM-CC
   Dmitry Ganyushin       : Spin-Orbit,Spin-Spin,Magnetic field MRCI
   Miquel Garcia          : C-PCM and meta-GGA Hessian, CC/C-PCM, Gaussian charge scheme
   Yang Guo               : DLPNO-NEVPT2, F12-NEVPT2, CIM, IAO-localization
   Andreas Hansen         : Spin unrestricted coupled pair/coupled cluster methods
   Benjamin Helmich-Paris : MC-RPA, TRAH-SCF, COSX integrals
   Lee Huntington         : MR-EOM, pCC
   Robert Izsak           : Overlap fitted RIJCOSX, COSX-SCS-MP3, EOM
   Marcus Kettner         : VPT2
   Christian Kollmar      : KDIIS, OOCD, Brueckner-CCSD(T), CCSD density, CASPT2, CASPT2-K
   Simone Kossmann        : Meta GGA functionals, TD-DFT gradient, OOMP2, MP2 Hessian
   Martin Krupicka        : Initial AUTO-CI
   Lucas Lang             : DCDCAS
   Marvin Lechner         : AUTO-CI (C++ implementation), FIC-MRCC
   Dagmar Lenk            : GEPOL surface, SMD
   Dimitrios Liakos       : Extrapolation schemes; Compound Job, initial MDCI parallelization
   Dimitrios Manganas     : Further ROCIS development; embedding schemes
   Dimitrios Pantazis     : SARC Basis sets
   Anastasios Papadopoulos: AUTO-CI, single reference methods and gradients
   Taras Petrenko         : DFT Hessian,TD-DFT gradient, ASA, ECA, R-Raman, ABS, FL, XAS/XES, NRVS
   Peter Pinski           : DLPNO-MP2, DLPNO-MP2 Gradient
   Christoph Reimann      : Effective Core Potentials
   Marius Retegan         : Local ZFS, SOC
   Christoph Riplinger    : Optimizer, TS searches, QM/MM, DLPNO-CCSD(T), (RO)-DLPNO pert. Triples
   Tobias Risthaus        : Range-separated hybrids, TD-DFT gradient, RPA, STAB
   Michael Roemelt        : Original ROCIS implementation
   Masaaki Saitow         : Open-shell DLPNO-CCSD energy and density
   Barbara Sandhoefer     : DKH picture change effects
   Avijit Sen             : IP-ROCIS
   Kantharuban Sivalingam : CASSCF convergence, NEVPT2, FIC-MRCI
   Bernardo de Souza      : ESD, SOC TD-DFT
   Georgi Stoychev        : AutoAux, RI-MP2 NMR, DLPNO-MP2 response
   Willem Van den Heuvel  : Paramagnetic NMR
   Boris Wezisla          : Elementary symmetry handling
   Frank Wennmohs         : Technical directorship


 We gratefully acknowledge several colleagues who have allowed us to
 interface, adapt or use parts of their codes:
   Stefan Grimme, W. Hujo, H. Kruse, P. Pracht,  : VdW corrections, initial TS optimization,
                  C. Bannwarth, S. Ehlert          DFT functionals, gCP, sTDA/sTD-DF
   Ed Valeev, F. Pavosevic, A. Kumar             : LibInt (2-el integral package), F12 methods
   Garnet Chan, S. Sharma, J. Yang, R. Olivares  : DMRG
   Ulf Ekstrom                                   : XCFun DFT Library
   Mihaly Kallay                                 : mrcc  (arbitrary order and MRCC methods)
   Jiri Pittner, Ondrej Demel                    : Mk-CCSD
   Frank Weinhold                                : gennbo (NPA and NBO analysis)
   Christopher J. Cramer and Donald G. Truhlar   : smd solvation model
   Lars Goerigk                                  : TD-DFT with DH, B97 family of functionals
   V. Asgeirsson, H. Jonsson                     : NEB implementation
   FAccTs GmbH                                   : IRC, NEB, NEB-TS, DLPNO-Multilevel, CI-OPT
                                                   MM, QMMM, 2- and 3-layer-ONIOM, Crystal-QMMM,
                                                   LR-CPCM, SF, NACMEs, symmetry and pop. for TD-DFT,
                                                   nearIR, NL-DFT gradient (VV10), updates on ESD,
                                                   ML-optimized integration grids
   S Lehtola, MJT Oliveira, MAL Marques          : LibXC Library
   Liviu Ungur et al                             : ANISO software


 Your calculation uses the libint2 library for the computation of 2-el integrals
 For citations please refer to: http://libint.valeyev.net

 Your ORCA version has been built with support for libXC version: 5.1.0
 For citations please refer to: https://tddft.org/programs/libxc/

 This ORCA versions uses:
   CBLAS   interface :  Fast vector & matrix operations
   LAPACKE interface :  Fast linear algebra routines
   SCALAPACK package :  Parallel linear algebra routines
   Shared memory     :  Shared parallel matrices
   BLAS/LAPACK       :  OpenBLAS 0.3.15  USE64BITINT DYNAMIC_ARCH NO_AFFINITY Sandybridge SINGLE_THREADED
        Core in use  :  Sandybridge
   Copyright (c) 2011-2014, The OpenBLAS Project


================================================================================

----- Orbital basis set information -----
Your calculation utilizes the basis: cc-pVDZ 
       H, B-Ne : Obtained from the ccRepo (grant-hill.group.shef.ac.uk/ccrepo) Feb. 2017
                 T. H. Dunning, Jr., J. Chem. Phys. 90, 1007 (1989)
            He : Obtained from the ccRepo (grant-hill.group.shef.ac.uk/ccrepo) Feb. 2017
                 D. E. Woon, T. H. Dunning, Jr., J. Chem. Phys. 100, 2975 (1994)
  Li-Be, Na-Mg : Obtained from the ccRepo (grant-hill.group.shef.ac.uk/ccrepo) Feb. 2017
                 B. P. Prascher, D. E. Woon, K. A. Peterson, T. H. Dunning, Jr., A. K. Wilson, Theor. Chem. Acc. 128, 69 (2011)
         Al-Ar : Obtained from the ccRepo (grant-hill.group.shef.ac.uk/ccrepo) Feb. 2017
                 D. E. Woon, T. H. Dunning, Jr., J. Chem. Phys. 98, 1358 (1993)
            Ca : Obtained from the Peterson Research Group Website (tyr0.chem.wsu.edu/~kipeters) Feb. 2017
                 J. Koput, K. A. Peterson, J. Phys. Chem. 106, 9595 (2002)
         Sc-Zn : Obtained from the ccRepo (grant-hill.group.shef.ac.uk/ccrepo) Feb. 2017
                 N. B. Balabanov, K. A. Peterson, J. Chem. Phys. 123, 064107 (2005)
                 N. B. Balabanov, K. A. Peterson, J. Chem. Phys. 125, 074110 (2006)
         Ga-Kr : Obtained from the ccRepo (grant-hill.group.shef.ac.uk/ccrepo) Feb. 2017
                 A. K. Wilson, D. E. Woon, K. A. Peterson, T. H. Dunning, Jr., J. Chem. Phys. 110, 7667 (1999)

================================================================================
                                        WARNINGS
                       Please study these warnings very carefully!
================================================================================


WARNING: No MP2 level density has been requested!
         To caclulate MP2 level properties use
         %mp2 Density relaxed end
         or
         %mp2 Density unrelaxed end

WARNING: Post HF methods need fully converged wavefunctions
  ===> : Setting SCFConvForced true
         You can overwrite this default with %scf ConvForced false 


INFO   : the flag for use of the SHARK integral package has been found!

================================================================================
                                       INPUT FILE
================================================================================
NAME = /scratch/allen/tmpyp4_amber_gaff2/2.Mdgx/conf11/conf11/Conf178.orca
|  1> ! PAL2
|  2> ! mp2 cc-pvdz TightSCF  NoKeepInts
|  3> 
|  4> %scf
|  5>   MaxCore 2000
|  6> end
|  7> %mp2
|  8>   MaxCore 2000
|  9> end
| 10> * xyz 0 1
| 11>    C       -4.95300         5.18600        -0.02100
| 12>    C        1.47400         4.04100         0.05700
| 13>    C       -2.80200         4.09300         0.04900
| 14>    C       -2.21700         5.36400         0.15400
| 15>    C       -3.01000         6.49400         0.17000
| 16>    C       -5.18200         7.62300         0.13900
| 17>    C        0.13200         4.30700         0.06100
| 18>    C       -0.56900         3.05600         0.04700
| 19>    C        1.64900         2.61800         0.02300
| 20>    C       -4.20100         4.02600        -0.03600
| 21>    N       -4.35700         6.39600         0.08000
| 22>    N        0.38800         2.06700         0.02500
| 23>    N       -2.01000         0.39500        -0.07500
| 24>    N       -0.38800        -2.07400        -0.02700
| 25>    N        2.01000        -0.40100         0.06500
| 26>    C       -1.96000         2.86100         0.02400
| 27>    C       -2.62300         1.61500        -0.01800
| 28>    C       -5.57300        -4.32900         1.06600
| 29>    C       -4.07300         1.47100         0.05600
| 30>    C       -4.10600        -2.75600        -0.02600
| 31>    C       -4.99500        -2.75700        -1.11100
| 32>    C       -6.13200        -3.54200        -1.07600
| 33>    C       -7.65100        -5.11300         0.04000
| 34>    C       -4.32400         0.14100         0.03700
| 35>    C       -3.02500        -0.52000        -0.04800
| 36>    C       -4.42200        -3.56600         1.07500
| 37>    N       -6.40700        -4.31300         0.00100
| 38>    C       -2.86700        -1.92200        -0.04000
| 39>    C       -1.65000        -2.62400        -0.02700
| 40>    C        3.56800        -6.14200        -1.04000
| 41>    C       -1.47600        -4.04900        -0.03400
| 42>    C        2.80300        -4.09900        -0.00800
| 43>    C        3.65700        -4.38400         1.06900
| 44>    C        4.42700        -5.53000         1.05900
| 45>    C        5.24500        -7.58800         0.01400
| 46>    C       -0.13400        -4.31500        -0.02200
| 47>    C        0.56800        -3.06400        -0.02700
| 48>    C        2.77500        -5.01200        -1.07400
| 49>    N        4.37600        -6.39100         0.01700
| 50>    C        1.95900        -2.86900        -0.00900
| 51>    C        2.62100        -1.62200         0.00900
| 52>    C        5.54300         4.33900        -1.13000
| 53>    C        4.07000        -1.47900        -0.09400
| 54>    C        4.10400         2.75100        -0.02100
| 55>    C        5.02700         2.72900         1.03600
| 56>    C        6.16600         3.50900         0.97800
| 57>    C        7.61900         5.15300        -0.11500
| 58>    C        4.32100        -0.14800        -0.09200
| 59>    C        3.02500         0.51400         0.01500
| 60>    C        4.38700         3.58200        -1.11500
| 61>    C        2.86600         1.91600         0.01300
| 62>    N        6.41300         4.29600        -0.09500
| 63>    H       -6.03300         5.18200        -0.09700
| 64>    H        2.27400         4.76600         0.08100
| 65>    H       -1.14300         5.48000         0.23200
| 66>    H       -2.60600         7.49400         0.25800
| 67>    H       -5.37500         7.87200         1.18500
| 68>    H       -4.64000         8.43400        -0.34600
| 69>    H       -6.12200         7.43800        -0.38100
| 70>    H       -0.33200         5.28200         0.06900
| 71>    H       -4.71200         3.07500        -0.13300
| 72>    H        0.18200         1.07200         0.00500
| 73>    H       -0.18300        -1.08000        -0.02100
| 74>    H       -5.86400        -4.96200         1.89500
| 75>    H       -4.79400         2.27200         0.13900
| 76>    H       -4.80000        -2.16000        -1.99400
| 77>    H       -6.84100        -3.58200        -1.89300
| 78>    H       -8.42800        -4.53600         0.54600
| 79>    H       -7.95600        -5.33700        -0.98100
| 80>    H       -7.45600        -6.03700         0.58400
| 81>    H       -5.28700        -0.34400         0.10000
| 82>    H       -3.78000        -3.60100         1.94700
| 83>    H        3.58700        -6.86800        -1.84300
| 84>    H       -2.27600        -4.77400        -0.05000
| 85>    H        3.71400        -3.72400         1.92600
| 86>    H        5.09200        -5.79500         1.87100
| 87>    H        6.20500        -7.32900        -0.43900
| 88>    H        5.39300        -7.91700         1.04200
| 89>    H        4.75900        -8.37300        -0.56400
| 90>    H        0.32900        -5.29000        -0.00800
| 91>    H        2.14600        -4.84200        -1.94000
| 92>    H        5.80800         4.98600        -1.95600
| 93>    H        4.78800        -2.28100        -0.18500
| 94>    H        4.86000         2.11400         1.91200
| 95>    H        6.90100         3.53100         1.77200
| 96>    H        7.38300         6.10900         0.35600
| 97>    H        8.41400         4.65200         0.43500
| 98>    H        7.92100         5.31000        -1.15000
| 99>    H        5.28300         0.33600        -0.17900
|100>    H        3.72000         3.63200        -1.96700
|101> *
|102> 
|103>                          ****END OF INPUT****
================================================================================

                       ****************************
                       * Single Point Calculation *
                       ****************************

---------------------------------
CARTESIAN COORDINATES (ANGSTROEM)
---------------------------------
  C     -4.953000    5.186000   -0.021000
  C      1.474000    4.041000    0.057000
  C     -2.802000    4.093000    0.049000
  C     -2.217000    5.364000    0.154000
  C     -3.010000    6.494000    0.170000
  C     -5.182000    7.623000    0.139000
  C      0.132000    4.307000    0.061000
  C     -0.569000    3.056000    0.047000
  C      1.649000    2.618000    0.023000
  C     -4.201000    4.026000   -0.036000
  N     -4.357000    6.396000    0.080000
  N      0.388000    2.067000    0.025000
  N     -2.010000    0.395000   -0.075000
  N     -0.388000   -2.074000   -0.027000
  N      2.010000   -0.401000    0.065000
  C     -1.960000    2.861000    0.024000
  C     -2.623000    1.615000   -0.018000
  C     -5.573000   -4.329000    1.066000
  C     -4.073000    1.471000    0.056000
  C     -4.106000   -2.756000   -0.026000
  C     -4.995000   -2.757000   -1.111000
  C     -6.132000   -3.542000   -1.076000
  C     -7.651000   -5.113000    0.040000
  C     -4.324000    0.141000    0.037000
  C     -3.025000   -0.520000   -0.048000
  C     -4.422000   -3.566000    1.075000
  N     -6.407000   -4.313000    0.001000
  C     -2.867000   -1.922000   -0.040000
  C     -1.650000   -2.624000   -0.027000
  C      3.568000   -6.142000   -1.040000
  C     -1.476000   -4.049000   -0.034000
  C      2.803000   -4.099000   -0.008000
  C      3.657000   -4.384000    1.069000
  C      4.427000   -5.530000    1.059000
  C      5.245000   -7.588000    0.014000
  C     -0.134000   -4.315000   -0.022000
  C      0.568000   -3.064000   -0.027000
  C      2.775000   -5.012000   -1.074000
  N      4.376000   -6.391000    0.017000
  C      1.959000   -2.869000   -0.009000
  C      2.621000   -1.622000    0.009000
  C      5.543000    4.339000   -1.130000
  C      4.070000   -1.479000   -0.094000
  C      4.104000    2.751000   -0.021000
  C      5.027000    2.729000    1.036000
  C      6.166000    3.509000    0.978000
  C      7.619000    5.153000   -0.115000
  C      4.321000   -0.148000   -0.092000
  C      3.025000    0.514000    0.015000
  C      4.387000    3.582000   -1.115000
  C      2.866000    1.916000    0.013000
  N      6.413000    4.296000   -0.095000
  H     -6.033000    5.182000   -0.097000
  H      2.274000    4.766000    0.081000
  H     -1.143000    5.480000    0.232000
  H     -2.606000    7.494000    0.258000
  H     -5.375000    7.872000    1.185000
  H     -4.640000    8.434000   -0.346000
  H     -6.122000    7.438000   -0.381000
  H     -0.332000    5.282000    0.069000
  H     -4.712000    3.075000   -0.133000
  H      0.182000    1.072000    0.005000
  H     -0.183000   -1.080000   -0.021000
  H     -5.864000   -4.962000    1.895000
  H     -4.794000    2.272000    0.139000
  H     -4.800000   -2.160000   -1.994000
  H     -6.841000   -3.582000   -1.893000
  H     -8.428000   -4.536000    0.546000
  H     -7.956000   -5.337000   -0.981000
  H     -7.456000   -6.037000    0.584000
  H     -5.287000   -0.344000    0.100000
  H     -3.780000   -3.601000    1.947000
  H      3.587000   -6.868000   -1.843000
  H     -2.276000   -4.774000   -0.050000
  H      3.714000   -3.724000    1.926000
  H      5.092000   -5.795000    1.871000
  H      6.205000   -7.329000   -0.439000
  H      5.393000   -7.917000    1.042000
  H      4.759000   -8.373000   -0.564000
  H      0.329000   -5.290000   -0.008000
  H      2.146000   -4.842000   -1.940000
  H      5.808000    4.986000   -1.956000
  H      4.788000   -2.281000   -0.185000
  H      4.860000    2.114000    1.912000
  H      6.901000    3.531000    1.772000
  H      7.383000    6.109000    0.356000
  H      8.414000    4.652000    0.435000
  H      7.921000    5.310000   -1.150000
  H      5.283000    0.336000   -0.179000
  H      3.720000    3.632000   -1.967000

----------------------------
CARTESIAN COORDINATES (A.U.)
----------------------------
  NO LB      ZA    FRAG     MASS         X           Y           Z
   0 C     6.0000    0    12.011   -9.359814    9.800120   -0.039684
   1 C     6.0000    0    12.011    2.785456    7.636383    0.107714
   2 C     6.0000    0    12.011   -5.295013    7.734649    0.092597
   3 C     6.0000    0    12.011   -4.189523   10.136491    0.291018
   4 C     6.0000    0    12.011   -5.688076   12.271882    0.321253
   5 C     6.0000    0    12.011   -9.792561   14.405382    0.262672
   6 C     6.0000    0    12.011    0.249444    8.139050    0.115273
   7 C     6.0000    0    12.011   -1.075254    5.775003    0.088817
   8 C     6.0000    0    12.011    3.116158    4.947303    0.043464
   9 C     6.0000    0    12.011   -7.938739    7.608037   -0.068030
  10 N     7.0000    0    14.007   -8.233537   12.086688    0.151178
  11 N     7.0000    0    14.007    0.733214    3.906064    0.047243
  12 N     7.0000    0    14.007   -3.798350    0.746442   -0.141729
  13 N     7.0000    0    14.007   -0.733214   -3.919292   -0.051023
  14 N     7.0000    0    14.007    3.798350   -0.757780    0.122832
  15 C     6.0000    0    12.011   -3.703863    5.406506    0.045353
  16 C     6.0000    0    12.011   -4.956752    3.051908   -0.034015
  17 C     6.0000    0    12.011  -10.531444   -8.180624    2.014448
  18 C     6.0000    0    12.011   -7.696855    2.779787    0.105825
  19 C     6.0000    0    12.011   -7.759216   -5.208085   -0.049133
  20 C     6.0000    0    12.011   -9.439182   -5.209975   -2.099486
  21 C     6.0000    0    12.011  -11.587801   -6.693410   -2.033345
  22 C     6.0000    0    12.011  -14.458295   -9.662170    0.075589
  23 C     6.0000    0    12.011   -8.171176    0.266451    0.069920
  24 C     6.0000    0    12.011   -5.716422   -0.982658   -0.090707
  25 C     6.0000    0    12.011   -8.356369   -6.738763    2.031456
  26 N     7.0000    0    14.007  -12.107475   -8.150389    0.001890
  27 C     6.0000    0    12.011   -5.417845   -3.632054   -0.075589
  28 C     6.0000    0    12.011   -3.118048   -4.958641   -0.051023
  29 C     6.0000    0    12.011    6.742543  -11.606698   -1.965315
  30 C     6.0000    0    12.011   -2.789236   -7.651501   -0.064251
  31 C     6.0000    0    12.011    5.296902   -7.745987   -0.015118
  32 C     6.0000    0    12.011    6.910728   -8.284559    2.020117
  33 C     6.0000    0    12.011    8.365818  -10.450186    2.001220
  34 C     6.0000    0    12.011    9.911614  -14.339242    0.026456
  35 C     6.0000    0    12.011   -0.253223   -8.154168   -0.041574
  36 C     6.0000    0    12.011    1.073364   -5.790121   -0.051023
  37 C     6.0000    0    12.011    5.243990   -9.471307   -2.029566
  38 N     7.0000    0    14.007    8.269442  -12.077240    0.032125
  39 C     6.0000    0    12.011    3.701973   -5.421624   -0.017008
  40 C     6.0000    0    12.011    4.952972   -3.065136    0.017008
  41 C     6.0000    0    12.011   10.474752    8.199522   -2.135391
  42 C     6.0000    0    12.011    7.691185   -2.794905   -0.177634
  43 C     6.0000    0    12.011    7.755436    5.198637   -0.039684
  44 C     6.0000    0    12.011    9.499653    5.157063    1.957756
  45 C     6.0000    0    12.011   11.652051    6.631049    1.848152
  46 C     6.0000    0    12.011   14.397823    9.737759   -0.217319
  47 C     6.0000    0    12.011    8.165507   -0.279679   -0.173855
  48 C     6.0000    0    12.011    5.716422    0.971319    0.028346
  49 C     6.0000    0    12.011    8.290229    6.768999   -2.107045
  50 C     6.0000    0    12.011    5.415955    3.620715    0.024566
  51 N     7.0000    0    14.007   12.118814    8.118263   -0.179524
  52 H     1.0000    0     1.008  -11.400718    9.792561   -0.183303
  53 H     1.0000    0     1.008    4.297237    9.006435    0.153068
  54 H     1.0000    0     1.008   -2.159957   10.355699    0.438416
  55 H     1.0000    0     1.008   -4.924626   14.161608    0.487549
  56 H     1.0000    0     1.008  -10.157278   14.875924    2.239325
  57 H     1.0000    0     1.008   -8.768329   15.937950   -0.653845
  58 H     1.0000    0     1.008  -11.568903   14.055783   -0.719986
  59 H     1.0000    0     1.008   -0.627389    9.981533    0.130391
  60 H     1.0000    0     1.008   -8.904390    5.810908   -0.251334
  61 H     1.0000    0     1.008    0.343930    2.025786    0.009449
  62 H     1.0000    0     1.008   -0.345820   -2.040904   -0.039684
  63 H     1.0000    0     1.008  -11.081354   -9.376821    3.581031
  64 H     1.0000    0     1.008   -9.059347    4.293458    0.262672
  65 H     1.0000    0     1.008   -9.070685   -4.081808   -3.768114
  66 H     1.0000    0     1.008  -12.927616   -6.768999   -3.577252
  67 H     1.0000    0     1.008  -15.926612   -8.571798    1.031790
  68 H     1.0000    0     1.008  -15.034661  -10.085468   -1.853821
  69 H     1.0000    0     1.008  -14.089798  -11.408277    1.103600
  70 H     1.0000    0     1.008   -9.990982   -0.650066    0.188973
  71 H     1.0000    0     1.008   -7.143165   -6.804904    3.679297
  72 H     1.0000    0     1.008    6.778448  -12.978639   -3.482765
  73 H     1.0000    0     1.008   -4.301017   -9.021553   -0.094486
  74 H     1.0000    0     1.008    7.018443   -7.037340    3.639613
  75 H     1.0000    0     1.008    9.622485  -10.950963    3.535678
  76 H     1.0000    0     1.008   11.725751  -13.849803   -0.829590
  77 H     1.0000    0     1.008   10.191293  -14.960962    1.969095
  78 H     1.0000    0     1.008    8.993207  -15.822677   -1.065806
  79 H     1.0000    0     1.008    0.621720   -9.996651   -0.015118
  80 H     1.0000    0     1.008    4.055352   -9.150054   -3.666069
  81 H     1.0000    0     1.008   10.975529    9.422175   -3.696304
  82 H     1.0000    0     1.008    9.048009   -4.310465   -0.349599
  83 H     1.0000    0     1.008    9.184069    3.994881    3.613156
  84 H     1.0000    0     1.008   13.041000    6.672623    3.348595
  85 H     1.0000    0     1.008   13.951848   11.544337    0.672743
  86 H     1.0000    0     1.008   15.900156    8.791006    0.822031
  87 H     1.0000    0     1.008   14.968521   10.034446   -2.173185
  88 H     1.0000    0     1.008    9.983423    0.634948   -0.338261
  89 H     1.0000    0     1.008    7.029781    6.863485   -3.717091

--------------------------------
INTERNAL COORDINATES (ANGSTROEM)
--------------------------------
 C      0   0   0     0.000000000000     0.00000000     0.00000000
 C      1   0   0     6.528662803362     0.00000000     0.00000000
 C      1   2   0     2.413783337419    16.85981090     0.00000000
 C      3   1   2     1.403100495332    87.90992369     7.48261707
 C      4   3   1     1.380581399266   120.18658050     0.09351831
 C      5   4   3     2.448098445733   152.49087865     1.73204610
 C      2   1   3     1.368114030335     1.39918604   220.98392866
 C      7   2   4     1.434084376876   108.05010202   187.75690955
 C      2   1   3     1.434123425651   107.08934280     5.10450375
 C      1   2   7     1.382508227824    46.96123727   216.02130502
 N      1   2   7     1.352596392129    73.87263073    33.25141434
 N      9   2   1     1.376127174356   106.58526707   358.37425242
 N     12   9   2     2.925062050624   168.53581413   171.12065651
 N     13  12   9     2.954513327098    91.55032014    11.12112580
 N     14  13  12     2.925371258490    88.43092389   359.84326247
 C      8   7   2     1.404790019896   127.24786865   181.11170171
 C     13  12   9     1.366535034311    81.72106996   188.00453233
 C     14  13  12     5.758810554272    80.56209567   166.76250791
 C     17  13  12     1.459010623676   111.08861209   183.82872609
 C     18  14  13     2.412235892279    27.27532823    36.33507194
 C     20  18  14     1.402692767501    87.95206320   148.94598259
 C     21  20  18     1.382106725257   120.14573887   359.70382047
 C     18  14  13     2.446510985056   144.15733107    82.80075377
 C     19  17  13     1.353610726908   106.29293361   359.75308708
 C     13  12   9     1.366813447402   172.21332906    33.46711076
 C     18  14  13     1.380960173213    15.08449437   309.23336894
 N     22  21  20     1.352773077792   120.73759875     0.27865223
 C     25  13  17     1.410897586645   125.60330303   182.37774668
 C     14  13  12     1.376642291955    80.24689249   177.85461986
 C     14  13  12     5.764089607215   164.51507311   312.20821879
 C     29  14  13     1.435600919476   106.58649366   178.76395472
 C     30  14  13     2.413316804732    27.10625047    82.12560436
 C     32  30  14     1.403734305344    87.90059683   149.76154742
 C     33  32  30     1.380694028378   120.14881443   359.74174632
 C     34  33  32     2.448777858443   152.49203239     2.45173620
 C     31  29  14     1.368160809262   108.16950133     0.70383075
 C     14  13  12     1.376239804685   169.26375223   353.09862627
 C     30  14  13     1.380907310430    14.68948582   353.70041132
 N     34  33  32     1.352658863128   120.85575621     0.19603406
 C     37  14  29     1.404717053360   126.01551127   180.90772073
 C     15  14  13     1.366491126938    81.61824056   183.09049352
 C      2   1   3     4.249062720177   157.98313446   132.68670916
 C     41  15  14     1.459677704153   111.05201287   175.08990246
 C     42   2   1     2.412953791518    41.78584867   205.69590432
 C     44  42   2     1.403446472082    87.95153797   233.97558675
 C     45  44  42     1.381696421071   120.11137308     0.19721020
 C     42   2   1     2.450019795838   135.97209175   116.01075342
 C     43  41  15     1.354461516618   106.26758155     0.30894352
 C     15  14  13     1.367461151185   171.87382904   332.35056460
 C     42   2   1     1.381886391857    32.59078432   254.55118351
 C      9   2   1     1.404988612053   126.98745415   179.37858995
 N     42   2   1     1.352765315936   113.57249190   143.74734261
 H      1   2   7     1.082678160859   169.16841838   199.38474025
 H      2   1   3     1.079907866440   127.71915471   184.55307797
 H      4   3   1     1.083058631839   121.05471195   179.58292069
 H      5   4   3     1.082109051806   122.88018546   179.45310618
 H      6   5   4     1.092412925592   104.46218768    99.99639003
 H      6   5   4     1.089362198720    84.69503673   209.46951450
 H      6   5   4     1.090057337941   133.85666922   322.33195717
 H     55   4   3     0.850584504914   155.06062105    35.12917519
 H     10   1   2     1.083942341640   118.73050179   183.99787440
 H     12   9   2     1.016297692608   125.29023241   180.00180175
 H     14  13  12     1.014936943854    44.97226959   359.42596618
 H     18  14  13     1.082871645210   128.03556573   234.20482432
 H     61  10   1     0.851772857046   147.55672287   225.53538044
 H     21  20  18     1.083569563987   121.05669627   180.67006309
 H     22  21  20     1.082483256222   122.73097286   180.59748951
 H     23  18  14     1.092105306278   103.92715769   234.93429879
 H     23  18  14     1.088871893291   134.19244188    12.25587044
 H     23  18  14     1.089833473518    84.85857450   125.45241208
 H     24  19  17     1.080075460327   127.28078426   178.44613241
 H     26  18  14     1.083408048706   118.76995697   244.94906660
 H     30  14  13     1.082703098730   127.99711412   279.66882698
 H     31  29  14     1.079759695488   125.22293469   180.92530585
 H     33  32  30     1.083188810873   121.01964473   180.74284758
 H     34  33  32     1.082494341787   122.70821597   180.59516895
 H     35  34  33     1.092652735319   105.73575241    97.19771933
 H     35  34  33     1.089462711615    84.05943581   206.43036958
 H     35  34  33     1.089268102902   133.08365142   318.50306270
 H     36  31  29     1.079439669458   126.61599965   178.98859863
 H     38  30  73     1.083742127999   118.77264435   359.90091293
 H     42   2   1     1.082178358682   119.31790784     0.37887307
 H     43  41  15     1.080281907652   126.36969097   182.06329380
 H     45  44  42     1.083277434455   121.10105945   179.58025624
 H     46  45  44     1.082194529648   122.72144639   179.46906377
 H     47  42   2     1.091546151109   106.65128841   315.16475048
 H     47  42   2     1.088818625851   132.46019523    94.52397119
 H     47  42   2     1.089531091801    83.63838232   206.04504406
 H     48  43  41     1.080402239909   127.23657387   181.62955349
 H     50  42   2     1.083186502870   118.77001737    94.71359229

---------------------------
INTERNAL COORDINATES (A.U.)
---------------------------
 C      0   0   0     0.000000000000     0.00000000     0.00000000
 C      1   0   0    12.337384719072     0.00000000     0.00000000
 C      1   2   0     4.561389454344    16.85981090     0.00000000
 C      3   1   2     2.651475674546    87.90992369     7.48261707
 C      4   3   1     2.608920750199   120.18658050     0.09351831
 C      5   4   3     4.626235611314   152.49087865     1.73204610
 C      2   1   3     2.585360837309     1.39918604   220.98392866
 C      7   2   4     2.710026725231   108.05010202   187.75690955
 C      2   1   3     2.710100516721   107.08934280     5.10450375
 C      1   2   7     2.612561928479    46.96123727   216.02130502
 N      1   2   7     2.556036750853    73.87263073    33.25141434
 N      9   2   1     2.600503484979   106.58526707   358.37425242
 N     12   9   2     5.527566200405   168.53581413   171.12065651
 N     13  12   9     5.583221047236    91.55032014    11.12112580
 N     14  13  12     5.528150518591    88.43092389   359.84326247
 C      8   7   2     2.654668413270   127.24786865   181.11170171
 C     13  12   9     2.582376967257    81.72106996   188.00453233
 C     14  13  12    10.882574804710    80.56209567   166.76250791
 C     17  13  12     2.757130505230   111.08861209   183.82872609
 C     18  14  13     4.558465206823    27.27532823    36.33507194
 C     20  18  14     2.650705180609    87.95206320   148.94598259
 C     21  20  18     2.611803198586   120.14573887   359.70382047
 C     18  14  13     4.623235745386   144.15733107    82.80075377
 C     19  17  13     2.557953565794   106.29293361   359.75308708
 C     13  12   9     2.582903091751   172.21332906    33.46711076
 C     18  14  13     2.609636529225    15.08449437   309.23336894
 N     22  21  20     2.556370638369   120.73759875     0.27865223
 C     25  13  17     2.666210041769   125.60330303   182.37774668
 C     14  13  12     2.601476916169    80.24689249   177.85461986
 C     14  13  12    10.892550769017   164.51507311   312.20821879
 C     29  14  13     2.712892575415   106.58649366   178.76395472
 C     30  14  13     4.560507835333    27.10625047    82.12560436
 C     32  30  14     2.652673401891    87.90059683   149.76154742
 C     33  32  30     2.609133588376   120.14881443   359.74174632
 C     34  33  32     4.627519515267   152.49203239     2.45173620
 C     31  29  14     2.585449236669   108.16950133     0.70383075
 C     14  13  12     2.600716325456   169.26375223   353.09862627
 C     30  14  13     2.609536633043    14.68948582   353.70041132
 N     34  33  32     2.556154803934   120.85575621     0.19603406
 C     37  14  29     2.654530526499   126.01551127   180.90772073
 C     15  14  13     2.582293994346    81.61824056   183.09049352
 C      2   1   3     8.029564866989   157.98313446   132.68670916
 C     41  15  14     2.758391104639   111.05201287   175.08990246
 C     42   2   1     4.559821839776    41.78584867   205.69590432
 C     44  42   2     2.652129475853    87.95153797   233.97558675
 C     45  44  42     2.611027836043   120.11137308     0.19721020
 C     42   2   1     4.629866436820   135.97209175   116.01075342
 C     43  41  15     2.559561325344   106.26758155     0.30894352
 C     15  14  13     2.584127074516   171.87382904   332.35056460
 C     42   2   1     2.611386828803    32.59078432   254.55118351
 C      9   2   1     2.655043698059   126.98745415   179.37858995
 N     42   2   1     2.556355970587   113.57249190   143.74734261
 H      1   2   7     2.045965215200   169.16841838   199.38474025
 H      2   1   3     2.040730117440   127.71915471   184.55307797
 H      4   3   1     2.046684201154   121.05471195   179.58292069
 H      5   4   3     2.044889754950   122.88018546   179.45310618
 H      6   5   4     2.064361254524   104.46218768    99.99639003
 H      6   5   4     2.058596216227    84.69503673   209.46951450
 H      6   5   4     2.059909838981   133.85666922   322.33195717
 H     55   4   3     1.607371768045   155.06062105    35.12917519
 H     10   1   2     2.048354170661   118.73050179   183.99787440
 H     12   9   2     1.920524309565   125.29023241   180.00180175
 H     14  13  12     1.917952867083    44.97226959   359.42596618
 H     18  14  13     2.046330847636   128.03556573   234.20482432
 H     61  10   1     1.609617428124   147.55672287   225.53538044
 H     21  20  18     2.047649722989   121.05669627   180.67006309
 H     22  21  20     2.045596898814   122.73097286   180.59748951
 H     23  18  14     2.063779938267   103.92715769   234.93429879
 H     23  18  14     2.057669673245   134.19244188    12.25587044
 H     23  18  14     2.059486796529    84.85857450   125.45241208
 H     24  19  17     2.041046823986   127.28078426   178.44613241
 H     26  18  14     2.047344503340   118.76995697   244.94906660
 H     30  14  13     2.046012340948   127.99711412   279.66882698
 H     31  29  14     2.040450114918   125.22293469   180.92530585
 H     33  32  30     2.046930203877   121.01964473   180.74284758
 H     34  33  32     2.045617847496   122.70821597   180.59516895
 H     35  34  33     2.064814429233   105.73575241    97.19771933
 H     35  34  33     2.058786158072    84.05943581   206.43036958
 H     35  34  33     2.058418400901   133.08365142   318.50306270
 H     36  31  29     2.039845353366   126.61599965   178.98859863
 H     38  30  73     2.047975821711   118.77264435   359.90091293
 H     42   2   1     2.045020725966   119.31790784     0.37887307
 H     43  41  15     2.041436952892   126.36969097   182.06329380
 H     45  44  42     2.047097678177   121.10105945   179.58025624
 H     46  45  44     2.045051284662   122.72144639   179.46906377
 H     47  42   2     2.062723288131   106.65128841   315.16475048
 H     47  42   2     2.057569012371   132.46019523    94.52397119
 H     47  42   2     2.058915377895    83.63838232   206.04504406
 H     48  43  41     2.041664347903   127.23657387   181.62955349
 H     50  42   2     2.046925842384   118.77001737    94.71359229

---------------------
BASIS SET INFORMATION
---------------------
There are 3 groups of distinct atoms

 Group   1 Type C   : 17s4p1d contracted to 3s2p1d pattern {881/31/1}
 Group   2 Type N   : 17s4p1d contracted to 3s2p1d pattern {881/31/1}
 Group   3 Type H   : 4s1p contracted to 2s1p pattern {31/1}

Atom   0C    basis set group =>   1
Atom   1N    basis set group =>   2
Atom   2C    basis set group =>   1
Atom   3N    basis set group =>   2
Atom   4C    basis set group =>   1
Atom   5N    basis set group =>   2
Atom   6C    basis set group =>   1
Atom   7N    basis set group =>   2
Atom   8C    basis set group =>   1
Atom   9N    basis set group =>   2
Atom  10C    basis set group =>   1
Atom  11N    basis set group =>   2
Atom  12C    basis set group =>   1
Atom  13N    basis set group =>   2
Atom  14C    basis set group =>   1
Atom  15N    basis set group =>   2
Atom  16C    basis set group =>   1
Atom  17C    basis set group =>   1
Atom  18C    basis set group =>   1
Atom  19C    basis set group =>   1
Atom  20C    basis set group =>   1
Atom  21C    basis set group =>   1
Atom  22C    basis set group =>   1
Atom  23C    basis set group =>   1
Atom  24C    basis set group =>   1
Atom  25C    basis set group =>   1
Atom  26C    basis set group =>   1
Atom  27C    basis set group =>   1
Atom  28C    basis set group =>   1
Atom  29C    basis set group =>   1
Atom  30C    basis set group =>   1
Atom  31C    basis set group =>   1
Atom  32C    basis set group =>   1
Atom  33C    basis set group =>   1
Atom  34C    basis set group =>   1
Atom  35C    basis set group =>   1
Atom  36C    basis set group =>   1
Atom  37C    basis set group =>   1
Atom  38C    basis set group =>   1
Atom  39C    basis set group =>   1
Atom  40C    basis set group =>   1
Atom  41C    basis set group =>   1
Atom  42C    basis set group =>   1
Atom  43C    basis set group =>   1
Atom  44C    basis set group =>   1
Atom  45C    basis set group =>   1
Atom  46C    basis set group =>   1
Atom  47C    basis set group =>   1
Atom  48C    basis set group =>   1
Atom  49C    basis set group =>   1
Atom  50C    basis set group =>   1
Atom  51C    basis set group =>   1
Atom  52H    basis set group =>   3
Atom  53H    basis set group =>   3
Atom  54H    basis set group =>   3
Atom  55H    basis set group =>   3
Atom  56H    basis set group =>   3
Atom  57H    basis set group =>   3
Atom  58H    basis set group =>   3
Atom  59H    basis set group =>   3
Atom  60H    basis set group =>   3
Atom  61H    basis set group =>   3
Atom  62H    basis set group =>   3
Atom  63H    basis set group =>   3
Atom  64H    basis set group =>   3
Atom  65H    basis set group =>   3
Atom  66H    basis set group =>   3
Atom  67H    basis set group =>   3
Atom  68H    basis set group =>   3
Atom  69H    basis set group =>   3
Atom  70H    basis set group =>   3
Atom  71H    basis set group =>   3
Atom  72H    basis set group =>   3
Atom  73H    basis set group =>   3
Atom  74H    basis set group =>   3
Atom  75H    basis set group =>   3
Atom  76H    basis set group =>   3
Atom  77H    basis set group =>   3
Atom  78H    basis set group =>   3
Atom  79H    basis set group =>   3
Atom  80H    basis set group =>   3
Atom  81H    basis set group =>   3
Atom  82H    basis set group =>   3
Atom  83H    basis set group =>   3
Atom  84H    basis set group =>   3
Atom  85H    basis set group =>   3
Atom  86H    basis set group =>   3
Atom  87H    basis set group =>   3
Atom  88H    basis set group =>   3
Atom  89H    basis set group =>   3


           ************************************************************
           *        Program running with 16 parallel MPI-processes    *
           *              working on a common directory               *
           ************************************************************
------------------------------------------------------------------------------
                           ORCA GTO INTEGRAL CALCULATION
------------------------------------------------------------------------------
------------------------------------------------------------------------------
                   ___                                                        
                  /   \      - P O W E R E D   B Y -                         
                 /     \                                                     
                 |  |  |   _    _      __       _____    __    __             
                 |  |  |  | |  | |    /  \     |  _  \  |  |  /  |          
                  \  \/   | |  | |   /    \    | | | |  |  | /  /          
                 / \  \   | |__| |  /  /\  \   | |_| |  |  |/  /          
                |  |  |   |  __  | /  /__\  \  |    /   |      \           
                |  |  |   | |  | | |   __   |  |    \   |  |\   \          
                \     /   | |  | | |  |  |  |  | |\  \  |  | \   \       
                 \___/    |_|  |_| |__|  |__|  |_| \__\ |__|  \__/        
                                                                              
                      - O R C A' S   B I G   F R I E N D -                    
                                      &                                       
                       - I N T E G R A L  F E E D E R -                       
                                                                              
 v1 FN, 2020, v2 2021                                                         
------------------------------------------------------------------------------


Reading SHARK input file /scratch/allen/tmpyp4_amber_gaff2/conf1/conf1/Conf178.orca.SHARKINP.tmp ... ok
----------------------
SHARK INTEGRAL PACKAGE
----------------------

Number of atoms                             ...     90
Number of basis functions                   ...   1230
Number of shells                            ...    738
Maximum angular momentum                    ...      2
Integral batch strategy                     ... SHARK/LIBINT Hybrid
RI-J (if used) integral strategy            ... SPLIT-RIJ (Revised 2003 algorithm where possible)
Printlevel                                  ...      1
Contraction scheme used                     ... PARTIAL GENERAL contraction
Coulomb Range Separation                    ... NOT USED
Exchange Range Separation                   ... NOT USED
Finite Nucleus Model                        ... NOT USED
Auxiliary Coulomb fitting basis             ... NOT available
Auxiliary J/K fitting basis                 ... NOT available
Auxiliary Correlation fitting basis         ... NOT available
Auxiliary 'external' fitting basis          ... NOT available
Integral threshold                          ...     2.500000e-11
Primitive cut-off                           ...     2.500000e-12
Primitive pair pre-selection threshold      ...     2.500000e-12

Calculating pre-screening integrals         ... done (  0.1 sec) Dimension = 738
Calculating pre-screening integrals (ORCA)  ... done (  0.3 sec) Dimension = 426
Organizing shell pair data                  ... done (  0.7 sec)
Shell pair information
Total number of shell pairs                 ...    272691
Shell pairs after pre-screening             ...     71722
Total number of primitive shell pairs       ...    422091
Primitive shell pairs kept                  ...     92629
          la=0 lb=0:  29437 shell pairs
          la=1 lb=0:  26033 shell pairs
          la=1 lb=1:   4700 shell pairs
          la=2 lb=0:   7893 shell pairs
          la=2 lb=1:   3130 shell pairs
          la=2 lb=2:    529 shell pairs

Calculating one electron integrals          ... done (  0.2 sec)
Calculating Nuclear repulsion               ... done (  0.0 sec) ENN=   6235.717586211681 Eh

SHARK setup successfully completed in   2.2 seconds

Maximum memory used throughout the entire GTOINT-calculation: 99.1 MB


           ************************************************************
           *        Program running with 16 parallel MPI-processes    *
           *              working on a common directory               *
           ************************************************************
-------------------------------------------------------------------------------
                                 ORCA SCF
-------------------------------------------------------------------------------

------------
SCF SETTINGS
------------
Hamiltonian:
 Ab initio Hamiltonian  Method          .... Hartree-Fock(GTOs)


General Settings:
 Integral files         IntName         .... /scratch/allen/tmpyp4_amber_gaff2/conf1/conf1/Conf178.orca
 Hartree-Fock type      HFTyp           .... RHF
 Total Charge           Charge          ....    0
 Multiplicity           Mult            ....    1
 Number of Electrons    NEL             ....  358
 Basis Dimension        Dim             ....  918
 Nuclear Repulsion      ENuc            ....   6235.7175862117 Eh

Convergence Acceleration:
 DIIS                   CNVDIIS         .... on
   Start iteration      DIISMaxIt       ....    12
   Startup error        DIISStart       ....  0.200000
   # of expansion vecs  DIISMaxEq       ....     5
   Bias factor          DIISBfac        ....   1.050
   Max. coefficient     DIISMaxC        ....  10.000
 Trust-Rad. Augm. Hess. CNVTRAH         .... auto
   Auto Start mean grad. ratio tolernc. ....  1.125000
   Auto Start start iteration           ....    20
   Auto Start num. interpolation iter.  ....    10
   Max. Number of Micro iterations      ....    16
   Max. Number of Macro iterations      .... Maxiter - #DIIS iter
   Number of Davidson start vectors     ....     2
   Converg. threshold I  (grad. norm)   ....   1.000e-05
   Converg. threshold II (energy diff.) ....   1.000e-08
   Grad. Scal. Fac. for Micro threshold ....   0.100
   Minimum threshold for Micro iter.    ....   0.010
   NR start threshold (gradient norm)   ....   0.001
   Initial trust radius                 ....   0.400
   Minimum AH scaling param. (alpha)    ....   1.000
   Maximum AH scaling param. (alpha)    .... 1000.000
   Orbital update algorithm             .... Taylor
   White noise on init. David. guess    .... on
   Maximum white noise                  ....   0.010
   Quad. conv. algorithm                .... NR
 SOSCF                  CNVSOSCF        .... on
   Start iteration      SOSCFMaxIt      ....   150
   Startup grad/error   SOSCFStart      ....  0.003300
 Level Shifting         CNVShift        .... on
   Level shift para.    LevelShift      ....    0.2500
   Turn off err/grad.   ShiftErr        ....    0.0010
 Zerner damping         CNVZerner       .... off
 Static damping         CNVDamp         .... on
   Fraction old density DampFac         ....    0.7000
   Max. Damping (<1)    DampMax         ....    0.9800
   Min. Damping (>=0)   DampMin         ....    0.0000
   Turn off err/grad.   DampErr         ....    0.1000
 Fernandez-Rico         CNVRico         .... off

SCF Procedure:
 Maximum # iterations   MaxIter         ....   125
 SCF integral mode      SCFMode         .... Direct
   Integral package                     .... SHARK and LIBINT hybrid scheme
 Reset frequency        DirectResetFreq ....    20
 Integral Threshold     Thresh          ....  2.500e-11 Eh
 Primitive CutOff       TCut            ....  2.500e-12 Eh

Convergence Tolerance:
 Convergence Check Mode ConvCheckMode   .... Total+1el-Energy
 Convergence forced     ConvForced      .... 1
 Energy Change          TolE            ....  1.000e-08 Eh
 1-El. energy change                    ....  1.000e-05 Eh
 Orbital Gradient       TolG            ....  1.000e-05
 Orbital Rotation angle TolX            ....  1.000e-05
 DIIS Error             TolErr          ....  5.000e-07


Diagonalization of the overlap matrix:
Smallest eigenvalue                        ... 1.603e-04
Time for diagonalization                   ...    0.423 sec
Threshold for overlap eigenvalues          ... 1.000e-08
Number of eigenvalues below threshold      ... 0
Time for construction of square roots      ...    0.269 sec
Total time needed                          ...    0.698 sec

Time for model grid setup =    1.287 sec

------------------------------
INITIAL GUESS: MODEL POTENTIAL
------------------------------
Loading Hartree-Fock densities                     ... done
Calculating cut-offs                               ... done
Initializing the effective Hamiltonian             ... done
Setting up the integral package (SHARK)            ... done
Starting the Coulomb interaction                   ... done (   1.4 sec)
Reading the grid                                   ... done
Mapping shells                                     ... done
Starting the XC term evaluation                    ... done (   0.2 sec)
Transforming the Hamiltonian                       ... done (   0.3 sec)
Diagonalizing the Hamiltonian                      ... done (   0.4 sec)
Back transforming the eigenvectors                 ... done (   0.1 sec)
Now organizing SCF variables                       ... done
                      ------------------
                      INITIAL GUESS DONE (   3.8 sec)
                      ------------------
--------------
SCF ITERATIONS
--------------
ITER       Energy         Delta-E        Max-DP      RMS-DP      [F,P]     Damp
               ***  Starting incremental Fock matrix formation  ***
  0  -2121.5657218397   0.000000000000 0.07760228  0.00131673  0.2310259 0.7000
  1  -2122.2042572013  -0.638535361590 0.08264020  0.00107244  0.1434247 0.7000
                               ***Turning on DIIS***
  2  -2122.6032702395  -0.399013038234 0.14021391  0.00242364  0.0803317 0.0000
  3  -2118.0541867802   4.549083459280 0.11532740  0.00074454  0.0433645 0.0000
  4  -2123.3103269854  -5.256140205225 0.03234165  0.00024281  0.0094147 0.0000
  5  -2123.4308266087  -0.120499623228 0.01525896  0.00013777  0.0047972 0.0000
  6  -2123.4145101050   0.016316503647 0.00937072  0.00008735  0.0022697 0.0000
  7  -2123.5057557624  -0.091245657337 0.00575763  0.00006789  0.0016459 0.0000
  8  -2123.5111155125  -0.005359750121 0.00457168  0.00006470  0.0015434 0.0000
  9  -2123.4853988725   0.025716640026 0.00270393  0.00004632  0.0012442 0.0000
 10  -2123.4925613527  -0.007162480293 0.00547108  0.00009704  0.0009778 0.0000
                      *** Initiating the SOSCF procedure ***
                           *** Shutting down DIIS ***
                      *** Re-Reading the Fockian *** 
                      *** Removing any level shift *** 
ITER      Energy       Delta-E        Grad      Rot      Max-DP    RMS-DP
 11  -2123.38790846   0.1046528930  0.000188  0.000188  0.000249  0.000005
               *** Restarting incremental Fock matrix formation ***
 12  -2123.45314414  -0.0652356818  0.000943  0.006308  0.001530  0.000035
 13  -2123.45325622  -0.0001120774  0.001143  0.031266  0.006988  0.000138
 14  -2123.45343933  -0.0001831075  0.000412  0.002211  0.000644  0.000013
 15  -2123.45345450  -0.0000151753  0.000164  0.001869  0.000460  0.000012
 16  -2123.45346052  -0.0000060173  0.000132  0.002006  0.000511  0.000008
 17  -2123.45346293  -0.0000024144  0.000113  0.001657  0.000275  0.000007
 18  -2123.45346392  -0.0000009869  0.000054  0.000753  0.000197  0.000003
 19  -2123.45346449  -0.0000005736  0.000040  0.001259  0.000212  0.000005
 20  -2123.45346485  -0.0000003582  0.000022  0.000735  0.000139  0.000003
 21  -2123.45346501  -0.0000001530  0.000026  0.000958  0.000169  0.000003
 22  -2123.45346516  -0.0000001520  0.000018  0.000952  0.000147  0.000003
 23  -2123.45346526  -0.0000001015  0.000014  0.000402  0.000068  0.000001
 24  -2123.45346530  -0.0000000439  0.000007  0.000305  0.000052  0.000001
 25  -2123.45346533  -0.0000000298  0.000007  0.000119  0.000036  0.000001
 26  -2123.45346535  -0.0000000148  0.000006  0.000073  0.000028  0.000000
 27  -2123.45346535  -0.0000000046  0.000003  0.000055  0.000019  0.000000
                  ***Gradient check signals convergence***
              ***Rediagonalizing the Fockian in SOSCF/NRSCF***

               *****************************************************
               *                     SUCCESS                       *
               *           SCF CONVERGED AFTER  28 CYCLES          *
               *****************************************************


----------------
TOTAL SCF ENERGY
----------------

Total Energy       :        -2123.45346536 Eh          -57782.10638 eV

Components:
Nuclear Repulsion  :         6235.71758621 Eh          169682.50201 eV
Electronic Energy  :        -8359.17105157 Eh         -227464.60839 eV
One Electron Energy:       -15311.84752765 Eh         -416656.55364 eV
Two Electron Energy:         6952.67647608 Eh          189191.94525 eV

Virial components:
Potential Energy   :        -4246.08595867 Eh         -115541.87297 eV
Kinetic Energy     :         2122.63249331 Eh           57759.76659 eV
Virial Ratio       :            2.00038677


---------------
SCF CONVERGENCE
---------------

  Last Energy change         ...   -4.4529e-09  Tolerance :   1.0000e-08
  Last MAX-Density change    ...    9.3146e-06  Tolerance :   1.0000e-07
  Last RMS-Density change    ...    1.7716e-07  Tolerance :   5.0000e-09
  Last Orbital Gradient      ...    1.6340e-06  Tolerance :   1.0000e-05
  Last Orbital Rotation      ...    4.2484e-05  Tolerance :   1.0000e-05

             **** THE GBW FILE WAS UPDATED (/scratch/allen/tmpyp4_amber_gaff2/conf1/conf1/Conf178.orca.gbw) ****
             **** DENSITY /scratch/allen/tmpyp4_amber_gaff2/conf1/conf1/Conf178.orca.scfp WAS UPDATED ****
             **** ENERGY FILE WAS UPDATED (/scratch/allen/tmpyp4_amber_gaff2/conf1/conf1/Conf178.orca.en.tmp) ****
             **** THE GBW FILE WAS UPDATED (/scratch/allen/tmpyp4_amber_gaff2/conf1/conf1/Conf178.orca.gbw) ****
             **** DENSITY /scratch/allen/tmpyp4_amber_gaff2/conf1/conf1/Conf178.orca.scfp WAS UPDATED ****
----------------
ORBITAL ENERGIES
----------------

  NO   OCC          E(Eh)            E(eV) 
   0   2.0000     -15.680172      -426.6792 
   1   2.0000     -15.634449      -425.4350 
   2   2.0000     -15.631487      -425.3544 
   3   2.0000     -15.587848      -424.1669 
   4   2.0000     -15.525164      -422.4612 
   5   2.0000     -15.515413      -422.1959 
   6   2.0000     -15.453692      -420.5163 
   7   2.0000     -15.439560      -420.1318 
   8   2.0000     -11.329761      -308.2985 
   9   2.0000     -11.328625      -308.2676 
  10   2.0000     -11.328152      -308.2547 
  11   2.0000     -11.299610      -307.4780 
  12   2.0000     -11.298172      -307.4389 
  13   2.0000     -11.293410      -307.3093 
  14   2.0000     -11.290972      -307.2430 
  15   2.0000     -11.286945      -307.1334 
  16   2.0000     -11.286184      -307.1127 
  17   2.0000     -11.282388      -307.0094 
  18   2.0000     -11.269309      -306.6535 
  19   2.0000     -11.263580      -306.4976 
  20   2.0000     -11.262586      -306.4705 
  21   2.0000     -11.250026      -306.1288 
  22   2.0000     -11.248513      -306.0876 
  23   2.0000     -11.238199      -305.8069 
  24   2.0000     -11.236290      -305.7550 
  25   2.0000     -11.231455      -305.6234 
  26   2.0000     -11.230788      -305.6053 
  27   2.0000     -11.229494      -305.5701 
  28   2.0000     -11.229269      -305.5640 
  29   2.0000     -11.211295      -305.0749 
  30   2.0000     -11.209792      -305.0339 
  31   2.0000     -11.193490      -304.5903 
  32   2.0000     -11.192211      -304.5556 
  33   2.0000     -11.191437      -304.5345 
  34   2.0000     -11.188276      -304.4485 
  35   2.0000     -11.187937      -304.4392 
  36   2.0000     -11.186791      -304.4081 
  37   2.0000     -11.174900      -304.0845 
  38   2.0000     -11.172548      -304.0205 
  39   2.0000     -11.170513      -303.9651 
  40   2.0000     -11.170176      -303.9559 
  41   2.0000     -11.168708      -303.9160 
  42   2.0000     -11.167571      -303.8851 
  43   2.0000     -11.161758      -303.7269 
  44   2.0000     -11.160999      -303.7062 
  45   2.0000     -11.156646      -303.5878 
  46   2.0000     -11.156468      -303.5829 
  47   2.0000     -11.150809      -303.4289 
  48   2.0000     -11.146806      -303.3200 
  49   2.0000     -11.135567      -303.0142 
  50   2.0000     -11.129734      -302.8555 
  51   2.0000     -11.117521      -302.5231 
  52   2.0000      -1.360690       -37.0263 
  53   2.0000      -1.321620       -35.9631 
  54   2.0000      -1.319328       -35.9007 
  55   2.0000      -1.279678       -34.8218 
  56   2.0000      -1.226330       -33.3701 
  57   2.0000      -1.210338       -32.9350 
  58   2.0000      -1.173352       -31.9285 
  59   2.0000      -1.150832       -31.3157 
  60   2.0000      -1.143869       -31.1263 
  61   2.0000      -1.110550       -30.2196 
  62   2.0000      -1.108754       -30.1707 
  63   2.0000      -1.082346       -29.4521 
  64   2.0000      -1.077160       -29.3110 
  65   2.0000      -1.045780       -28.4571 
  66   2.0000      -1.043991       -28.4084 
  67   2.0000      -1.041266       -28.3343 
  68   2.0000      -1.015021       -27.6201 
  69   2.0000      -1.014489       -27.6056 
  70   2.0000      -1.009054       -27.4578 
  71   2.0000      -0.993732       -27.0408 
  72   2.0000      -0.985479       -26.8163 
  73   2.0000      -0.982018       -26.7221 
  74   2.0000      -0.974177       -26.5087 
  75   2.0000      -0.962096       -26.1800 
  76   2.0000      -0.954704       -25.9788 
  77   2.0000      -0.946469       -25.7547 
  78   2.0000      -0.938863       -25.5478 
  79   2.0000      -0.916630       -24.9428 
  80   2.0000      -0.910866       -24.7859 
  81   2.0000      -0.898516       -24.4499 
  82   2.0000      -0.877531       -23.8788 
  83   2.0000      -0.872650       -23.7460 
  84   2.0000      -0.870692       -23.6927 
  85   2.0000      -0.861504       -23.4427 
  86   2.0000      -0.844193       -22.9716 
  87   2.0000      -0.838988       -22.8300 
  88   2.0000      -0.829308       -22.5666 
  89   2.0000      -0.796355       -21.6699 
  90   2.0000      -0.789103       -21.4726 
  91   2.0000      -0.774567       -21.0770 
  92   2.0000      -0.753271       -20.4976 
  93   2.0000      -0.734313       -19.9817 
  94   2.0000      -0.728649       -19.8276 
  95   2.0000      -0.726200       -19.7609 
  96   2.0000      -0.720353       -19.6018 
  97   2.0000      -0.717938       -19.5361 
  98   2.0000      -0.713795       -19.4233 
  99   2.0000      -0.699346       -19.0302 
 100   2.0000      -0.698513       -19.0075 
 101   2.0000      -0.694335       -18.8938 
 102   2.0000      -0.685575       -18.6554 
 103   2.0000      -0.684517       -18.6266 
 104   2.0000      -0.679120       -18.4798 
 105   2.0000      -0.674465       -18.3531 
 106   2.0000      -0.672835       -18.3088 
 107   2.0000      -0.660797       -17.9812 
 108   2.0000      -0.658239       -17.9116 
 109   2.0000      -0.653160       -17.7734 
 110   2.0000      -0.651867       -17.7382 
 111   2.0000      -0.646447       -17.5907 
 112   2.0000      -0.645818       -17.5736 
 113   2.0000      -0.638205       -17.3664 
 114   2.0000      -0.635404       -17.2902 
 115   2.0000      -0.628392       -17.0994 
 116   2.0000      -0.623058       -16.9543 
 117   2.0000      -0.620342       -16.8804 
 118   2.0000      -0.613176       -16.6854 
 119   2.0000      -0.612577       -16.6691 
 120   2.0000      -0.611941       -16.6518 
 121   2.0000      -0.611161       -16.6305 
 122   2.0000      -0.601282       -16.3617 
 123   2.0000      -0.589406       -16.0386 
 124   2.0000      -0.581948       -15.8356 
 125   2.0000      -0.580775       -15.8037 
 126   2.0000      -0.580325       -15.7914 
 127   2.0000      -0.571267       -15.5450 
 128   2.0000      -0.566803       -15.4235 
 129   2.0000      -0.559888       -15.2353 
 130   2.0000      -0.555735       -15.1223 
 131   2.0000      -0.547979       -14.9113 
 132   2.0000      -0.542876       -14.7724 
 133   2.0000      -0.540542       -14.7089 
 134   2.0000      -0.538942       -14.6654 
 135   2.0000      -0.535873       -14.5818 
 136   2.0000      -0.531872       -14.4730 
 137   2.0000      -0.518074       -14.0975 
 138   2.0000      -0.517123       -14.0716 
 139   2.0000      -0.514016       -13.9871 
 140   2.0000      -0.511821       -13.9274 
 141   2.0000      -0.510231       -13.8841 
 142   2.0000      -0.507917       -13.8211 
 143   2.0000      -0.505386       -13.7523 
 144   2.0000      -0.501940       -13.6585 
 145   2.0000      -0.495511       -13.4835 
 146   2.0000      -0.488619       -13.2960 
 147   2.0000      -0.481311       -13.0971 
 148   2.0000      -0.476288       -12.9605 
 149   2.0000      -0.467816       -12.7299 
 150   2.0000      -0.466172       -12.6852 
 151   2.0000      -0.456205       -12.4140 
 152   2.0000      -0.451318       -12.2810 
 153   2.0000      -0.445247       -12.1158 
 154   2.0000      -0.438102       -11.9214 
 155   2.0000      -0.427714       -11.6387 
 156   2.0000      -0.409225       -11.1356 
 157   2.0000      -0.391234       -10.6460 
 158   2.0000      -0.388071       -10.5599 
 159   2.0000      -0.384472       -10.4620 
 160   2.0000      -0.378479       -10.2989 
 161   2.0000      -0.373465       -10.1625 
 162   2.0000      -0.362374        -9.8607 
 163   2.0000      -0.356955        -9.7132 
 164   2.0000      -0.355631        -9.6772 
 165   2.0000      -0.341712        -9.2984 
 166   2.0000      -0.337655        -9.1881 
 167   2.0000      -0.324893        -8.8408 
 168   2.0000      -0.320860        -8.7310 
 169   2.0000      -0.305588        -8.3155 
 170   2.0000      -0.299221        -8.1422 
 171   2.0000      -0.285894        -7.7796 
 172   2.0000      -0.278161        -7.5691 
 173   2.0000      -0.263332        -7.1656 
 174   2.0000      -0.241998        -6.5851 
 175   2.0000      -0.190012        -5.1705 
 176   2.0000      -0.181431        -4.9370 
 177   2.0000      -0.080348        -2.1864 
 178   2.0000      -0.059777        -1.6266 
 179   0.0000       0.028395         0.7727 
 180   0.0000       0.065286         1.7765 
 181   0.0000       0.090182         2.4540 
 182   0.0000       0.106015         2.8848 
 183   0.0000       0.116826         3.1790 
 184   0.0000       0.136749         3.7211 
 185   0.0000       0.139608         3.7989 
 186   0.0000       0.140770         3.8305 
 187   0.0000       0.164453         4.4750 
 188   0.0000       0.164954         4.4886 
 189   0.0000       0.165835         4.5126 
 190   0.0000       0.174765         4.7556 
 191   0.0000       0.180178         4.9029 
 192   0.0000       0.183608         4.9962 
 193   0.0000       0.189490         5.1563 
 194   0.0000       0.204600         5.5674 
 195   0.0000       0.205724         5.5980 
 196   0.0000       0.207976         5.6593 
 197   0.0000       0.208855         5.6832 
 198   0.0000       0.216379         5.8880 
 199   0.0000       0.228977         6.2308 
 200   0.0000       0.233327         6.3492 
 201   0.0000       0.233715         6.3597 
 202   0.0000       0.238831         6.4989 
 203   0.0000       0.239837         6.5263 
 204   0.0000       0.246035         6.6950 
 205   0.0000       0.254836         6.9344 
 206   0.0000       0.256371         6.9762 
 207   0.0000       0.257321         7.0021 
 208   0.0000       0.259271         7.0551 
 209   0.0000       0.260556         7.0901 
 210   0.0000       0.264151         7.1879 
 211   0.0000       0.266778         7.2594 
 212   0.0000       0.268813         7.3148 
 213   0.0000       0.270061         7.3487 
 214   0.0000       0.272738         7.4216 
 215   0.0000       0.276496         7.5238 
 216   0.0000       0.278873         7.5885 
 217   0.0000       0.281973         7.6729 
 218   0.0000       0.285325         7.7641 
 219   0.0000       0.288163         7.8413 
 220   0.0000       0.288778         7.8580 
 221   0.0000       0.292753         7.9662 
 222   0.0000       0.294921         8.0252 
 223   0.0000       0.296418         8.0659 
 224   0.0000       0.297629         8.0989 
 225   0.0000       0.301608         8.2072 
 226   0.0000       0.305197         8.3048 
 227   0.0000       0.307921         8.3790 
 228   0.0000       0.318989         8.6801 
 229   0.0000       0.324679         8.8350 
 230   0.0000       0.328252         8.9322 
 231   0.0000       0.334590         9.1046 
 232   0.0000       0.343573         9.3491 
 233   0.0000       0.357062         9.7161 
 234   0.0000       0.370303        10.0764 
 235   0.0000       0.373883        10.1739 
 236   0.0000       0.384743        10.4694 
 237   0.0000       0.391019        10.6402 
 238   0.0000       0.396898        10.8001 
 239   0.0000       0.402958        10.9651 
 240   0.0000       0.404698        11.0124 
 241   0.0000       0.411015        11.1843 
 242   0.0000       0.412434        11.2229 
 243   0.0000       0.420323        11.4376 
 244   0.0000       0.429076        11.6757 
 245   0.0000       0.435350        11.8465 
 246   0.0000       0.440183        11.9780 
 247   0.0000       0.441415        12.0115 
 248   0.0000       0.441724        12.0199 
 249   0.0000       0.448626        12.2077 
 250   0.0000       0.454113        12.3570 
 251   0.0000       0.458395        12.4736 
 252   0.0000       0.467566        12.7231 
 253   0.0000       0.468845        12.7579 
 254   0.0000       0.471621        12.8334 
 255   0.0000       0.474286        12.9060 
 256   0.0000       0.476350        12.9621 
 257   0.0000       0.482684        13.1345 
 258   0.0000       0.488940        13.3047 
 259   0.0000       0.494522        13.4566 
 260   0.0000       0.504292        13.7225 
 261   0.0000       0.505152        13.7459 
 262   0.0000       0.505633        13.7590 
 263   0.0000       0.512077        13.9343 
 264   0.0000       0.515817        14.0361 
 265   0.0000       0.520881        14.1739 
 266   0.0000       0.525399        14.2968 
 267   0.0000       0.528403        14.3786 
 268   0.0000       0.535729        14.5779 
 269   0.0000       0.541711        14.7407 
 270   0.0000       0.549270        14.9464 
 271   0.0000       0.554970        15.1015 
 272   0.0000       0.558616        15.2007 
 273   0.0000       0.561422        15.2771 
 274   0.0000       0.564405        15.3582 
 275   0.0000       0.567469        15.4416 
 276   0.0000       0.573522        15.6063 
 277   0.0000       0.577113        15.7040 
 278   0.0000       0.580788        15.8041 
 279   0.0000       0.586380        15.9562 
 280   0.0000       0.592208        16.1148 
 281   0.0000       0.593727        16.1561 
 282   0.0000       0.595601        16.2071 
 283   0.0000       0.596910        16.2427 
 284   0.0000       0.598098        16.2751 
 285   0.0000       0.599490        16.3130 
 286   0.0000       0.602800        16.4030 
 287   0.0000       0.610311        16.6074 
 288   0.0000       0.616816        16.7844 
 289   0.0000       0.624367        16.9899 
 290   0.0000       0.625737        17.0272 
 291   0.0000       0.631178        17.1752 
 292   0.0000       0.633181        17.2297 
 293   0.0000       0.636261        17.3135 
 294   0.0000       0.646465        17.5912 
 295   0.0000       0.650326        17.6963 
 296   0.0000       0.654419        17.8076 
 297   0.0000       0.656713        17.8701 
 298   0.0000       0.661391        17.9974 
 299   0.0000       0.664585        18.0843 
 300   0.0000       0.670562        18.2469 
 301   0.0000       0.675509        18.3815 
 302   0.0000       0.677210        18.4278 
 303   0.0000       0.680610        18.5203 
 304   0.0000       0.683521        18.5996 
 305   0.0000       0.687136        18.6979 
 306   0.0000       0.689508        18.7625 
 307   0.0000       0.692923        18.8554 
 308   0.0000       0.695100        18.9146 
 309   0.0000       0.700534        19.0625 
 310   0.0000       0.703187        19.1347 
 311   0.0000       0.705062        19.1857 
 312   0.0000       0.708576        19.2813 
 313   0.0000       0.710643        19.3376 
 314   0.0000       0.711092        19.3498 
 315   0.0000       0.715087        19.4585 
 316   0.0000       0.716529        19.4977 
 317   0.0000       0.719216        19.5709 
 318   0.0000       0.724555        19.7161 
 319   0.0000       0.727337        19.7919 
 320   0.0000       0.727851        19.8058 
 321   0.0000       0.730118        19.8675 
 322   0.0000       0.731520        19.9057 
 323   0.0000       0.734423        19.9847 
 324   0.0000       0.737088        20.0572 
 325   0.0000       0.741353        20.1732 
 326   0.0000       0.745643        20.2900 
 327   0.0000       0.748780        20.3753 
 328   0.0000       0.749771        20.4023 
 329   0.0000       0.753688        20.5089 
 330   0.0000       0.758203        20.6318 
 331   0.0000       0.764200        20.7949 
 332   0.0000       0.766316        20.8525 
 333   0.0000       0.768196        20.9037 
 334   0.0000       0.771952        21.0059 
 335   0.0000       0.774418        21.0730 
 336   0.0000       0.778801        21.1923 
 337   0.0000       0.782484        21.2925 
 338   0.0000       0.786104        21.3910 
 339   0.0000       0.790833        21.5196 
 340   0.0000       0.792589        21.5675 
 341   0.0000       0.796389        21.6708 
 342   0.0000       0.799595        21.7581 
 343   0.0000       0.803511        21.8647 
 344   0.0000       0.807203        21.9651 
 345   0.0000       0.809284        22.0217 
 346   0.0000       0.810753        22.0617 
 347   0.0000       0.814492        22.1634 
 348   0.0000       0.815642        22.1947 
 349   0.0000       0.816779        22.2257 
 350   0.0000       0.819498        22.2997 
 351   0.0000       0.821866        22.3641 
 352   0.0000       0.823986        22.4218 
 353   0.0000       0.829570        22.5737 
 354   0.0000       0.830718        22.6050 
 355   0.0000       0.832620        22.6568 
 356   0.0000       0.835844        22.7445 
 357   0.0000       0.836960        22.7748 
 358   0.0000       0.838155        22.8074 
 359   0.0000       0.840501        22.8712 
 360   0.0000       0.842808        22.9340 
 361   0.0000       0.843163        22.9436 
 362   0.0000       0.847343        23.0574 
 363   0.0000       0.850154        23.1339 
 364   0.0000       0.852137        23.1878 
 365   0.0000       0.857362        23.3300 
 366   0.0000       0.860910        23.4266 
 367   0.0000       0.864504        23.5243 
 368   0.0000       0.867225        23.5984 
 369   0.0000       0.868593        23.6356 
 370   0.0000       0.869482        23.6598 
 371   0.0000       0.874324        23.7916 
 372   0.0000       0.877484        23.8776 
 373   0.0000       0.878220        23.8976 
 374   0.0000       0.880236        23.9524 
 375   0.0000       0.884770        24.0758 
 376   0.0000       0.890466        24.2308 
 377   0.0000       0.892635        24.2898 
 378   0.0000       0.894064        24.3287 
 379   0.0000       0.895489        24.3675 
 380   0.0000       0.897143        24.4125 
 381   0.0000       0.898865        24.4594 
 382   0.0000       0.899663        24.4811 
 383   0.0000       0.902858        24.5680 
 384   0.0000       0.906658        24.6714 
 385   0.0000       0.907774        24.7018 
 386   0.0000       0.910006        24.7625 
 387   0.0000       0.913707        24.8632 
 388   0.0000       0.916908        24.9503 
 389   0.0000       0.918820        25.0024 
 390   0.0000       0.920491        25.0478 
 391   0.0000       0.927149        25.2290 
 392   0.0000       0.927840        25.2478 
 393   0.0000       0.929274        25.2868 
 394   0.0000       0.930900        25.3311 
 395   0.0000       0.935995        25.4697 
 396   0.0000       0.936371        25.4799 
 397   0.0000       0.942088        25.6355 
 398   0.0000       0.944393        25.6982 
 399   0.0000       0.947827        25.7917 
 400   0.0000       0.949594        25.8398 
 401   0.0000       0.953316        25.9411 
 402   0.0000       0.956362        26.0239 
 403   0.0000       0.958392        26.0792 
 404   0.0000       0.962072        26.1793 
 405   0.0000       0.964199        26.2372 
 406   0.0000       0.969795        26.3895 
 407   0.0000       0.980226        26.6733 
 408   0.0000       0.982109        26.7246 
 409   0.0000       0.986674        26.8488 
 410   0.0000       0.989564        26.9274 
 411   0.0000       0.995638        27.0927 
 412   0.0000       0.998770        27.1779 
 413   0.0000       1.006565        27.3900 
 414   0.0000       1.014811        27.6144 
 415   0.0000       1.015586        27.6355 
 416   0.0000       1.017032        27.6749 
 417   0.0000       1.025185        27.8967 
 418   0.0000       1.028949        27.9991 
 419   0.0000       1.032918        28.1071 
 420   0.0000       1.035116        28.1669 
 421   0.0000       1.042657        28.3721 
 422   0.0000       1.051196        28.6045 
 423   0.0000       1.054532        28.6953 
 424   0.0000       1.055021        28.7086 
 425   0.0000       1.074079        29.2272 
 426   0.0000       1.077436        29.3185 
 427   0.0000       1.079051        29.3625 
 428   0.0000       1.082281        29.4504 
 429   0.0000       1.084861        29.5206 
 430   0.0000       1.089848        29.6563 
 431   0.0000       1.094950        29.7951 
 432   0.0000       1.100968        29.9589 
 433   0.0000       1.103303        30.0224 
 434   0.0000       1.109197        30.1828 
 435   0.0000       1.113302        30.2945 
 436   0.0000       1.114152        30.3176 
 437   0.0000       1.119118        30.4527 
 438   0.0000       1.122164        30.5356 
 439   0.0000       1.124828        30.6081 
 440   0.0000       1.128444        30.7065 
 441   0.0000       1.129548        30.7366 
 442   0.0000       1.135471        30.8977 
 443   0.0000       1.137392        30.9500 
 444   0.0000       1.138015        30.9670 
 445   0.0000       1.143824        31.1250 
 446   0.0000       1.148497        31.2522 
 447   0.0000       1.150847        31.3161 
 448   0.0000       1.154881        31.4259 
 449   0.0000       1.156207        31.4620 
 450   0.0000       1.161593        31.6086 
 451   0.0000       1.164728        31.6939 
 452   0.0000       1.168304        31.7912 
 453   0.0000       1.168889        31.8071 
 454   0.0000       1.173483        31.9321 
 455   0.0000       1.178515        32.0690 
 456   0.0000       1.184351        32.2278 
 457   0.0000       1.193846        32.4862 
 458   0.0000       1.196147        32.5488 
 459   0.0000       1.200270        32.6610 
 460   0.0000       1.203528        32.7496 
 461   0.0000       1.206555        32.8320 
 462   0.0000       1.208445        32.8835 
 463   0.0000       1.211556        32.9681 
 464   0.0000       1.214394        33.0453 
 465   0.0000       1.215477        33.0748 
 466   0.0000       1.222464        33.2649 
 467   0.0000       1.229908        33.4675 
 468   0.0000       1.231735        33.5172 
 469   0.0000       1.235211        33.6118 
 470   0.0000       1.235954        33.6320 
 471   0.0000       1.240720        33.7617 
 472   0.0000       1.243058        33.8253 
 473   0.0000       1.244469        33.8637 
 474   0.0000       1.247622        33.9495 
 475   0.0000       1.249083        33.9893 
 476   0.0000       1.253403        34.1068 
 477   0.0000       1.254860        34.1465 
 478   0.0000       1.260369        34.2964 
 479   0.0000       1.261785        34.3349 
 480   0.0000       1.266905        34.4742 
 481   0.0000       1.270983        34.5852 
 482   0.0000       1.272681        34.6314 
 483   0.0000       1.274435        34.6791 
 484   0.0000       1.278144        34.7801 
 485   0.0000       1.283350        34.9217 
 486   0.0000       1.286697        35.0128 
 487   0.0000       1.291280        35.1375 
 488   0.0000       1.292521        35.1713 
 489   0.0000       1.297273        35.3006 
 490   0.0000       1.300900        35.3993 
 491   0.0000       1.301599        35.4183 
 492   0.0000       1.307145        35.5692 
 493   0.0000       1.309667        35.6379 
 494   0.0000       1.314855        35.7790 
 495   0.0000       1.319598        35.9081 
 496   0.0000       1.321646        35.9638 
 497   0.0000       1.327336        36.1187 
 498   0.0000       1.328957        36.1628 
 499   0.0000       1.334164        36.3044 
 500   0.0000       1.336878        36.3783 
 501   0.0000       1.338653        36.4266 
 502   0.0000       1.342319        36.5264 
 503   0.0000       1.348632        36.6981 
 504   0.0000       1.348961        36.7071 
 505   0.0000       1.351626        36.7796 
 506   0.0000       1.353060        36.8186 
 507   0.0000       1.356685        36.9173 
 508   0.0000       1.360926        37.0327 
 509   0.0000       1.363576        37.1048 
[...]
      px      :     0.043619
      py      :     0.014044
 77 H s       :     0.884419  s :     0.884419
      pz      :     0.047986  p :     0.079301
      px      :     0.015024
      py      :     0.016291
 78 H s       :     0.884772  s :     0.884772
      pz      :     0.025887  p :     0.079271
      px      :     0.020453
      py      :     0.032931
 79 H s       :     0.910784  s :     0.910784
      pz      :     0.021798  p :     0.086301
      px      :     0.021656
      py      :     0.042847
 80 H s       :     0.864286  s :     0.864286
      pz      :     0.039401  p :     0.084849
      px      :     0.030297
      py      :     0.015151
 81 H s       :     0.886808  s :     0.886808
      pz      :     0.037827  p :     0.084132
      px      :     0.016183
      py      :     0.030121
 82 H s       :     0.916141  s :     0.916141
      pz      :     0.021965  p :     0.086725
      px      :     0.031654
      py      :     0.033106
 83 H s       :     0.873468  s :     0.873468
      pz      :     0.039271  p :     0.084103
      px      :     0.015277
      py      :     0.029555
 84 H s       :     0.886714  s :     0.886714
      pz      :     0.035765  p :     0.083421
      px      :     0.031694
      py      :     0.015962
 85 H s       :     0.892863  s :     0.892863
      pz      :     0.022489  p :     0.079783
      px      :     0.014070
      py      :     0.043224
 86 H s       :     0.891021  s :     0.891021
      pz      :     0.024729  p :     0.078825
      px      :     0.032979
      py      :     0.021117
 87 H s       :     0.889843  s :     0.889843
      pz      :     0.048019  p :     0.078741
      px      :     0.015585
      py      :     0.015137
 88 H s       :     0.910535  s :     0.910535
      pz      :     0.021621  p :     0.087020
      px      :     0.042941
      py      :     0.022458
 89 H s       :     0.871006  s :     0.871006
      pz      :     0.037963  p :     0.083858
      px      :     0.030508
      py      :     0.015387


                      *****************************
                      * MAYER POPULATION ANALYSIS *
                      *****************************

  NA   - Mulliken gross atomic population
  ZA   - Total nuclear charge
  QA   - Mulliken gross atomic charge
  VA   - Mayer's total valence
  BVA  - Mayer's bonded valence
  FA   - Mayer's free valence

  ATOM       NA         ZA         QA         VA         BVA        FA
  0 C      5.7769     6.0000     0.2231     3.8496     3.8496    -0.0000
  1 N      7.4558     7.0000    -0.4558     3.3501     3.3501     0.0000
  2 C      6.0709     6.0000    -0.0709     3.9233     3.9233     0.0000
  3 N      7.3414     7.0000    -0.3414     3.4555     3.4555     0.0000
  4 C      6.1079     6.0000    -0.1079     4.1775     4.1775    -0.0000
  5 N      7.5691     7.0000    -0.5691     3.0954     3.0954     0.0000
  6 C      6.1073     6.0000    -0.1073     3.9358     3.9358    -0.0000
  7 N      7.3411     7.0000    -0.3411     3.4321     3.4321    -0.0000
  8 C      5.7741     6.0000     0.2259     3.8537     3.8537    -0.0000
  9 N      7.5625     7.0000    -0.5625     3.0769     3.0769    -0.0000
 10 C      5.8804     6.0000     0.1196     3.9090     3.9090    -0.0000
 11 N      7.4383     7.0000    -0.4383     3.3787     3.3787     0.0000
 12 C      6.0476     6.0000    -0.0476     3.8046     3.8046    -0.0000
 13 N      7.4292     7.0000    -0.4292     3.4290     3.4290    -0.0000
 14 C      5.7915     6.0000     0.2085     3.8162     3.8162     0.0000
 15 N      7.4410     7.0000    -0.4410     3.3722     3.3722     0.0000
 16 C      5.7640     6.0000     0.2360     3.7775     3.7775     0.0000
 17 C      6.1073     6.0000    -0.1073     3.9219     3.9219    -0.0000
 18 C      6.1658     6.0000    -0.1658     3.7420     3.7420     0.0000
 19 C      5.7946     6.0000     0.2054     3.8818     3.8818    -0.0000
 20 C      5.7859     6.0000     0.2141     3.8290     3.8290    -0.0000
 21 C      6.0485     6.0000    -0.0485     3.8049     3.8049     0.0000
 22 C      6.0899     6.0000    -0.0899     3.9824     3.9824    -0.0000
 23 C      6.0395     6.0000    -0.0395     3.9926     3.9926    -0.0000
 24 C      5.8065     6.0000     0.1935     3.8210     3.8210    -0.0000
 25 C      5.8855     6.0000     0.1145     3.8914     3.8914     0.0000
 26 C      6.0903     6.0000    -0.0903     3.9094     3.9094    -0.0000
 27 C      5.7822     6.0000     0.2178     3.8614     3.8614    -0.0000
 28 C      6.0618     6.0000    -0.0618     3.9887     3.9887    -0.0000
 29 C      6.1835     6.0000    -0.1835     3.7480     3.7480     0.0000
 30 C      5.7542     6.0000     0.2458     3.7996     3.7996     0.0000
 31 C      5.7693     6.0000     0.2307     3.8169     3.8169     0.0000
 32 C      6.0613     6.0000    -0.0613     3.9234     3.9234    -0.0000
 33 C      6.0598     6.0000    -0.0598     3.9709     3.9709    -0.0000
 34 C      6.0510     6.0000    -0.0510     3.9833     3.9833     0.0000
 35 C      5.7713     6.0000     0.2287     3.8162     3.8162    -0.0000
 36 C      5.8918     6.0000     0.1082     3.8745     3.8745     0.0000
 37 C      6.0645     6.0000    -0.0645     3.9177     3.9177     0.0000
 38 C      5.7687     6.0000     0.2313     3.8016     3.8016     0.0000
 39 C      6.0578     6.0000    -0.0578     3.9829     3.9829     0.0000
 40 C      6.1817     6.0000    -0.1817     3.7260     3.7260    -0.0000
 41 C      5.7741     6.0000     0.2259     3.8877     3.8877    -0.0000
 42 C      5.8028     6.0000     0.1972     3.8255     3.8255    -0.0000
 43 C      6.0728     6.0000    -0.0728     3.8999     3.8999    -0.0000
 44 C      6.0898     6.0000    -0.0898     3.9853     3.9853     0.0000
 45 C      6.0617     6.0000    -0.0617     3.9918     3.9918     0.0000
 46 C      5.7883     6.0000     0.2117     3.8286     3.8286    -0.0000
 47 C      5.8846     6.0000     0.1154     3.8930     3.8930     0.0000
 48 C      6.0665     6.0000    -0.0665     3.9094     3.9094    -0.0000
 49 C      5.7622     6.0000     0.2378     3.8964     3.8964     0.0000
 50 C      6.0461     6.0000    -0.0461     3.9903     3.9903     0.0000
 51 C      6.1939     6.0000    -0.1939     3.7386     3.7386     0.0000
 52 H      0.9662     1.0000     0.0338     0.9856     0.9856     0.0000
 53 H      1.0185     1.0000    -0.0185     0.9995     0.9995     0.0000
 54 H      0.9458     1.0000     0.0542     0.9664     0.9664     0.0000
 55 H      0.9690     1.0000     0.0310     0.9866     0.9866    -0.0000
 56 H      0.9505     1.0000     0.0495     0.9695     0.9695    -0.0000
 57 H      0.9530     1.0000     0.0470     0.9824     0.9824     0.0000
 58 H      0.9533     1.0000     0.0467     0.9846     0.9846     0.0000
 59 H      1.0215     1.0000    -0.0215     0.9786     0.9786     0.0000
 60 H      0.9505     1.0000     0.0495     1.0049     1.0049    -0.0000
 61 H      0.8290     1.0000     0.1710     1.0424     1.0424    -0.0000
 62 H      0.8244     1.0000     0.1756     1.0437     1.0437     0.0000
 63 H      0.9445     1.0000     0.0555     0.9852     0.9852     0.0000
 64 H      1.0354     1.0000    -0.0354     0.9896     0.9896    -0.0000
 65 H      0.9531     1.0000     0.0469     1.0101     1.0101    -0.0000
 66 H      0.9443     1.0000     0.0557     0.9855     0.9855    -0.0000
 67 H      0.9374     1.0000     0.0626     0.9719     0.9719     0.0000
 68 H      0.9427     1.0000     0.0573     0.9868     0.9868    -0.0000
 69 H      0.9436     1.0000     0.0564     0.9828     0.9828     0.0000
 70 H      1.0303     1.0000    -0.0303     0.9941     0.9941    -0.0000
 71 H      0.9550     1.0000     0.0450     1.0058     1.0058    -0.0000
 72 H      0.9284     1.0000     0.0716     0.9835     0.9835     0.0000
 73 H      1.0079     1.0000    -0.0079     1.0010     1.0010    -0.0000
 74 H      0.9393     1.0000     0.0607     1.0101     1.0101     0.0000
 75 H      0.9290     1.0000     0.0710     0.9838     0.9838    -0.0000
 76 H      0.9248     1.0000     0.0752     0.9721     0.9721     0.0000
 77 H      0.9318     1.0000     0.0682     0.9855     0.9855    -0.0000
 78 H      0.9325     1.0000     0.0675     0.9854     0.9854     0.0000
 79 H      1.0167     1.0000    -0.0167     0.9975     0.9975     0.0000
 80 H      0.9384     1.0000     0.0616     1.0072     1.0072     0.0000
 81 H      0.9456     1.0000     0.0544     0.9856     0.9856    -0.0000
 82 H      1.0251     1.0000    -0.0251     0.9934     0.9934     0.0000
 83 H      0.9582     1.0000     0.0418     1.0083     1.0083    -0.0000
 84 H      0.9459     1.0000     0.0541     0.9852     0.9852     0.0000
 85 H      0.9392     1.0000     0.0608     0.9716     0.9716    -0.0000
 86 H      0.9445     1.0000     0.0555     0.9839     0.9839    -0.0000
 87 H      0.9428     1.0000     0.0572     0.9857     0.9857     0.0000
 88 H      1.0144     1.0000    -0.0144     0.9968     0.9968     0.0000
 89 H      0.9528     1.0000     0.0472     1.0075     1.0075     0.0000

  Mayer bond orders larger than 0.100000
B(  0-C ,  1-N ) :   1.0951 B(  0-C , 17-C ) :   1.7278 B(  0-C , 52-H ) :   0.9586 
B(  1-N ,  8-C ) :   1.0992 B(  1-N , 10-C ) :   0.9772 B(  2-C , 12-C ) :   1.4806 
B(  2-C , 16-C ) :   1.3804 B(  2-C , 53-H ) :   0.9709 B(  3-N , 14-C ) :   1.2258 
B(  3-N , 16-C ) :   1.1778 B(  3-N , 61-H ) :   0.8976 B(  4-C ,  6-C ) :   1.2266 
B(  4-C , 17-C ) :   1.2276 B(  4-C , 18-C ) :   1.4857 B(  5-N , 19-C ) :   1.4614 
B(  5-N , 27-C ) :   1.3679 B(  6-C ,  8-C ) :   1.7294 B(  6-C , 54-H ) :   0.8588 
B(  7-N , 30-C ) :   1.1947 B(  7-N , 38-C ) :   1.1898 B(  7-N , 62-H ) :   0.8967 
B(  8-C , 55-H ) :   0.9603 B(  9-N , 41-C ) :   1.3943 B(  9-N , 49-C ) :   1.4251 
B( 10-C , 56-H ) :   0.9777 B( 10-C , 57-H ) :   0.9827 B( 10-C , 58-H ) :   0.9835 
B( 11-N , 20-C ) :   1.1317 B( 11-N , 24-C ) :   1.1071 B( 11-N , 25-C ) :   0.9600 
B( 12-C , 14-C ) :   1.3643 B( 12-C , 59-H ) :   0.8998 B( 13-N , 31-C ) :   1.1623 
B( 13-N , 35-C ) :   1.1609 B( 13-N , 36-C ) :   0.9410 B( 14-C , 18-C ) :   1.1148 
B( 15-N , 42-C ) :   1.1073 B( 15-N , 46-C ) :   1.1246 B( 15-N , 47-C ) :   0.9614 
B( 16-C , 51-C ) :   1.1671 B( 17-C , 60-H ) :   0.8507 B( 18-C , 19-C ) :   1.1135 
B( 19-C , 21-C ) :   1.2541 B( 20-C , 28-C ) :   1.6282 B( 20-C , 63-H ) :   0.9702 
B( 21-C , 26-C ) :   1.5782 B( 21-C , 64-H ) :   0.8972 B( 22-C , 23-C ) :   1.2902 
B( 22-C , 28-C ) :   1.2641 B( 22-C , 29-C ) :   1.2259 B( 23-C , 24-C ) :   1.6194 
B( 23-C , 65-H ) :   0.9703 B( 24-C , 66-H ) :   0.9695 B( 25-C , 67-H ) :   0.9760 
B( 25-C , 68-H ) :   0.9828 B( 25-C , 69-H ) :   0.9823 B( 26-C , 27-C ) :   1.2655 
B( 26-C , 70-H ) :   0.9655 B( 27-C , 29-C ) :   1.2057 B( 28-C , 71-H ) :   0.9720 
B( 29-C , 30-C ) :   1.2480 B( 30-C , 32-C ) :   1.2778 B( 31-C , 39-C ) :   1.5871 
B( 31-C , 72-H ) :   0.9681 B( 32-C , 37-C ) :   1.5811 B( 32-C , 73-H ) :   0.9786 
B( 33-C , 34-C ) :   1.3076 B( 33-C , 39-C ) :   1.3045 B( 33-C , 40-C ) :   1.1751 
B( 34-C , 35-C ) :   1.5846 B( 34-C , 74-H ) :   0.9696 B( 35-C , 75-H ) :   0.9681 
B( 36-C , 76-H ) :   0.9768 B( 36-C , 77-H ) :   0.9816 B( 36-C , 78-H ) :   0.9823 
B( 37-C , 38-C ) :   1.2838 B( 37-C , 79-H ) :   0.9764 B( 38-C , 40-C ) :   1.2349 
B( 39-C , 80-H ) :   0.9705 B( 40-C , 41-C ) :   1.2503 B( 41-C , 43-C ) :   1.1845 
B( 42-C , 50-C ) :   1.6334 B( 42-C , 81-H ) :   0.9697 B( 43-C , 48-C ) :   1.6684 
B( 43-C , 82-H ) :   0.9721 B( 44-C , 45-C ) :   1.2630 B( 44-C , 50-C ) :   1.2722 
B( 44-C , 51-C ) :   1.2614 B( 45-C , 46-C ) :   1.6348 B( 45-C , 83-H ) :   0.9718 
B( 46-C , 84-H ) :   0.9700 B( 47-C , 85-H ) :   0.9762 B( 47-C , 86-H ) :   0.9829 
B( 47-C , 87-H ) :   0.9824 B( 48-C , 49-C ) :   1.1879 B( 48-C , 88-H ) :   0.9749 
B( 49-C , 51-C ) :   1.2460 B( 50-C , 89-H ) :   0.9708 B( 54-H , 59-H ) :   0.1177 
B( 60-H , 64-H ) :   0.1237 

-------
TIMINGS
-------

Total SCF time: 0 days 0 hours 28 min 49 sec 

Total time                  ....    1729.749 sec
Sum of individual times     ....    1725.017 sec  ( 99.7%)

Fock matrix formation       ....    1697.399 sec  ( 98.1%)
Diagonalization             ....       8.740 sec  (  0.5%)
Density matrix formation    ....       0.537 sec  (  0.0%)
Population analysis         ....       0.587 sec  (  0.0%)
Initial guess               ....       2.510 sec  (  0.1%)
Orbital Transformation      ....       0.000 sec  (  0.0%)
Orbital Orthonormalization  ....       0.000 sec  (  0.0%)
DIIS solution               ....       3.955 sec  (  0.2%)
SOSCF solution              ....      10.001 sec  (  0.6%)

Maximum memory used throughout the entire SCF-calculation: 302.7 MB


           ************************************************************
           *        Program running with 16 parallel MPI-processes    *
           *              working on a common directory               *
           ************************************************************

------------------------------------------------------------------------------
                                ORCA  MP2 
------------------------------------------------------------------------------

Freezing NCore=104 chemical core electrons

----------
MP2 ENERGY (disk based algorithm)
----------

Dimension of the basis                    ...  918
Memory devoted to MP2                     ... 2000 MB   
Data format for buffers                   ... DOUBLE
Compression type for matrix containers    ... UNCOMPRESSED

-------------------------------
PARTIAL EXCHANGE TRANSFORMATION
-------------------------------

Transformation type                        ... one-operator
Generation of integrals (i,mue|j,nue)      ... ON
Generation of integrals (mue,kappa|nue,tau)... OFF
Generation of integrals (i,mue|a,nue)      ... OFF
Dimension of the basis                     ...  918
Number of internal MOs                     ...  127 (  52- 178)
Pair cutoff                                ... 2.500e-12 Eh
Number of AO pairs in the trafo            ... 421821
Total Number of distinct AO pairs          ... 421821
Memory devoted for trafo                   ... 2000.0 MB 
Max. Number of MO pairs treated together   ...  311      
Number Format for Storage                  ... Double (8 Byte)
Integral package used                      ... LIBINT

Starting integral evaluation:
    ... done with AO integral generation
Closing buffer AOK     (38.17 GB; CompressionRatio= 1.33)
Collecting buffer AOK 
Number of MO pairs included in the trafo   ... 8128
------------------------
SORTING OF (i,mue|j,nue)
------------------------

IBATCH = 1 of  2
IBATCH = 2 of  2
Closing buffer KAO     (51.03 GB; CompressionRatio= 1.00)
Collecting buffer KAO 
N(AO-Batches) Done                         ...  86273976 
N(AO-Batches) Skipped                      ...  82256002 
N(IJ)-pairs Skipped                        ...         0 
TOTAL TIME for half transformation         ...  2302.876 sec
AO-integral generation                     ...   212.044 sec
Half transformation                        ...   424.180 sec
K-integral sorting                         ...  1443.869 sec
Process 10:   Internal MO 132
Process 13:   Internal MO 156
Process  4:   Internal MO  84

Finished integral transformation - now doing MP2 part

Process  7:   Internal MO 108
Process  1:   Internal MO  60
OPERATOR COMBINATION   0   0: ij=( 52..178, 52..178)
Process  0:   Internal MO  54
Process  2:   Internal MO  69
Process  0:   Internal MO  57
Process  1:   Internal MO  63
Process  8:   Internal MO 117
Process  3:   Internal MO  78
Process  2:   Internal MO  72
Process  1:   Internal MO  66
Process  6:   Internal MO 102
Process 14:   Internal MO 165
Process 11:   Internal MO 141
Process  5:   Internal MO  93
Process  4:   Internal MO  87
Process  2:   Internal MO  75
Process  3:   Internal MO  81
Process  9:   Internal MO 126
Process  7:   Internal MO 111
Process 12:   Internal MO 150
Process  6:   Internal MO 105
Process 10:   Internal MO 135
Process 15:   Internal MO 174
Process  4:   Internal MO  90
Process  5:   Internal MO  96
Process  8:   Internal MO 120
Process  7:   Internal MO 114
Process  9:   Internal MO 129
Process 13:   Internal MO 159
Process  5:   Internal MO  99
Process 11:   Internal MO 144
Process 12:   Internal MO 153
Process 14:   Internal MO 168
Process 10:   Internal MO 138
Process  8:   Internal MO 123
Process 15:   Internal MO 177
Process 11:   Internal MO 147
Process 13:   Internal MO 162
Process 14:   Internal MO 171
-----------------------------------------------
 MP2 CORRELATION ENERGY   :     -7.292892212 Eh
-----------------------------------------------


-------
TIMINGS
-------
Total time                : 2588.946 sec
Integral trafo            : 2305.497 sec ( 89.1%)
K(i,j)                    :    5.865 sec (  0.2%)
T(i,j)                    :    0.069 sec (  0.0%)

---------------------------------------
MP2 TOTAL ENERGY:    -2130.746357568 Eh
---------------------------------------

Maximum memory used throughout the entire MP2-calculation: 2275.3 MB

-------------------------   --------------------
FINAL SINGLE POINT ENERGY     -2130.746357568123
-------------------------   --------------------


                            ***************************************
                            *     ORCA property calculations      *
                            ***************************************


  WARNING: The energy has been calculated at the MP2 level but the densities
           used in the property calculations are still SCF densities
           MP2 response densities have not been calculated 
           use %mp2 Density relaxed end
           or  %mp2 Density unrelaxed end

                                    ---------------------
                                    Active property flags
                                    ---------------------
   (+) Dipole Moment


------------------------------------------------------------------------------
                       ORCA ELECTRIC PROPERTIES CALCULATION
------------------------------------------------------------------------------

Dipole Moment Calculation                       ... on
Quadrupole Moment Calculation                   ... off
Polarizability Calculation                      ... off
GBWName                                         ... /scratch/allen/tmpyp4_amber_gaff2/conf1/conf1/Conf178.orca.gbw
Electron density                                ... /scratch/allen/tmpyp4_amber_gaff2/conf1/conf1/Conf178.orca.scfp
The origin for moment calculation is the CENTER OF MASS  = ( 0.003382, -0.001770  0.000523)

-------------
DIPOLE MOMENT
-------------
                                X             Y             Z
Electronic contribution:      2.75625      -4.40878      -0.20509
Nuclear contribution   :      0.05916       0.22563       0.20398
                        -----------------------------------------
Total Dipole Moment    :      2.81540      -4.18315      -0.00111
                        -----------------------------------------
Magnitude (a.u.)       :      5.04235
Magnitude (Debye)      :     12.81663



--------------------
Rotational spectrum 
--------------------
 
Rotational constants in cm-1:     0.001501     0.001480     0.000760 
Rotational constants in MHz :    45.012846    44.359188    22.780670 

 Dipole components along the rotational axes: 
x,y,z [a.u.] :     3.486292    -3.642942     0.000939 
x,y,z [Debye]:     8.861451    -9.259622     0.002387 

 

Timings for individual modules:

Sum of individual times         ...     4341.103 sec (=  72.352 min)
GTO integral calculation        ...        3.410 sec (=   0.057 min)   0.1 %
SCF iterations                  ...     1730.933 sec (=  28.849 min)  39.9 %
MP2 module                      ...     2606.761 sec (=  43.446 min)  60.0 %
                             ****ORCA TERMINATED NORMALLY****
TOTAL RUN TIME: 0 days 1 hours 12 minutes 24 seconds 512 msec
# of primitive gaussian functions

