
                                 *****************
                                 * O   R   C   A *
                                 *****************

                                            #,                                       
                                            ###                                      
                                            ####                                     
                                            #####                                    
                                            ######                                   
                                           ########,                                 
                                     ,,################,,,,,                         
                               ,,#################################,,                 
                          ,,##########################################,,             
                       ,#########################################, ''#####,          
                    ,#############################################,,   '####,        
                  ,##################################################,,,,####,       
                ,###########''''           ''''###############################       
              ,#####''   ,,,,##########,,,,          '''####'''          '####       
            ,##' ,,,,###########################,,,                        '##       
           ' ,,###''''                  '''############,,,                           
         ,,##''                                '''############,,,,        ,,,,,,###''
      ,#''                                            '''#######################'''  
     '                                                          ''''####''''         
             ,#######,   #######,   ,#######,      ##                                
            ,#'     '#,  ##    ##  ,#'     '#,    #''#        ######   ,####,        
            ##       ##  ##   ,#'  ##            #'  '#       #        #'  '#        
            ##       ##  #######   ##           ,######,      #####,   #    #        
            '#,     ,#'  ##    ##  '#,     ,#' ,#      #,         ##   #,  ,#        
             '#######'   ##     ##  '#######'  #'      '#     #####' # '####'        



                  #######################################################
                  #                        -***-                        #
                  #          Department of theory and spectroscopy      #
                  #    Directorship and core code : Frank Neese         #
                  #        Max Planck Institute fuer Kohlenforschung    #
                  #                Kaiser Wilhelm Platz 1               #
                  #                 D-45470 Muelheim/Ruhr               #
                  #                      Germany                        #
                  #                                                     #
                  #                  All rights reserved                #
                  #                        -***-                        #
                  #######################################################


                         Program Version 5.0.4 -  RELEASE  -


 With contributions from (in alphabetic order):
   Daniel Aravena         : Magnetic Suceptibility
   Michael Atanasov       : Ab Initio Ligand Field Theory (pilot matlab implementation)
   Alexander A. Auer      : GIAO ZORA, VPT2 properties, NMR spectrum
   Ute Becker             : Parallelization
   Giovanni Bistoni       : ED, misc. LED, open-shell LED, HFLD
   Martin Brehm           : Molecular dynamics
   Dmytro Bykov           : SCF Hessian
   Vijay G. Chilkuri      : MRCI spin determinant printing, contributions to CSF-ICE
   Dipayan Datta          : RHF DLPNO-CCSD density
   Achintya Kumar Dutta   : EOM-CC, STEOM-CC
   Dmitry Ganyushin       : Spin-Orbit,Spin-Spin,Magnetic field MRCI
   Miquel Garcia          : C-PCM and meta-GGA Hessian, CC/C-PCM, Gaussian charge scheme
   Yang Guo               : DLPNO-NEVPT2, F12-NEVPT2, CIM, IAO-localization
   Andreas Hansen         : Spin unrestricted coupled pair/coupled cluster methods
   Benjamin Helmich-Paris : MC-RPA, TRAH-SCF, COSX integrals
   Lee Huntington         : MR-EOM, pCC
   Robert Izsak           : Overlap fitted RIJCOSX, COSX-SCS-MP3, EOM
   Marcus Kettner         : VPT2
   Christian Kollmar      : KDIIS, OOCD, Brueckner-CCSD(T), CCSD density, CASPT2, CASPT2-K
   Simone Kossmann        : Meta GGA functionals, TD-DFT gradient, OOMP2, MP2 Hessian
   Martin Krupicka        : Initial AUTO-CI
   Lucas Lang             : DCDCAS
   Marvin Lechner         : AUTO-CI (C++ implementation), FIC-MRCC
   Dagmar Lenk            : GEPOL surface, SMD
   Dimitrios Liakos       : Extrapolation schemes; Compound Job, initial MDCI parallelization
   Dimitrios Manganas     : Further ROCIS development; embedding schemes
   Dimitrios Pantazis     : SARC Basis sets
   Anastasios Papadopoulos: AUTO-CI, single reference methods and gradients
   Taras Petrenko         : DFT Hessian,TD-DFT gradient, ASA, ECA, R-Raman, ABS, FL, XAS/XES, NRVS
   Peter Pinski           : DLPNO-MP2, DLPNO-MP2 Gradient
   Christoph Reimann      : Effective Core Potentials
   Marius Retegan         : Local ZFS, SOC
   Christoph Riplinger    : Optimizer, TS searches, QM/MM, DLPNO-CCSD(T), (RO)-DLPNO pert. Triples
   Tobias Risthaus        : Range-separated hybrids, TD-DFT gradient, RPA, STAB
   Michael Roemelt        : Original ROCIS implementation
   Masaaki Saitow         : Open-shell DLPNO-CCSD energy and density
   Barbara Sandhoefer     : DKH picture change effects
   Avijit Sen             : IP-ROCIS
   Kantharuban Sivalingam : CASSCF convergence, NEVPT2, FIC-MRCI
   Bernardo de Souza      : ESD, SOC TD-DFT
   Georgi Stoychev        : AutoAux, RI-MP2 NMR, DLPNO-MP2 response
   Willem Van den Heuvel  : Paramagnetic NMR
   Boris Wezisla          : Elementary symmetry handling
   Frank Wennmohs         : Technical directorship


 We gratefully acknowledge several colleagues who have allowed us to
 interface, adapt or use parts of their codes:
   Stefan Grimme, W. Hujo, H. Kruse, P. Pracht,  : VdW corrections, initial TS optimization,
                  C. Bannwarth, S. Ehlert          DFT functionals, gCP, sTDA/sTD-DF
   Ed Valeev, F. Pavosevic, A. Kumar             : LibInt (2-el integral package), F12 methods
   Garnet Chan, S. Sharma, J. Yang, R. Olivares  : DMRG
   Ulf Ekstrom                                   : XCFun DFT Library
   Mihaly Kallay                                 : mrcc  (arbitrary order and MRCC methods)
   Jiri Pittner, Ondrej Demel                    : Mk-CCSD
   Frank Weinhold                                : gennbo (NPA and NBO analysis)
   Christopher J. Cramer and Donald G. Truhlar   : smd solvation model
   Lars Goerigk                                  : TD-DFT with DH, B97 family of functionals
   V. Asgeirsson, H. Jonsson                     : NEB implementation
   FAccTs GmbH                                   : IRC, NEB, NEB-TS, DLPNO-Multilevel, CI-OPT
                                                   MM, QMMM, 2- and 3-layer-ONIOM, Crystal-QMMM,
                                                   LR-CPCM, SF, NACMEs, symmetry and pop. for TD-DFT,
                                                   nearIR, NL-DFT gradient (VV10), updates on ESD,
                                                   ML-optimized integration grids
   S Lehtola, MJT Oliveira, MAL Marques          : LibXC Library
   Liviu Ungur et al                             : ANISO software


 Your calculation uses the libint2 library for the computation of 2-el integrals
 For citations please refer to: http://libint.valeyev.net

 Your ORCA version has been built with support for libXC version: 5.1.0
 For citations please refer to: https://tddft.org/programs/libxc/

 This ORCA versions uses:
   CBLAS   interface :  Fast vector & matrix operations
   LAPACKE interface :  Fast linear algebra routines
   SCALAPACK package :  Parallel linear algebra routines
   Shared memory     :  Shared parallel matrices
   BLAS/LAPACK       :  OpenBLAS 0.3.15  USE64BITINT DYNAMIC_ARCH NO_AFFINITY Sandybridge SINGLE_THREADED
        Core in use  :  Sandybridge
   Copyright (c) 2011-2014, The OpenBLAS Project


================================================================================

----- Orbital basis set information -----
Your calculation utilizes the basis: cc-pVDZ 
       H, B-Ne : Obtained from the ccRepo (grant-hill.group.shef.ac.uk/ccrepo) Feb. 2017
                 T. H. Dunning, Jr., J. Chem. Phys. 90, 1007 (1989)
            He : Obtained from the ccRepo (grant-hill.group.shef.ac.uk/ccrepo) Feb. 2017
                 D. E. Woon, T. H. Dunning, Jr., J. Chem. Phys. 100, 2975 (1994)
  Li-Be, Na-Mg : Obtained from the ccRepo (grant-hill.group.shef.ac.uk/ccrepo) Feb. 2017
                 B. P. Prascher, D. E. Woon, K. A. Peterson, T. H. Dunning, Jr., A. K. Wilson, Theor. Chem. Acc. 128, 69 (2011)
         Al-Ar : Obtained from the ccRepo (grant-hill.group.shef.ac.uk/ccrepo) Feb. 2017
                 D. E. Woon, T. H. Dunning, Jr., J. Chem. Phys. 98, 1358 (1993)
            Ca : Obtained from the Peterson Research Group Website (tyr0.chem.wsu.edu/~kipeters) Feb. 2017
                 J. Koput, K. A. Peterson, J. Phys. Chem. 106, 9595 (2002)
         Sc-Zn : Obtained from the ccRepo (grant-hill.group.shef.ac.uk/ccrepo) Feb. 2017
                 N. B. Balabanov, K. A. Peterson, J. Chem. Phys. 123, 064107 (2005)
                 N. B. Balabanov, K. A. Peterson, J. Chem. Phys. 125, 074110 (2006)
         Ga-Kr : Obtained from the ccRepo (grant-hill.group.shef.ac.uk/ccrepo) Feb. 2017
                 A. K. Wilson, D. E. Woon, K. A. Peterson, T. H. Dunning, Jr., J. Chem. Phys. 110, 7667 (1999)

================================================================================
                                        WARNINGS
                       Please study these warnings very carefully!
================================================================================


WARNING: No MP2 level density has been requested!
         To caclulate MP2 level properties use
         %mp2 Density relaxed end
         or
         %mp2 Density unrelaxed end

WARNING: Post HF methods need fully converged wavefunctions
  ===> : Setting SCFConvForced true
         You can overwrite this default with %scf ConvForced false 


INFO   : the flag for use of the SHARK integral package has been found!

================================================================================
                                       INPUT FILE
================================================================================
NAME = /scratch/allen/tmpyp4_amber_gaff2/2.Mdgx/conf11/conf11/Conf233.orca
|  1> ! PAL2
|  2> ! mp2 cc-pvdz TightSCF  NoKeepInts
|  3> 
|  4> %scf
|  5>   MaxCore 2000
|  6> end
|  7> %mp2
|  8>   MaxCore 2000
|  9> end
| 10> * xyz 0 1
| 11>    C       -4.60300         5.40400         0.97700
| 12>    C        1.47400         4.04100         0.05700
| 13>    C       -2.80200         4.09300         0.04900
| 14>    C       -2.59000         5.13000        -0.87200
| 15>    C       -3.38100         6.26100        -0.83800
| 16>    C       -5.17900         7.62500         0.10900
| 17>    C        0.13200         4.30700         0.06100
| 18>    C       -0.56900         3.05600         0.04700
| 19>    C        1.64900         2.61800         0.02300
| 20>    C       -3.83400         4.25700         0.98600
| 21>    N       -4.37300         6.38500         0.07400
| 22>    N        0.38800         2.06700         0.02500
| 23>    N       -2.01000         0.39500        -0.07500
| 24>    N       -0.38800        -2.07400        -0.02700
| 25>    N        2.01000        -0.40100         0.06500
| 26>    C       -1.96000         2.86100         0.02400
| 27>    C       -2.62300         1.61500        -0.01800
| 28>    C       -5.57300        -4.32900         1.06600
| 29>    C       -4.07300         1.47100         0.05600
| 30>    C       -4.10600        -2.75600        -0.02600
| 31>    C       -4.99500        -2.75700        -1.11100
| 32>    C       -6.13200        -3.54200        -1.07600
| 33>    C       -7.65100        -5.11300         0.04000
| 34>    C       -4.32400         0.14100         0.03700
| 35>    C       -3.02500        -0.52000        -0.04800
| 36>    C       -4.42200        -3.56600         1.07500
| 37>    N       -6.40700        -4.31300         0.00100
| 38>    C       -2.86700        -1.92200        -0.04000
| 39>    C       -1.65000        -2.62400        -0.02700
| 40>    C        3.56800        -6.14200        -1.04000
| 41>    C       -1.47600        -4.04900        -0.03400
| 42>    C        2.80300        -4.09900        -0.00800
| 43>    C        3.65700        -4.38400         1.06900
| 44>    C        4.42700        -5.53000         1.05900
| 45>    C        5.24500        -7.58800         0.01400
| 46>    C       -0.13400        -4.31500        -0.02200
| 47>    C        0.56800        -3.06400        -0.02700
| 48>    C        2.77500        -5.01200        -1.07400
| 49>    N        4.37600        -6.39100         0.01700
| 50>    C        1.95900        -2.86900        -0.00900
| 51>    C        2.62100        -1.62200         0.00900
| 52>    C        5.54300         4.33900        -1.13000
| 53>    C        4.07000        -1.47900        -0.09400
| 54>    C        4.10400         2.75100        -0.02100
| 55>    C        5.02700         2.72900         1.03600
| 56>    C        6.16600         3.50900         0.97800
| 57>    C        7.61900         5.15300        -0.11500
| 58>    C        4.32100        -0.14800        -0.09200
| 59>    C        3.02500         0.51400         0.01500
| 60>    C        4.38700         3.58200        -1.11500
| 61>    C        2.86600         1.91600         0.01300
| 62>    N        6.41300         4.29600        -0.09500
| 63>    H       -5.41700         5.56700         1.67200
| 64>    H        2.27400         4.76600         0.08100
| 65>    H       -1.80200         5.06700        -1.61400
| 66>    H       -3.25000         7.09000        -1.52200
| 67>    H       -4.66400         8.36700         0.72300
| 68>    H       -5.29600         7.99600        -0.90900
| 69>    H       -6.15500         7.39700         0.53800
| 70>    H       -0.33200         5.28200         0.06900
| 71>    H       -4.05700         3.48500         1.71400
| 72>    H        0.18200         1.07200         0.00500
| 73>    H       -0.18300        -1.08000        -0.02100
| 74>    H       -5.86400        -4.96200         1.89500
| 75>    H       -4.79400         2.27200         0.13900
| 76>    H       -4.80000        -2.16000        -1.99400
| 77>    H       -6.84100        -3.58200        -1.89300
| 78>    H       -8.42800        -4.53600         0.54600
| 79>    H       -7.95600        -5.33700        -0.98100
| 80>    H       -7.45600        -6.03700         0.58400
| 81>    H       -5.28700        -0.34400         0.10000
| 82>    H       -3.78000        -3.60100         1.94700
| 83>    H        3.58700        -6.86800        -1.84300
| 84>    H       -2.27600        -4.77400        -0.05000
| 85>    H        3.71400        -3.72400         1.92600
| 86>    H        5.09200        -5.79500         1.87100
| 87>    H        6.20500        -7.32900        -0.43900
| 88>    H        5.39300        -7.91700         1.04200
| 89>    H        4.75900        -8.37300        -0.56400
| 90>    H        0.32900        -5.29000        -0.00800
| 91>    H        2.14600        -4.84200        -1.94000
| 92>    H        5.80800         4.98600        -1.95600
| 93>    H        4.78800        -2.28100        -0.18500
| 94>    H        4.86000         2.11400         1.91200
| 95>    H        6.90100         3.53100         1.77200
| 96>    H        7.38300         6.10900         0.35600
| 97>    H        8.41400         4.65200         0.43500
| 98>    H        7.92100         5.31000        -1.15000
| 99>    H        5.28300         0.33600        -0.17900
|100>    H        3.72000         3.63200        -1.96700
|101> *
|102> 
|103>                          ****END OF INPUT****
================================================================================

                       ****************************
                       * Single Point Calculation *
                       ****************************

---------------------------------
CARTESIAN COORDINATES (ANGSTROEM)
---------------------------------
  C     -4.603000    5.404000    0.977000
  C      1.474000    4.041000    0.057000
  C     -2.802000    4.093000    0.049000
  C     -2.590000    5.130000   -0.872000
  C     -3.381000    6.261000   -0.838000
  C     -5.179000    7.625000    0.109000
  C      0.132000    4.307000    0.061000
  C     -0.569000    3.056000    0.047000
  C      1.649000    2.618000    0.023000
  C     -3.834000    4.257000    0.986000
  N     -4.373000    6.385000    0.074000
  N      0.388000    2.067000    0.025000
  N     -2.010000    0.395000   -0.075000
  N     -0.388000   -2.074000   -0.027000
  N      2.010000   -0.401000    0.065000
  C     -1.960000    2.861000    0.024000
  C     -2.623000    1.615000   -0.018000
  C     -5.573000   -4.329000    1.066000
  C     -4.073000    1.471000    0.056000
  C     -4.106000   -2.756000   -0.026000
  C     -4.995000   -2.757000   -1.111000
  C     -6.132000   -3.542000   -1.076000
  C     -7.651000   -5.113000    0.040000
  C     -4.324000    0.141000    0.037000
  C     -3.025000   -0.520000   -0.048000
  C     -4.422000   -3.566000    1.075000
  N     -6.407000   -4.313000    0.001000
  C     -2.867000   -1.922000   -0.040000
  C     -1.650000   -2.624000   -0.027000
  C      3.568000   -6.142000   -1.040000
  C     -1.476000   -4.049000   -0.034000
  C      2.803000   -4.099000   -0.008000
  C      3.657000   -4.384000    1.069000
  C      4.427000   -5.530000    1.059000
  C      5.245000   -7.588000    0.014000
  C     -0.134000   -4.315000   -0.022000
  C      0.568000   -3.064000   -0.027000
  C      2.775000   -5.012000   -1.074000
  N      4.376000   -6.391000    0.017000
  C      1.959000   -2.869000   -0.009000
  C      2.621000   -1.622000    0.009000
  C      5.543000    4.339000   -1.130000
  C      4.070000   -1.479000   -0.094000
  C      4.104000    2.751000   -0.021000
  C      5.027000    2.729000    1.036000
  C      6.166000    3.509000    0.978000
  C      7.619000    5.153000   -0.115000
  C      4.321000   -0.148000   -0.092000
  C      3.025000    0.514000    0.015000
  C      4.387000    3.582000   -1.115000
  C      2.866000    1.916000    0.013000
  N      6.413000    4.296000   -0.095000
  H     -5.417000    5.567000    1.672000
  H      2.274000    4.766000    0.081000
  H     -1.802000    5.067000   -1.614000
  H     -3.250000    7.090000   -1.522000
  H     -4.664000    8.367000    0.723000
  H     -5.296000    7.996000   -0.909000
  H     -6.155000    7.397000    0.538000
  H     -0.332000    5.282000    0.069000
  H     -4.057000    3.485000    1.714000
  H      0.182000    1.072000    0.005000
  H     -0.183000   -1.080000   -0.021000
  H     -5.864000   -4.962000    1.895000
  H     -4.794000    2.272000    0.139000
  H     -4.800000   -2.160000   -1.994000
  H     -6.841000   -3.582000   -1.893000
  H     -8.428000   -4.536000    0.546000
  H     -7.956000   -5.337000   -0.981000
  H     -7.456000   -6.037000    0.584000
  H     -5.287000   -0.344000    0.100000
  H     -3.780000   -3.601000    1.947000
  H      3.587000   -6.868000   -1.843000
  H     -2.276000   -4.774000   -0.050000
  H      3.714000   -3.724000    1.926000
  H      5.092000   -5.795000    1.871000
  H      6.205000   -7.329000   -0.439000
  H      5.393000   -7.917000    1.042000
  H      4.759000   -8.373000   -0.564000
  H      0.329000   -5.290000   -0.008000
  H      2.146000   -4.842000   -1.940000
  H      5.808000    4.986000   -1.956000
  H      4.788000   -2.281000   -0.185000
  H      4.860000    2.114000    1.912000
  H      6.901000    3.531000    1.772000
  H      7.383000    6.109000    0.356000
  H      8.414000    4.652000    0.435000
  H      7.921000    5.310000   -1.150000
  H      5.283000    0.336000   -0.179000
  H      3.720000    3.632000   -1.967000

----------------------------
CARTESIAN COORDINATES (A.U.)
----------------------------
  NO LB      ZA    FRAG     MASS         X           Y           Z
   0 C     6.0000    0    12.011   -8.698409   10.212080    1.846262
   1 C     6.0000    0    12.011    2.785456    7.636383    0.107714
   2 C     6.0000    0    12.011   -5.295013    7.734649    0.092597
   3 C     6.0000    0    12.011   -4.894391    9.694295   -1.647841
   4 C     6.0000    0    12.011   -6.389164   11.831575   -1.583591
   5 C     6.0000    0    12.011   -9.786892   14.409162    0.205980
   6 C     6.0000    0    12.011    0.249444    8.139050    0.115273
   7 C     6.0000    0    12.011   -1.075254    5.775003    0.088817
   8 C     6.0000    0    12.011    3.116158    4.947303    0.043464
   9 C     6.0000    0    12.011   -7.245210    8.044564    1.863270
  10 N     7.0000    0    14.007   -8.263772   12.065901    0.139840
  11 N     7.0000    0    14.007    0.733214    3.906064    0.047243
  12 N     7.0000    0    14.007   -3.798350    0.746442   -0.141729
  13 N     7.0000    0    14.007   -0.733214   -3.919292   -0.051023
  14 N     7.0000    0    14.007    3.798350   -0.757780    0.122832
  15 C     6.0000    0    12.011   -3.703863    5.406506    0.045353
  16 C     6.0000    0    12.011   -4.956752    3.051908   -0.034015
  17 C     6.0000    0    12.011  -10.531444   -8.180624    2.014448
  18 C     6.0000    0    12.011   -7.696855    2.779787    0.105825
  19 C     6.0000    0    12.011   -7.759216   -5.208085   -0.049133
  20 C     6.0000    0    12.011   -9.439182   -5.209975   -2.099486
  21 C     6.0000    0    12.011  -11.587801   -6.693410   -2.033345
  22 C     6.0000    0    12.011  -14.458295   -9.662170    0.075589
  23 C     6.0000    0    12.011   -8.171176    0.266451    0.069920
  24 C     6.0000    0    12.011   -5.716422   -0.982658   -0.090707
  25 C     6.0000    0    12.011   -8.356369   -6.738763    2.031456
  26 N     7.0000    0    14.007  -12.107475   -8.150389    0.001890
  27 C     6.0000    0    12.011   -5.417845   -3.632054   -0.075589
  28 C     6.0000    0    12.011   -3.118048   -4.958641   -0.051023
  29 C     6.0000    0    12.011    6.742543  -11.606698   -1.965315
  30 C     6.0000    0    12.011   -2.789236   -7.651501   -0.064251
  31 C     6.0000    0    12.011    5.296902   -7.745987   -0.015118
  32 C     6.0000    0    12.011    6.910728   -8.284559    2.020117
  33 C     6.0000    0    12.011    8.365818  -10.450186    2.001220
  34 C     6.0000    0    12.011    9.911614  -14.339242    0.026456
  35 C     6.0000    0    12.011   -0.253223   -8.154168   -0.041574
  36 C     6.0000    0    12.011    1.073364   -5.790121   -0.051023
  37 C     6.0000    0    12.011    5.243990   -9.471307   -2.029566
  38 N     7.0000    0    14.007    8.269442  -12.077240    0.032125
  39 C     6.0000    0    12.011    3.701973   -5.421624   -0.017008
  40 C     6.0000    0    12.011    4.952972   -3.065136    0.017008
  41 C     6.0000    0    12.011   10.474752    8.199522   -2.135391
  42 C     6.0000    0    12.011    7.691185   -2.794905   -0.177634
  43 C     6.0000    0    12.011    7.755436    5.198637   -0.039684
  44 C     6.0000    0    12.011    9.499653    5.157063    1.957756
  45 C     6.0000    0    12.011   11.652051    6.631049    1.848152
  46 C     6.0000    0    12.011   14.397823    9.737759   -0.217319
  47 C     6.0000    0    12.011    8.165507   -0.279679   -0.173855
  48 C     6.0000    0    12.011    5.716422    0.971319    0.028346
  49 C     6.0000    0    12.011    8.290229    6.768999   -2.107045
  50 C     6.0000    0    12.011    5.415955    3.620715    0.024566
  51 N     7.0000    0    14.007   12.118814    8.118263   -0.179524
  52 H     1.0000    0     1.008  -10.236646   10.520105    3.159622
  53 H     1.0000    0     1.008    4.297237    9.006435    0.153068
  54 H     1.0000    0     1.008   -3.405286    9.575242   -3.050018
  55 H     1.0000    0     1.008   -6.141610   13.398158   -2.876163
  56 H     1.0000    0     1.008   -8.813683   15.811339    1.366272
  57 H     1.0000    0     1.008  -10.007990   15.110250   -1.717761
  58 H     1.0000    0     1.008  -11.631264   13.978304    1.016673
  59 H     1.0000    0     1.008   -0.627389    9.981533    0.130391
  60 H     1.0000    0     1.008   -7.666619    6.585696    3.238991
  61 H     1.0000    0     1.008    0.343930    2.025786    0.009449
  62 H     1.0000    0     1.008   -0.345820   -2.040904   -0.039684
  63 H     1.0000    0     1.008  -11.081354   -9.376821    3.581031
  64 H     1.0000    0     1.008   -9.059347    4.293458    0.262672
  65 H     1.0000    0     1.008   -9.070685   -4.081808   -3.768114
  66 H     1.0000    0     1.008  -12.927616   -6.768999   -3.577252
  67 H     1.0000    0     1.008  -15.926612   -8.571798    1.031790
  68 H     1.0000    0     1.008  -15.034661  -10.085468   -1.853821
  69 H     1.0000    0     1.008  -14.089798  -11.408277    1.103600
  70 H     1.0000    0     1.008   -9.990982   -0.650066    0.188973
  71 H     1.0000    0     1.008   -7.143165   -6.804904    3.679297
  72 H     1.0000    0     1.008    6.778448  -12.978639   -3.482765
  73 H     1.0000    0     1.008   -4.301017   -9.021553   -0.094486
  74 H     1.0000    0     1.008    7.018443   -7.037340    3.639613
  75 H     1.0000    0     1.008    9.622485  -10.950963    3.535678
  76 H     1.0000    0     1.008   11.725751  -13.849803   -0.829590
  77 H     1.0000    0     1.008   10.191293  -14.960962    1.969095
  78 H     1.0000    0     1.008    8.993207  -15.822677   -1.065806
  79 H     1.0000    0     1.008    0.621720   -9.996651   -0.015118
  80 H     1.0000    0     1.008    4.055352   -9.150054   -3.666069
  81 H     1.0000    0     1.008   10.975529    9.422175   -3.696304
  82 H     1.0000    0     1.008    9.048009   -4.310465   -0.349599
  83 H     1.0000    0     1.008    9.184069    3.994881    3.613156
  84 H     1.0000    0     1.008   13.041000    6.672623    3.348595
  85 H     1.0000    0     1.008   13.951848   11.544337    0.672743
  86 H     1.0000    0     1.008   15.900156    8.791006    0.822031
  87 H     1.0000    0     1.008   14.968521   10.034446   -2.173185
  88 H     1.0000    0     1.008    9.983423    0.634948   -0.338261
  89 H     1.0000    0     1.008    7.029781    6.863485   -3.717091

--------------------------------
INTERNAL COORDINATES (ANGSTROEM)
--------------------------------
 C      0   0   0     0.000000000000     0.00000000     0.00000000
 C      1   0   0     6.295561770009     0.00000000     0.00000000
 C      1   2   0     2.413194148841    26.59183132     0.00000000
 C      3   1   2     1.403051674031    87.91799336   284.79732166
 C      4   3   1     1.380578864100   120.18218949     0.14428364
 C      5   4   3     2.447469918099   152.49841023     1.55738794
 C      2   1   3     1.368114030335     8.35784104    45.13146144
 C      7   2   3     1.434084376876   108.05010202     0.84668783
 C      2   1   3     1.434123425651   109.63800910   323.45626155
 C      1   2   7     1.380960173213    44.24223455    89.38484861
 N      1   2   7     1.353022542310    83.99330628   301.62791333
 N      9   2   1     1.376127174356   106.58526707     7.94652243
 N     12   9   2     2.925062050624   168.53581413   171.12065651
 N     13  12   9     2.954513327098    91.55032014    11.12112580
 N     14  13  12     2.925371258490    88.43092389   359.84326247
 C      8   7   2     1.404790019896   127.24786865   181.11170171
 C     13  12   9     1.366535034311    81.72106996   188.00453233
 C     14  13  12     5.758810554272    80.56209567   166.76250791
 C     17  13  12     1.459010623676   111.08861209   183.82872609
 C     18  14  13     2.412235892279    27.27532823    36.33507194
 C     20  18  14     1.402692767501    87.95206320   148.94598259
 C     21  20  18     1.382106725257   120.14573887   359.70382047
 C     18  14  13     2.446510985056   144.15733107    82.80075377
 C     19  17  13     1.353610726908   106.29293361   359.75308708
 C     13  12   9     1.366813447402   172.21332906    33.46711076
 C     18  14  13     1.380960173213    15.08449437   309.23336894
 N     22  21  20     1.352773077792   120.73759875     0.27865223
 C     25  13  17     1.410897586645   125.60330303   182.37774668
 C     14  13  12     1.376642291955    80.24689249   177.85461986
 C     14  13  12     5.764089607215   164.51507311   312.20821879
 C     29  14  13     1.435600919476   106.58649366   178.76395472
 C     30  14  13     2.413316804732    27.10625047    82.12560436
 C     32  30  14     1.403734305344    87.90059683   149.76154742
 C     33  32  30     1.380694028378   120.14881443   359.74174632
 C     34  33  32     2.448777858443   152.49203239     2.45173620
 C     31  29  14     1.368160809262   108.16950133     0.70383075
 C     14  13  12     1.376239804685   169.26375223   353.09862627
 C     30  14  13     1.380907310430    14.68948582   353.70041132
 N     34  33  32     1.352658863128   120.85575621     0.19603406
 C     37  14  29     1.404717053360   126.01551127   180.90772073
 C     15  14  13     1.366491126938    81.61824056   183.09049352
 C      2   1   3     4.249062720177   161.80824228   117.95375290
 C     41  15  14     1.459677704153   111.05201287   175.08990246
 C     42   2   1     2.412953791518    41.78584867   180.31563883
 C     44  42   2     1.403446472082    87.95153797   233.97558675
 C     45  44  42     1.381696421071   120.11137308     0.19721020
 C     42   2   1     2.450019795838   135.97209175    90.63048793
 C     43  41  15     1.354461516618   106.26758155     0.30894352
 C     15  14  13     1.367461151185   171.87382904   332.35056460
 C     42   2   1     1.381886391857    32.59078432   229.17091802
 C      9   2   1     1.404988612053   126.98745415   188.95085996
 N     42   2   1     1.352765315936   113.57249190   118.36707713
 H      1   2   7     1.082677237223   148.44533131   168.18127417
 H      2   1   3     1.079907866440   124.50573135   152.41944794
 H      4   3   1     1.084194170802   121.07214220   179.53210668
 H      5   4   3     1.082708640401   122.84541726   179.47452226
 H      6   5   4     1.092146968132   104.46260910   100.14019223
 H      6   5   4     1.089795393640    84.67278783   209.60715516
 H      6   5   4     1.090229792292   133.89736861   322.42875961
 H      7   2  54     1.079807853278   126.66122480     1.30600390
 H     10   1   2     1.084295623896   118.76446013   142.81106699
 H     12   9   2     1.016297692608   125.29023241   180.00180175
 H     14  13  12     1.014936943854    44.97226959   359.42596618
 H     18  14  13     1.082871645210   128.03556573   234.20482432
 H     19  17  13     1.080893611786   126.41830519   178.11313280
 H     21  20  18     1.083569563987   121.05669627   180.67006309
 H     22  21  20     1.082483256222   122.73097286   180.59748951
 H     23  18  14     1.092105306278   103.92715769   234.93429879
 H     23  18  14     1.088871893291   134.19244188    12.25587044
 H     23  18  14     1.089833473518    84.85857450   125.45241208
 H     24  19  17     1.080075460327   127.28078426   178.44613241
 H     26  18  14     1.083408048706   118.76995697   244.94906660
 H     30  14  13     1.082703098730   127.99711412   279.66882698
 H     31  29  14     1.079759695488   125.22293469   180.92530585
 H     33  32  30     1.083188810873   121.01964473   180.74284758
 H     34  33  32     1.082494341787   122.70821597   180.59516895
 H     35  34  33     1.092652735319   105.73575241    97.19771933
 H     35  34  33     1.089462711615    84.05943581   206.43036958
 H     35  34  33     1.089268102902   133.08365142   318.50306270
 H     36  31  29     1.079439669458   126.61599965   178.98859863
 H     38  30  73     1.083742127999   118.77264435   359.90091293
 H     42   2   1     1.082178358682   119.31790784   334.99860758
 H     43  41  15     1.080281907652   126.36969097   182.06329380
 H     45  44  42     1.083277434455   121.10105945   179.58025624
 H     46  45  44     1.082194529648   122.72144639   179.46906377
 H     47  42   2     1.091546151109   106.65128841   315.16475048
 H     47  42   2     1.088818625851   132.46019523    94.52397119
 H     47  42   2     1.089531091801    83.63838232   206.04504406
 H     48  43  41     1.080402239909   127.23657387   181.62955349
 H     50  42   2     1.083186502870   118.77001737    94.71359229

---------------------------
INTERNAL COORDINATES (A.U.)
---------------------------
 C      0   0   0     0.000000000000     0.00000000     0.00000000
 C      1   0   0    11.896887604502     0.00000000     0.00000000
 C      1   2   0     4.560276049291    26.59183132     0.00000000
 C      3   1   2     2.651383415658    87.91799336   284.79732166
 C      4   3   1     2.608915959429   120.18218949     0.14428364
 C      5   4   3     4.625047866218   152.49841023     1.55738794
 C      2   1   3     2.585360837309     8.35784104    45.13146144
 C      7   2   3     2.710026725231   108.05010202     0.84668783
 C      2   1   3     2.710100516721   109.63800910   323.45626155
 C      1   2   7     2.609636529225    44.24223455    89.38484861
 N      1   2   7     2.556842057988    83.99330628   301.62791333
 N      9   2   1     2.600503484979   106.58526707     7.94652243
 N     12   9   2     5.527566200405   168.53581413   171.12065651
 N     13  12   9     5.583221047236    91.55032014    11.12112580
 N     14  13  12     5.528150518591    88.43092389   359.84326247
 C      8   7   2     2.654668413270   127.24786865   181.11170171
 C     13  12   9     2.582376967257    81.72106996   188.00453233
 C     14  13  12    10.882574804710    80.56209567   166.76250791
 C     17  13  12     2.757130505230   111.08861209   183.82872609
 C     18  14  13     4.558465206823    27.27532823    36.33507194
 C     20  18  14     2.650705180609    87.95206320   148.94598259
 C     21  20  18     2.611803198586   120.14573887   359.70382047
 C     18  14  13     4.623235745386   144.15733107    82.80075377
 C     19  17  13     2.557953565794   106.29293361   359.75308708
 C     13  12   9     2.582903091751   172.21332906    33.46711076
 C     18  14  13     2.609636529225    15.08449437   309.23336894
 N     22  21  20     2.556370638369   120.73759875     0.27865223
 C     25  13  17     2.666210041769   125.60330303   182.37774668
 C     14  13  12     2.601476916169    80.24689249   177.85461986
 C     14  13  12    10.892550769017   164.51507311   312.20821879
 C     29  14  13     2.712892575415   106.58649366   178.76395472
 C     30  14  13     4.560507835333    27.10625047    82.12560436
 C     32  30  14     2.652673401891    87.90059683   149.76154742
 C     33  32  30     2.609133588376   120.14881443   359.74174632
 C     34  33  32     4.627519515267   152.49203239     2.45173620
 C     31  29  14     2.585449236669   108.16950133     0.70383075
 C     14  13  12     2.600716325456   169.26375223   353.09862627
 C     30  14  13     2.609536633043    14.68948582   353.70041132
 N     34  33  32     2.556154803934   120.85575621     0.19603406
 C     37  14  29     2.654530526499   126.01551127   180.90772073
 C     15  14  13     2.582293994346    81.61824056   183.09049352
 C      2   1   3     8.029564866989   161.80824228   117.95375290
 C     41  15  14     2.758391104639   111.05201287   175.08990246
 C     42   2   1     4.559821839776    41.78584867   180.31563883
 C     44  42   2     2.652129475853    87.95153797   233.97558675
 C     45  44  42     2.611027836043   120.11137308     0.19721020
 C     42   2   1     4.629866436820   135.97209175    90.63048793
 C     43  41  15     2.559561325344   106.26758155     0.30894352
 C     15  14  13     2.584127074516   171.87382904   332.35056460
 C     42   2   1     2.611386828803    32.59078432   229.17091802
 C      9   2   1     2.655043698059   126.98745415   188.95085996
 N     42   2   1     2.556355970587   113.57249190   118.36707713
 H      1   2   7     2.045963469781   148.44533131   168.18127417
 H      2   1   3     2.040730117440   124.50573135   152.41944794
 H      4   3   1     2.048830058809   121.07214220   179.53210668
 H      5   4   3     2.046022813189   122.84541726   179.47452226
 H      6   5   4     2.063858667762   104.46260910   100.14019223
 H      6   5   4     2.059414835989    84.67278783   209.60715516
 H      6   5   4     2.060235730473   133.89736861   322.42875961
 H      7   2  54     2.040541119952   126.66122480     1.30600390
 H     10   1   2     2.049021777373   118.76446013   142.81106699
 H     12   9   2     1.920524309565   125.29023241   180.00180175
 H     14  13  12     1.917952867083    44.97226959   359.42596618
 H     18  14  13     2.046330847636   128.03556573   234.20482432
 H     19  17  13     2.042592906181   126.41830519   178.11313280
 H     21  20  18     2.047649722989   121.05669627   180.67006309
 H     22  21  20     2.045596898814   122.73097286   180.59748951
 H     23  18  14     2.063779938267   103.92715769   234.93429879
 H     23  18  14     2.057669673245   134.19244188    12.25587044
 H     23  18  14     2.059486796529    84.85857450   125.45241208
 H     24  19  17     2.041046823986   127.28078426   178.44613241
 H     26  18  14     2.047344503340   118.76995697   244.94906660
 H     30  14  13     2.046012340948   127.99711412   279.66882698
 H     31  29  14     2.040450114918   125.22293469   180.92530585
 H     33  32  30     2.046930203877   121.01964473   180.74284758
 H     34  33  32     2.045617847496   122.70821597   180.59516895
 H     35  34  33     2.064814429233   105.73575241    97.19771933
 H     35  34  33     2.058786158072    84.05943581   206.43036958
 H     35  34  33     2.058418400901   133.08365142   318.50306270
 H     36  31  29     2.039845353366   126.61599965   178.98859863
 H     38  30  73     2.047975821711   118.77264435   359.90091293
 H     42   2   1     2.045020725966   119.31790784   334.99860758
 H     43  41  15     2.041436952892   126.36969097   182.06329380
 H     45  44  42     2.047097678177   121.10105945   179.58025624
 H     46  45  44     2.045051284662   122.72144639   179.46906377
 H     47  42   2     2.062723288131   106.65128841   315.16475048
 H     47  42   2     2.057569012371   132.46019523    94.52397119
 H     47  42   2     2.058915377895    83.63838232   206.04504406
 H     48  43  41     2.041664347903   127.23657387   181.62955349
 H     50  42   2     2.046925842384   118.77001737    94.71359229

---------------------
BASIS SET INFORMATION
---------------------
There are 3 groups of distinct atoms

 Group   1 Type C   : 17s4p1d contracted to 3s2p1d pattern {881/31/1}
 Group   2 Type N   : 17s4p1d contracted to 3s2p1d pattern {881/31/1}
 Group   3 Type H   : 4s1p contracted to 2s1p pattern {31/1}

Atom   0C    basis set group =>   1
Atom   1N    basis set group =>   2
Atom   2C    basis set group =>   1
Atom   3N    basis set group =>   2
Atom   4C    basis set group =>   1
Atom   5N    basis set group =>   2
Atom   6C    basis set group =>   1
Atom   7N    basis set group =>   2
Atom   8C    basis set group =>   1
Atom   9N    basis set group =>   2
Atom  10C    basis set group =>   1
Atom  11N    basis set group =>   2
Atom  12C    basis set group =>   1
Atom  13N    basis set group =>   2
Atom  14C    basis set group =>   1
Atom  15N    basis set group =>   2
Atom  16C    basis set group =>   1
Atom  17C    basis set group =>   1
Atom  18C    basis set group =>   1
Atom  19C    basis set group =>   1
Atom  20C    basis set group =>   1
Atom  21C    basis set group =>   1
Atom  22C    basis set group =>   1
Atom  23C    basis set group =>   1
Atom  24C    basis set group =>   1
Atom  25C    basis set group =>   1
Atom  26C    basis set group =>   1
Atom  27C    basis set group =>   1
Atom  28C    basis set group =>   1
Atom  29C    basis set group =>   1
Atom  30C    basis set group =>   1
Atom  31C    basis set group =>   1
Atom  32C    basis set group =>   1
Atom  33C    basis set group =>   1
Atom  34C    basis set group =>   1
Atom  35C    basis set group =>   1
Atom  36C    basis set group =>   1
Atom  37C    basis set group =>   1
Atom  38C    basis set group =>   1
Atom  39C    basis set group =>   1
Atom  40C    basis set group =>   1
Atom  41C    basis set group =>   1
Atom  42C    basis set group =>   1
Atom  43C    basis set group =>   1
Atom  44C    basis set group =>   1
Atom  45C    basis set group =>   1
Atom  46C    basis set group =>   1
Atom  47C    basis set group =>   1
Atom  48C    basis set group =>   1
Atom  49C    basis set group =>   1
Atom  50C    basis set group =>   1
Atom  51C    basis set group =>   1
Atom  52H    basis set group =>   3
Atom  53H    basis set group =>   3
Atom  54H    basis set group =>   3
Atom  55H    basis set group =>   3
Atom  56H    basis set group =>   3
Atom  57H    basis set group =>   3
Atom  58H    basis set group =>   3
Atom  59H    basis set group =>   3
Atom  60H    basis set group =>   3
Atom  61H    basis set group =>   3
Atom  62H    basis set group =>   3
Atom  63H    basis set group =>   3
Atom  64H    basis set group =>   3
Atom  65H    basis set group =>   3
Atom  66H    basis set group =>   3
Atom  67H    basis set group =>   3
Atom  68H    basis set group =>   3
Atom  69H    basis set group =>   3
Atom  70H    basis set group =>   3
Atom  71H    basis set group =>   3
Atom  72H    basis set group =>   3
Atom  73H    basis set group =>   3
Atom  74H    basis set group =>   3
Atom  75H    basis set group =>   3
Atom  76H    basis set group =>   3
Atom  77H    basis set group =>   3
Atom  78H    basis set group =>   3
Atom  79H    basis set group =>   3
Atom  80H    basis set group =>   3
Atom  81H    basis set group =>   3
Atom  82H    basis set group =>   3
Atom  83H    basis set group =>   3
Atom  84H    basis set group =>   3
Atom  85H    basis set group =>   3
Atom  86H    basis set group =>   3
Atom  87H    basis set group =>   3
Atom  88H    basis set group =>   3
Atom  89H    basis set group =>   3


           ************************************************************
           *        Program running with 16 parallel MPI-processes    *
           *              working on a common directory               *
           ************************************************************
------------------------------------------------------------------------------
                           ORCA GTO INTEGRAL CALCULATION
------------------------------------------------------------------------------
------------------------------------------------------------------------------
                   ___                                                        
                  /   \      - P O W E R E D   B Y -                         
                 /     \                                                     
                 |  |  |   _    _      __       _____    __    __             
                 |  |  |  | |  | |    /  \     |  _  \  |  |  /  |          
                  \  \/   | |  | |   /    \    | | | |  |  | /  /          
                 / \  \   | |__| |  /  /\  \   | |_| |  |  |/  /          
                |  |  |   |  __  | /  /__\  \  |    /   |      \           
                |  |  |   | |  | | |   __   |  |    \   |  |\   \          
                \     /   | |  | | |  |  |  |  | |\  \  |  | \   \       
                 \___/    |_|  |_| |__|  |__|  |_| \__\ |__|  \__/        
                                                                              
                      - O R C A' S   B I G   F R I E N D -                    
                                      &                                       
                       - I N T E G R A L  F E E D E R -                       
                                                                              
 v1 FN, 2020, v2 2021                                                         
------------------------------------------------------------------------------


Reading SHARK input file /scratch/allen/tmpyp4_amber_gaff2/conf1/conf1/Conf233.orca.SHARKINP.tmp ... ok
----------------------
SHARK INTEGRAL PACKAGE
----------------------

Number of atoms                             ...     90
Number of basis functions                   ...   1230
Number of shells                            ...    738
Maximum angular momentum                    ...      2
Integral batch strategy                     ... SHARK/LIBINT Hybrid
RI-J (if used) integral strategy            ... SPLIT-RIJ (Revised 2003 algorithm where possible)
Printlevel                                  ...      1
Contraction scheme used                     ... PARTIAL GENERAL contraction
Coulomb Range Separation                    ... NOT USED
Exchange Range Separation                   ... NOT USED
Finite Nucleus Model                        ... NOT USED
Auxiliary Coulomb fitting basis             ... NOT available
Auxiliary J/K fitting basis                 ... NOT available
Auxiliary Correlation fitting basis         ... NOT available
Auxiliary 'external' fitting basis          ... NOT available
Integral threshold                          ...     2.500000e-11
Primitive cut-off                           ...     2.500000e-12
Primitive pair pre-selection threshold      ...     2.500000e-12

Calculating pre-screening integrals         ... done (  0.1 sec) Dimension = 738
Calculating pre-screening integrals (ORCA)  ... done (  0.3 sec) Dimension = 426
Organizing shell pair data                  ... done (  0.7 sec)
Shell pair information
Total number of shell pairs                 ...    272691
Shell pairs after pre-screening             ...     71611
Total number of primitive shell pairs       ...    422091
Primitive shell pairs kept                  ...     92397
          la=0 lb=0:  29419 shell pairs
          la=1 lb=0:  25966 shell pairs
          la=1 lb=1:   4702 shell pairs
          la=2 lb=0:   7869 shell pairs
          la=2 lb=1:   3124 shell pairs
          la=2 lb=2:    531 shell pairs

Calculating one electron integrals          ... done (  0.2 sec)
Calculating Nuclear repulsion               ... done (  0.0 sec) ENN=   6226.635010914324 Eh

SHARK setup successfully completed in   2.2 seconds

Maximum memory used throughout the entire GTOINT-calculation: 98.9 MB


           ************************************************************
           *        Program running with 16 parallel MPI-processes    *
           *              working on a common directory               *
           ************************************************************
-------------------------------------------------------------------------------
                                 ORCA SCF
-------------------------------------------------------------------------------

------------
SCF SETTINGS
------------
Hamiltonian:
 Ab initio Hamiltonian  Method          .... Hartree-Fock(GTOs)


General Settings:
 Integral files         IntName         .... /scratch/allen/tmpyp4_amber_gaff2/conf1/conf1/Conf233.orca
 Hartree-Fock type      HFTyp           .... RHF
 Total Charge           Charge          ....    0
 Multiplicity           Mult            ....    1
 Number of Electrons    NEL             ....  358
 Basis Dimension        Dim             ....  918
 Nuclear Repulsion      ENuc            ....   6226.6350109143 Eh

Convergence Acceleration:
 DIIS                   CNVDIIS         .... on
   Start iteration      DIISMaxIt       ....    12
   Startup error        DIISStart       ....  0.200000
   # of expansion vecs  DIISMaxEq       ....     5
   Bias factor          DIISBfac        ....   1.050
   Max. coefficient     DIISMaxC        ....  10.000
 Trust-Rad. Augm. Hess. CNVTRAH         .... auto
   Auto Start mean grad. ratio tolernc. ....  1.125000
   Auto Start start iteration           ....    20
   Auto Start num. interpolation iter.  ....    10
   Max. Number of Micro iterations      ....    16
   Max. Number of Macro iterations      .... Maxiter - #DIIS iter
   Number of Davidson start vectors     ....     2
   Converg. threshold I  (grad. norm)   ....   1.000e-05
   Converg. threshold II (energy diff.) ....   1.000e-08
   Grad. Scal. Fac. for Micro threshold ....   0.100
   Minimum threshold for Micro iter.    ....   0.010
   NR start threshold (gradient norm)   ....   0.001
   Initial trust radius                 ....   0.400
   Minimum AH scaling param. (alpha)    ....   1.000
   Maximum AH scaling param. (alpha)    .... 1000.000
   Orbital update algorithm             .... Taylor
   White noise on init. David. guess    .... on
   Maximum white noise                  ....   0.010
   Quad. conv. algorithm                .... NR
 SOSCF                  CNVSOSCF        .... on
   Start iteration      SOSCFMaxIt      ....   150
   Startup grad/error   SOSCFStart      ....  0.003300
 Level Shifting         CNVShift        .... on
   Level shift para.    LevelShift      ....    0.2500
   Turn off err/grad.   ShiftErr        ....    0.0010
 Zerner damping         CNVZerner       .... off
 Static damping         CNVDamp         .... on
   Fraction old density DampFac         ....    0.7000
   Max. Damping (<1)    DampMax         ....    0.9800
   Min. Damping (>=0)   DampMin         ....    0.0000
   Turn off err/grad.   DampErr         ....    0.1000
 Fernandez-Rico         CNVRico         .... off

SCF Procedure:
 Maximum # iterations   MaxIter         ....   125
 SCF integral mode      SCFMode         .... Direct
   Integral package                     .... SHARK and LIBINT hybrid scheme
 Reset frequency        DirectResetFreq ....    20
 Integral Threshold     Thresh          ....  2.500e-11 Eh
 Primitive CutOff       TCut            ....  2.500e-12 Eh

Convergence Tolerance:
 Convergence Check Mode ConvCheckMode   .... Total+1el-Energy
 Convergence forced     ConvForced      .... 1
 Energy Change          TolE            ....  1.000e-08 Eh
 1-El. energy change                    ....  1.000e-05 Eh
 Orbital Gradient       TolG            ....  1.000e-05
 Orbital Rotation angle TolX            ....  1.000e-05
 DIIS Error             TolErr          ....  5.000e-07


Diagonalization of the overlap matrix:
Smallest eigenvalue                        ... 2.242e-04
Time for diagonalization                   ...    0.436 sec
Threshold for overlap eigenvalues          ... 1.000e-08
Number of eigenvalues below threshold      ... 0
Time for construction of square roots      ...    0.269 sec
Total time needed                          ...    0.711 sec

Time for model grid setup =    1.298 sec

------------------------------
INITIAL GUESS: MODEL POTENTIAL
------------------------------
Loading Hartree-Fock densities                     ... done
Calculating cut-offs                               ... done
Initializing the effective Hamiltonian             ... done
Setting up the integral package (SHARK)            ... done
Starting the Coulomb interaction                   ... done (   1.4 sec)
Reading the grid                                   ... done
Mapping shells                                     ... done
Starting the XC term evaluation                    ... done (   0.2 sec)
Transforming the Hamiltonian                       ... done (   0.3 sec)
Diagonalizing the Hamiltonian                      ... done (   0.4 sec)
Back transforming the eigenvectors                 ... done (   0.1 sec)
Now organizing SCF variables                       ... done
                      ------------------
                      INITIAL GUESS DONE (   3.8 sec)
                      ------------------
--------------
SCF ITERATIONS
--------------
ITER       Energy         Delta-E        Max-DP      RMS-DP      [F,P]     Damp
               ***  Starting incremental Fock matrix formation  ***
  0  -2121.6782507074   0.000000000000 0.06892555  0.00121153  0.2328729 0.7000
  1  -2122.3416385330  -0.663387825683 0.05227415  0.00098409  0.1441059 0.7000
                               ***Turning on DIIS***
  2  -2122.7536220306  -0.411983497544 0.11602716  0.00222975  0.0802425 0.0000
  3  -2117.7656119969   4.988010033658 0.03055324  0.00068299  0.0442026 0.0000
  4  -2123.4156607682  -5.650048771227 0.00921335  0.00022873  0.0070351 0.0000
  5  -2123.5921925484  -0.176531780204 0.00520095  0.00013526  0.0049294 0.0000
  6  -2123.5754036898   0.016788858555 0.00342946  0.00008756  0.0019672 0.0000
  7  -2123.6796227125  -0.104219022689 0.00289261  0.00006905  0.0015128 0.0000
  8  -2123.6968713151  -0.017248602619 0.00288396  0.00006481  0.0014113 0.0000
  9  -2123.6617498907   0.035121424457 0.00230938  0.00004415  0.0011173 0.0000
 10  -2123.6753164731  -0.013566582435 0.00472823  0.00008707  0.0008536 0.0000
                      *** Initiating the SOSCF procedure ***
                           *** Shutting down DIIS ***
                      *** Re-Reading the Fockian *** 
                      *** Removing any level shift *** 
ITER      Energy       Delta-E        Grad      Rot      Max-DP    RMS-DP
 11  -2123.55908084   0.1162356373  0.000305  0.000305  0.000284  0.000006
               *** Restarting incremental Fock matrix formation ***
 12  -2123.62437295  -0.0652921181  0.000947  0.006412  0.001131  0.000028
 13  -2123.62444133  -0.0000683800  0.001017  0.026859  0.004615  0.000094
 14  -2123.62453272  -0.0000913814  0.000450  0.002218  0.000542  0.000011
 15  -2123.62454513  -0.0000124161  0.000154  0.002377  0.000747  0.000012
 16  -2123.62455102  -0.0000058885  0.000112  0.003679  0.000734  0.000014
 17  -2123.62455485  -0.0000038341  0.000125  0.002997  0.000508  0.000010
 18  -2123.62455679  -0.0000019395  0.000064  0.001648  0.000235  0.000006
 19  -2123.62455791  -0.0000011167  0.000062  0.000685  0.000183  0.000004
 20  -2123.62455830  -0.0000003941  0.000031  0.000572  0.000140  0.000002
 21  -2123.62455846  -0.0000001520  0.000025  0.000265  0.000064  0.000001
 22  -2123.62455855  -0.0000000960  0.000018  0.000430  0.000106  0.000002
 23  -2123.62455863  -0.0000000745  0.000011  0.000211  0.000055  0.000001
 24  -2123.62455865  -0.0000000217  0.000005  0.000144  0.000035  0.000001
 25  -2123.62455866  -0.0000000155  0.000005  0.000084  0.000024  0.000000
 26  -2123.62455867  -0.0000000088  0.000003  0.000064  0.000017  0.000000
                  ***Gradient check signals convergence***
              ***Rediagonalizing the Fockian in SOSCF/NRSCF***

               *****************************************************
               *                     SUCCESS                       *
               *           SCF CONVERGED AFTER  27 CYCLES          *
               *****************************************************


----------------
TOTAL SCF ENERGY
----------------

Total Energy       :        -2123.62455868 Eh          -57786.76206 eV

Components:
Nuclear Repulsion  :         6226.63501091 Eh          169435.35257 eV
Electronic Energy  :        -8350.25956959 Eh         -227222.11464 eV
One Electron Energy:       -15294.30772444 Eh         -416179.27133 eV
Two Electron Energy:         6944.04815485 Eh          188957.15669 eV

Virial components:
Potential Energy   :        -4245.65062723 Eh         -115530.02700 eV
Kinetic Energy     :         2122.02606855 Eh           57743.26494 eV
Virial Ratio       :            2.00075328


---------------
SCF CONVERGENCE
---------------

  Last Energy change         ...   -2.4193e-09  Tolerance :   1.0000e-08
  Last MAX-Density change    ...    1.7080e-05  Tolerance :   1.0000e-07
  Last RMS-Density change    ...    2.8469e-07  Tolerance :   5.0000e-09
  Last Orbital Gradient      ...    2.3494e-06  Tolerance :   1.0000e-05
  Last Orbital Rotation      ...    7.5724e-05  Tolerance :   1.0000e-05

             **** THE GBW FILE WAS UPDATED (/scratch/allen/tmpyp4_amber_gaff2/conf1/conf1/Conf233.orca.gbw) ****
             **** DENSITY /scratch/allen/tmpyp4_amber_gaff2/conf1/conf1/Conf233.orca.scfp WAS UPDATED ****
             **** ENERGY FILE WAS UPDATED (/scratch/allen/tmpyp4_amber_gaff2/conf1/conf1/Conf233.orca.en.tmp) ****
             **** THE GBW FILE WAS UPDATED (/scratch/allen/tmpyp4_amber_gaff2/conf1/conf1/Conf233.orca.gbw) ****
             **** DENSITY /scratch/allen/tmpyp4_amber_gaff2/conf1/conf1/Conf233.orca.scfp WAS UPDATED ****
----------------
ORBITAL ENERGIES
----------------

  NO   OCC          E(Eh)            E(eV) 
   0   2.0000     -15.649367      -425.8409 
   1   2.0000     -15.637998      -425.5316 
   2   2.0000     -15.629495      -425.3002 
   3   2.0000     -15.613378      -424.8616 
   4   2.0000     -15.520759      -422.3413 
   5   2.0000     -15.516346      -422.2212 
   6   2.0000     -15.446674      -420.3254 
   7   2.0000     -15.443468      -420.2381 
   8   2.0000     -11.309074      -307.7355 
   9   2.0000     -11.304388      -307.6080 
  10   2.0000     -11.302209      -307.5487 
  11   2.0000     -11.301770      -307.5368 
  12   2.0000     -11.296624      -307.3968 
  13   2.0000     -11.294533      -307.3399 
  14   2.0000     -11.291812      -307.2658 
  15   2.0000     -11.287265      -307.1421 
  16   2.0000     -11.287181      -307.1398 
  17   2.0000     -11.285871      -307.1042 
  18   2.0000     -11.274793      -306.8027 
  19   2.0000     -11.273955      -306.7799 
  20   2.0000     -11.253314      -306.2182 
  21   2.0000     -11.241756      -305.9037 
  22   2.0000     -11.241341      -305.8924 
  23   2.0000     -11.240860      -305.8794 
  24   2.0000     -11.234034      -305.6936 
  25   2.0000     -11.233764      -305.6863 
  26   2.0000     -11.232984      -305.6650 
  27   2.0000     -11.227600      -305.5185 
  28   2.0000     -11.227444      -305.5143 
  29   2.0000     -11.221329      -305.3479 
  30   2.0000     -11.216005      -305.2030 
  31   2.0000     -11.214584      -305.1643 
  32   2.0000     -11.203053      -304.8506 
  33   2.0000     -11.202513      -304.8359 
  34   2.0000     -11.193132      -304.5806 
  35   2.0000     -11.192653      -304.5676 
  36   2.0000     -11.177189      -304.1468 
  37   2.0000     -11.175888      -304.1114 
  38   2.0000     -11.175662      -304.1052 
  39   2.0000     -11.172212      -304.0114 
  40   2.0000     -11.168185      -303.9018 
  41   2.0000     -11.168007      -303.8969 
  42   2.0000     -11.166852      -303.8655 
  43   2.0000     -11.164502      -303.8015 
  44   2.0000     -11.163188      -303.7658 
  45   2.0000     -11.161332      -303.7153 
  46   2.0000     -11.151604      -303.4506 
  47   2.0000     -11.148803      -303.3744 
  48   2.0000     -11.148216      -303.3584 
  49   2.0000     -11.145607      -303.2874 
  50   2.0000     -11.140074      -303.1368 
  51   2.0000     -11.135831      -303.0214 
  52   2.0000      -1.334437       -36.3119 
  53   2.0000      -1.324622       -36.0448 
  54   2.0000      -1.317376       -35.8476 
  55   2.0000      -1.304313       -35.4922 
  56   2.0000      -1.219862       -33.1941 
  57   2.0000      -1.212327       -32.9891 
  58   2.0000      -1.163932       -31.6722 
  59   2.0000      -1.156573       -31.4719 
  60   2.0000      -1.121690       -30.5227 
  61   2.0000      -1.112770       -30.2800 
  62   2.0000      -1.106635       -30.1131 
  63   2.0000      -1.096297       -29.8318 
  64   2.0000      -1.057916       -28.7874 
  65   2.0000      -1.048518       -28.5316 
  66   2.0000      -1.042028       -28.3550 
  67   2.0000      -1.030610       -28.0443 
  68   2.0000      -1.028627       -27.9904 
  69   2.0000      -1.011272       -27.5181 
  70   2.0000      -1.009644       -27.4738 
  71   2.0000      -0.996162       -27.1069 
  72   2.0000      -0.984132       -26.7796 
  73   2.0000      -0.975115       -26.5342 
  74   2.0000      -0.971325       -26.4311 
  75   2.0000      -0.959554       -26.1108 
  76   2.0000      -0.951923       -25.9031 
  77   2.0000      -0.945626       -25.7318 
  78   2.0000      -0.939226       -25.5576 
  79   2.0000      -0.923143       -25.1200 
  80   2.0000      -0.894775       -24.3481 
  81   2.0000      -0.883474       -24.0405 
  82   2.0000      -0.875530       -23.8244 
  83   2.0000      -0.869433       -23.6585 
  84   2.0000      -0.862349       -23.4657 
  85   2.0000      -0.856612       -23.3096 
  86   2.0000      -0.848974       -23.1018 
  87   2.0000      -0.841981       -22.9115 
  88   2.0000      -0.821984       -22.3673 
  89   2.0000      -0.798725       -21.7344 
  90   2.0000      -0.797345       -21.6969 
  91   2.0000      -0.740476       -20.1494 
  92   2.0000      -0.732673       -19.9370 
  93   2.0000      -0.729790       -19.8586 
  94   2.0000      -0.721471       -19.6322 
  95   2.0000      -0.720458       -19.6047 
  96   2.0000      -0.712685       -19.3931 
  97   2.0000      -0.707829       -19.2610 
  98   2.0000      -0.699842       -19.0437 
  99   2.0000      -0.693820       -18.8798 
 100   2.0000      -0.687706       -18.7134 
 101   2.0000      -0.681270       -18.5383 
 102   2.0000      -0.679111       -18.4795 
 103   2.0000      -0.673946       -18.3390 
 104   2.0000      -0.669760       -18.2251 
 105   2.0000      -0.665193       -18.1008 
 106   2.0000      -0.664526       -18.0827 
 107   2.0000      -0.659033       -17.9332 
 108   2.0000      -0.658400       -17.9160 
 109   2.0000      -0.656552       -17.8657 
 110   2.0000      -0.652287       -17.7496 
 111   2.0000      -0.649415       -17.6715 
 112   2.0000      -0.646768       -17.5995 
 113   2.0000      -0.639883       -17.4121 
 114   2.0000      -0.635592       -17.2953 
 115   2.0000      -0.624129       -16.9834 
 116   2.0000      -0.623852       -16.9759 
 117   2.0000      -0.615390       -16.7456 
 118   2.0000      -0.612420       -16.6648 
 119   2.0000      -0.609621       -16.5886 
 120   2.0000      -0.609128       -16.5752 
 121   2.0000      -0.603592       -16.4246 
 122   2.0000      -0.597229       -16.2514 
 123   2.0000      -0.591967       -16.1082 
 124   2.0000      -0.591787       -16.1033 
 125   2.0000      -0.584145       -15.8954 
 126   2.0000      -0.578984       -15.7550 
 127   2.0000      -0.573754       -15.6126 
 128   2.0000      -0.568538       -15.4707 
 129   2.0000      -0.559939       -15.2367 
 130   2.0000      -0.553803       -15.0697 
 131   2.0000      -0.546977       -14.8840 
 132   2.0000      -0.541110       -14.7244 
 133   2.0000      -0.536168       -14.5899 
 134   2.0000      -0.534339       -14.5401 
 135   2.0000      -0.529130       -14.3984 
 136   2.0000      -0.526005       -14.3133 
 137   2.0000      -0.522641       -14.2218 
 138   2.0000      -0.520425       -14.1615 
 139   2.0000      -0.516458       -14.0535 
 140   2.0000      -0.510513       -13.8918 
 141   2.0000      -0.506407       -13.7800 
 142   2.0000      -0.505469       -13.7545 
 143   2.0000      -0.501419       -13.6443 
 144   2.0000      -0.500367       -13.6157 
 145   2.0000      -0.498408       -13.5624 
 146   2.0000      -0.495577       -13.4853 
 147   2.0000      -0.491868       -13.3844 
 148   2.0000      -0.490146       -13.3375 
 149   2.0000      -0.469562       -12.7774 
 150   2.0000      -0.461412       -12.5557 
 151   2.0000      -0.453041       -12.3279 
 152   2.0000      -0.448239       -12.1972 
 153   2.0000      -0.446855       -12.1595 
 154   2.0000      -0.446079       -12.1384 
 155   2.0000      -0.439544       -11.9606 
 156   2.0000      -0.435372       -11.8471 
 157   2.0000      -0.430851       -11.7241 
 158   2.0000      -0.394041       -10.7224 
 159   2.0000      -0.385202       -10.4819 
 160   2.0000      -0.377779       -10.2799 
 161   2.0000      -0.372212       -10.1284 
 162   2.0000      -0.367126        -9.9900 
 163   2.0000      -0.359058        -9.7705 
 164   2.0000      -0.353703        -9.6247 
 165   2.0000      -0.342657        -9.3242 
 166   2.0000      -0.337139        -9.1740 
 167   2.0000      -0.334113        -9.0917 
 168   2.0000      -0.329050        -8.9539 
 169   2.0000      -0.300276        -8.1709 
 170   2.0000      -0.297572        -8.0974 
 171   2.0000      -0.288517        -7.8509 
 172   2.0000      -0.286908        -7.8072 
 173   2.0000      -0.256818        -6.9884 
 174   2.0000      -0.247894        -6.7455 
 175   2.0000      -0.188683        -5.1343 
 176   2.0000      -0.178701        -4.8627 
 177   2.0000      -0.068528        -1.8648 
 178   2.0000      -0.055292        -1.5046 
 179   0.0000       0.030252         0.8232 
 180   0.0000       0.070139         1.9086 
 181   0.0000       0.092694         2.5223 
 182   0.0000       0.099496         2.7074 
 183   0.0000       0.126966         3.4549 
 184   0.0000       0.134822         3.6687 
 185   0.0000       0.140994         3.8366 
 186   0.0000       0.152446         4.1483 
 187   0.0000       0.156853         4.2682 
 188   0.0000       0.161116         4.3842 
 189   0.0000       0.163111         4.4385 
 190   0.0000       0.167252         4.5512 
 191   0.0000       0.174985         4.7616 
 192   0.0000       0.196591         5.3495 
 193   0.0000       0.199958         5.4411 
 194   0.0000       0.202868         5.5203 
 195   0.0000       0.206344         5.6149 
 196   0.0000       0.207214         5.6386 
 197   0.0000       0.210356         5.7241 
 198   0.0000       0.215056         5.8520 
 199   0.0000       0.218447         5.9443 
 200   0.0000       0.231397         6.2966 
 201   0.0000       0.237714         6.4685 
 202   0.0000       0.241437         6.5698 
 203   0.0000       0.249083         6.7779 
 204   0.0000       0.249452         6.7879 
 205   0.0000       0.254949         6.9375 
 206   0.0000       0.256697         6.9851 
 207   0.0000       0.258497         7.0341 
 208   0.0000       0.262806         7.1513 
 209   0.0000       0.263991         7.1836 
 210   0.0000       0.267304         7.2737 
 211   0.0000       0.269497         7.3334 
 212   0.0000       0.272223         7.4076 
 213   0.0000       0.274996         7.4830 
 214   0.0000       0.277334         7.5466 
 215   0.0000       0.279261         7.5991 
 216   0.0000       0.280146         7.6232 
 217   0.0000       0.283118         7.7040 
 218   0.0000       0.286711         7.8018 
 219   0.0000       0.288370         7.8469 
 220   0.0000       0.290323         7.9001 
 221   0.0000       0.291508         7.9323 
 222   0.0000       0.293819         7.9952 
 223   0.0000       0.295167         8.0319 
 224   0.0000       0.298839         8.1318 
 225   0.0000       0.300734         8.1834 
 226   0.0000       0.303527         8.2594 
 227   0.0000       0.307776         8.3750 
 228   0.0000       0.309455         8.4207 
 229   0.0000       0.312964         8.5162 
 230   0.0000       0.316923         8.6239 
 231   0.0000       0.320792         8.7292 
 232   0.0000       0.325062         8.8454 
 233   0.0000       0.329898         8.9770 
 234   0.0000       0.333329         9.0703 
 235   0.0000       0.339960         9.2508 
 236   0.0000       0.356193         9.6925 
 237   0.0000       0.386329        10.5125 
 238   0.0000       0.394531        10.7357 
 239   0.0000       0.400260        10.8916 
 240   0.0000       0.405322        11.0294 
 241   0.0000       0.414239        11.2720 
 242   0.0000       0.420539        11.4434 
 243   0.0000       0.424494        11.5511 
 244   0.0000       0.430477        11.7139 
 245   0.0000       0.431130        11.7316 
 246   0.0000       0.433336        11.7917 
 247   0.0000       0.438908        11.9433 
 248   0.0000       0.440550        11.9880 
 249   0.0000       0.443408        12.0657 
 250   0.0000       0.446926        12.1615 
 251   0.0000       0.454097        12.3566 
 252   0.0000       0.456994        12.4354 
 253   0.0000       0.465114        12.6564 
 254   0.0000       0.470879        12.8133 
 255   0.0000       0.474425        12.9098 
 256   0.0000       0.482450        13.1281 
 257   0.0000       0.485584        13.2134 
 258   0.0000       0.493158        13.4195 
 259   0.0000       0.497170        13.5287 
 260   0.0000       0.500298        13.6138 
 261   0.0000       0.503249        13.6941 
 262   0.0000       0.506025        13.7696 
 263   0.0000       0.510024        13.8785 
 264   0.0000       0.511829        13.9276 
 265   0.0000       0.514722        14.0063 
 266   0.0000       0.519372        14.1328 
 267   0.0000       0.522928        14.2296 
 268   0.0000       0.535561        14.5733 
 269   0.0000       0.538168        14.6443 
 270   0.0000       0.541618        14.7382 
 271   0.0000       0.545413        14.8414 
 272   0.0000       0.546318        14.8661 
 273   0.0000       0.553685        15.0665 
 274   0.0000       0.559928        15.2364 
 275   0.0000       0.564612        15.3639 
 276   0.0000       0.571982        15.5644 
 277   0.0000       0.579718        15.7749 
 278   0.0000       0.580154        15.7868 
 279   0.0000       0.585231        15.9249 
 280   0.0000       0.587287        15.9809 
 281   0.0000       0.591484        16.0951 
 282   0.0000       0.594537        16.1782 
 283   0.0000       0.596726        16.2378 
 284   0.0000       0.600389        16.3374 
 285   0.0000       0.601849        16.3772 
 286   0.0000       0.607012        16.5176 
 287   0.0000       0.608550        16.5595 
 288   0.0000       0.610577        16.6146 
 289   0.0000       0.615399        16.7459 
 290   0.0000       0.620484        16.8842 
 291   0.0000       0.627833        17.0842 
 292   0.0000       0.637873        17.3574 
 293   0.0000       0.638688        17.3796 
 294   0.0000       0.642424        17.4812 
 295   0.0000       0.651911        17.7394 
 296   0.0000       0.655946        17.8492 
 297   0.0000       0.659303        17.9406 
 298   0.0000       0.662057        18.0155 
 299   0.0000       0.664736        18.0884 
 300   0.0000       0.670198        18.2370 
 301   0.0000       0.671209        18.2645 
 302   0.0000       0.679615        18.4933 
 303   0.0000       0.681477        18.5439 
 304   0.0000       0.684507        18.6264 
 305   0.0000       0.686033        18.6679 
 306   0.0000       0.690996        18.8030 
 307   0.0000       0.691638        18.8204 
 308   0.0000       0.698046        18.9948 
 309   0.0000       0.699969        19.0471 
 310   0.0000       0.703460        19.1421 
 311   0.0000       0.704945        19.1825 
 312   0.0000       0.706620        19.2281 
 313   0.0000       0.708477        19.2786 
 314   0.0000       0.713169        19.4063 
 315   0.0000       0.714764        19.4497 
 316   0.0000       0.715376        19.4664 
 317   0.0000       0.718832        19.5604 
 318   0.0000       0.719843        19.5879 
 319   0.0000       0.720969        19.6186 
 320   0.0000       0.726731        19.7753 
 321   0.0000       0.728321        19.8186 
 322   0.0000       0.732674        19.9371 
 323   0.0000       0.734191        19.9784 
 324   0.0000       0.739204        20.1148 
 325   0.0000       0.741889        20.1878 
 326   0.0000       0.744209        20.2509 
 327   0.0000       0.745497        20.2860 
 328   0.0000       0.747407        20.3380 
 329   0.0000       0.748498        20.3677 
 330   0.0000       0.751483        20.4489 
 331   0.0000       0.755842        20.5675 
 332   0.0000       0.757997        20.6261 
 333   0.0000       0.761689        20.7266 
 334   0.0000       0.764926        20.8147 
 335   0.0000       0.773234        21.0408 
 336   0.0000       0.779248        21.2044 
 337   0.0000       0.781475        21.2650 
 338   0.0000       0.783421        21.3180 
 339   0.0000       0.787807        21.4373 
 340   0.0000       0.789365        21.4797 
 341   0.0000       0.793757        21.5992 
 342   0.0000       0.797677        21.7059 
 343   0.0000       0.802513        21.8375 
 344   0.0000       0.804429        21.8896 
 345   0.0000       0.805658        21.9231 
 346   0.0000       0.809733        22.0340 
 347   0.0000       0.811742        22.0886 
 348   0.0000       0.814206        22.1557 
 349   0.0000       0.816882        22.2285 
 350   0.0000       0.820139        22.3171 
 351   0.0000       0.823493        22.4084 
 352   0.0000       0.826242        22.4832 
 353   0.0000       0.827827        22.5263 
 354   0.0000       0.830243        22.5921 
 355   0.0000       0.831648        22.6303 
 356   0.0000       0.834246        22.7010 
 357   0.0000       0.835063        22.7232 
 358   0.0000       0.836102        22.7515 
 359   0.0000       0.839204        22.8359 
 360   0.0000       0.840332        22.8666 
 361   0.0000       0.841648        22.9024 
 362   0.0000       0.843250        22.9460 
 363   0.0000       0.844786        22.9878 
 364   0.0000       0.846875        23.0446 
 365   0.0000       0.847564        23.0634 
 366   0.0000       0.852684        23.2027 
 367   0.0000       0.857000        23.3201 
 368   0.0000       0.860281        23.4094 
 369   0.0000       0.863036        23.4844 
 370   0.0000       0.865198        23.5432 
 371   0.0000       0.868964        23.6457 
 372   0.0000       0.872389        23.7389 
 373   0.0000       0.877000        23.8644 
 374   0.0000       0.878194        23.8969 
 375   0.0000       0.883090        24.0301 
 376   0.0000       0.886555        24.1244 
 377   0.0000       0.886692        24.1281 
 378   0.0000       0.891814        24.2675 
 379   0.0000       0.894914        24.3518 
 380   0.0000       0.897778        24.4298 
 381   0.0000       0.899611        24.4796 
 382   0.0000       0.902085        24.5470 
 383   0.0000       0.902447        24.5568 
 384   0.0000       0.903880        24.5958 
 385   0.0000       0.906516        24.6676 
 386   0.0000       0.908978        24.7345 
 387   0.0000       0.910488        24.7756 
 388   0.0000       0.911712        24.8090 
 389   0.0000       0.913230        24.8503 
 390   0.0000       0.917062        24.9545 
 391   0.0000       0.920454        25.0468 
 392   0.0000       0.923476        25.1291 
 393   0.0000       0.924922        25.1684 
 394   0.0000       0.927380        25.2353 
 395   0.0000       0.931255        25.3407 
 396   0.0000       0.934006        25.4156 
 397   0.0000       0.935478        25.4556 
 398   0.0000       0.936988        25.4967 
 399   0.0000       0.941922        25.6310 
 400   0.0000       0.944831        25.7102 
 401   0.0000       0.947210        25.7749 
 402   0.0000       0.950420        25.8622 
 403   0.0000       0.951976        25.9046 
 404   0.0000       0.954652        25.9774 
 405   0.0000       0.955744        26.0071 
 406   0.0000       0.962848        26.2004 
 407   0.0000       0.964547        26.2467 
 408   0.0000       0.968726        26.3604 
 409   0.0000       0.971542        26.4370 
 410   0.0000       0.977306        26.5938 
 411   0.0000       0.979090        26.6424 
 412   0.0000       0.985455        26.8156 
 413   0.0000       0.985967        26.8295 
 414   0.0000       0.988995        26.9119 
 415   0.0000       0.990779        26.9605 
 416   0.0000       0.995260        27.0824 
 417   0.0000       1.002839        27.2886 
 418   0.0000       1.008204        27.4346 
 419   0.0000       1.016425        27.6583 
 420   0.0000       1.022181        27.8150 
 421   0.0000       1.029074        28.0025 
 422   0.0000       1.031974        28.0814 
 423   0.0000       1.039076        28.2747 
 424   0.0000       1.042534        28.3688 
 425   0.0000       1.046979        28.4898 
 426   0.0000       1.051667        28.6173 
 427   0.0000       1.066202        29.0128 
 428   0.0000       1.068357        29.0715 
 429   0.0000       1.072297        29.1787 
 430   0.0000       1.075208        29.2579 
 431   0.0000       1.079745        29.3814 
 432   0.0000       1.084555        29.5122 
 433   0.0000       1.091219        29.6936 
 434   0.0000       1.096904        29.8483 
 435   0.0000       1.099700        29.9244 
 436   0.0000       1.106327        30.1047 
 437   0.0000       1.112478        30.2721 
 438   0.0000       1.117211        30.4008 
 439   0.0000       1.117998        30.4223 
 440   0.0000       1.119468        30.4623 
 441   0.0000       1.124958        30.6117 
 442   0.0000       1.128285        30.7022 
 443   0.0000       1.131034        30.7770 
 444   0.0000       1.134307        30.8661 
 445   0.0000       1.135546        30.8998 
 446   0.0000       1.138313        30.9751 
 447   0.0000       1.142324        31.0842 
 448   0.0000       1.143884        31.1267 
 449   0.0000       1.145347        31.1665 
 450   0.0000       1.149073        31.2679 
 451   0.0000       1.150312        31.3016 
 452   0.0000       1.155962        31.4553 
 453   0.0000       1.156134        31.4600 
 454   0.0000       1.161722        31.6121 
 455   0.0000       1.168294        31.7909 
 456   0.0000       1.174604        31.9626 
 457   0.0000       1.176360        32.0104 
 458   0.0000       1.177752        32.0483 
 459   0.0000       1.186540        32.2874 
 460   0.0000       1.188109        32.3301 
 461   0.0000       1.191939        32.4343 
 462   0.0000       1.204072        32.7645 
 463   0.0000       1.205155        32.7939 
 464   0.0000       1.208261        32.8785 
 465   0.0000       1.210434        32.9376 
 466   0.0000       1.211888        32.9771 
 467   0.0000       1.218464        33.1561 
 468   0.0000       1.223844        33.3025 
 469   0.0000       1.227324        33.3972 
 470   0.0000       1.232661        33.5424 
 471   0.0000       1.234551        33.5938 
 472   0.0000       1.236442        33.6453 
 473   0.0000       1.239554        33.7300 
 474   0.0000       1.242193        33.8018 
 475   0.0000       1.247404        33.9436 
 476   0.0000       1.249887        34.0112 
 477   0.0000       1.250257        34.0212 
 478   0.0000       1.252806        34.0906 
 479   0.0000       1.254696        34.1420 
 480   0.0000       1.258359        34.2417 
 481   0.0000       1.266016        34.4500 
 482   0.0000       1.267643        34.4943 
 483   0.0000       1.273075        34.6421 
 484   0.0000       1.273245        34.6468 
 485   0.0000       1.278298        34.7843 
 486   0.0000       1.279662        34.8214 
 487   0.0000       1.281336        34.8669 
 488   0.0000       1.288816        35.0705 
 489   0.0000       1.290491        35.1160 
 490   0.0000       1.291060        35.1315 
 491   0.0000       1.294955        35.2375 
 492   0.0000       1.301397        35.4128 
 493   0.0000       1.308636        35.6098 
 494   0.0000       1.312380        35.7117 
 495   0.0000       1.314097        35.7584 
 496   0.0000       1.318745        35.8849 
 497   0.0000       1.322341        35.9827 
 498   0.0000       1.325799        36.0768 
 499   0.0000       1.329573        36.1795 
 500   0.0000       1.333073        36.2748 
 501   0.0000       1.337734        36.4016 
 502   0.0000       1.340487        36.4765 
 503   0.0000       1.345985        36.6261 
 504   0.0000       1.348446        36.6931 
 505   0.0000       1.352322        36.7985 
 506   0.0000       1.354834        36.8669 
 507   0.0000       1.357674        36.9442 
 508   0.0000       1.359382        36.9907 
 509   0.0000       1.362135        37.0656 
 510   0.0000       1.366537        37.1854 
[...]
      pz      :     0.022006  p :     0.079618
      px      :     0.043375
      py      :     0.014237
 77 H s       :     0.888000  s :     0.888000
      pz      :     0.047711  p :     0.078985
      px      :     0.015014
      py      :     0.016260
 78 H s       :     0.888384  s :     0.888384
      pz      :     0.025746  p :     0.078931
      px      :     0.020532
      py      :     0.032652
 79 H s       :     0.909484  s :     0.909484
      pz      :     0.022050  p :     0.086620
      px      :     0.021742
      py      :     0.042828
 80 H s       :     0.869238  s :     0.869238
      pz      :     0.038995  p :     0.084280
      px      :     0.030006
      py      :     0.015279
 81 H s       :     0.887208  s :     0.887208
      pz      :     0.037761  p :     0.083933
      px      :     0.016158
      py      :     0.030014
 82 H s       :     0.915275  s :     0.915275
      pz      :     0.022058  p :     0.086828
      px      :     0.031438
      py      :     0.033331
 83 H s       :     0.872773  s :     0.872773
      pz      :     0.039270  p :     0.084009
      px      :     0.015258
      py      :     0.029482
 84 H s       :     0.886951  s :     0.886951
      pz      :     0.035792  p :     0.083661
      px      :     0.031721
      py      :     0.016147
 85 H s       :     0.893437  s :     0.893437
      pz      :     0.022499  p :     0.079753
      px      :     0.014083
      py      :     0.043171
 86 H s       :     0.890781  s :     0.890781
      pz      :     0.024728  p :     0.078856
      px      :     0.032993
      py      :     0.021136
 87 H s       :     0.890130  s :     0.890130
      pz      :     0.047972  p :     0.078711
      px      :     0.015604
      py      :     0.015135
 88 H s       :     0.912917  s :     0.912917
      pz      :     0.021908  p :     0.086956
      px      :     0.042647
      py      :     0.022400
 89 H s       :     0.872337  s :     0.872337
      pz      :     0.037898  p :     0.083859
      px      :     0.030477
      py      :     0.015485


                      *****************************
                      * MAYER POPULATION ANALYSIS *
                      *****************************

  NA   - Mulliken gross atomic population
  ZA   - Total nuclear charge
  QA   - Mulliken gross atomic charge
  VA   - Mayer's total valence
  BVA  - Mayer's bonded valence
  FA   - Mayer's free valence

  ATOM       NA         ZA         QA         VA         BVA        FA
  0 C      5.7910     6.0000     0.2090     3.8319     3.8319    -0.0000
  1 N      7.4474     7.0000    -0.4474     3.3522     3.3522     0.0000
  2 C      6.0632     6.0000    -0.0632     3.9188     3.9188    -0.0000
  3 N      7.3365     7.0000    -0.3365     3.4495     3.4495     0.0000
  4 C      6.0561     6.0000    -0.0561     3.9842     3.9842    -0.0000
  5 N      7.5630     7.0000    -0.5630     3.0878     3.0878     0.0000
  6 C      6.0832     6.0000    -0.0832     4.0035     4.0035     0.0000
  7 N      7.3386     7.0000    -0.3386     3.4395     3.4395     0.0000
  8 C      5.7970     6.0000     0.2030     3.8337     3.8337     0.0000
  9 N      7.5630     7.0000    -0.5630     3.0817     3.0817    -0.0000
 10 C      5.8838     6.0000     0.1162     3.9001     3.9001     0.0000
 11 N      7.4375     7.0000    -0.4375     3.3830     3.3830    -0.0000
 12 C      6.0771     6.0000    -0.0771     3.9185     3.9185    -0.0000
 13 N      7.4366     7.0000    -0.4366     3.3947     3.3947     0.0000
 14 C      5.7557     6.0000     0.2443     3.7830     3.7830    -0.0000
 15 N      7.4409     7.0000    -0.4409     3.3716     3.3716    -0.0000
 16 C      5.7691     6.0000     0.2309     3.7883     3.7883    -0.0000
 17 C      6.0888     6.0000    -0.0888     4.0033     4.0033    -0.0000
 18 C      6.2161     6.0000    -0.2161     3.7667     3.7667    -0.0000
 19 C      5.7594     6.0000     0.2406     3.8620     3.8620     0.0000
 20 C      5.7898     6.0000     0.2102     3.8266     3.8266    -0.0000
 21 C      6.0901     6.0000    -0.0901     3.9078     3.9078    -0.0000
 22 C      6.0883     6.0000    -0.0883     3.9833     3.9833    -0.0000
 23 C      6.0455     6.0000    -0.0455     3.9911     3.9911    -0.0000
 24 C      5.7982     6.0000     0.2018     3.8226     3.8226     0.0000
 25 C      5.8860     6.0000     0.1140     3.8901     3.8901    -0.0000
 26 C      6.0722     6.0000    -0.0722     3.9087     3.9087    -0.0000
 27 C      5.7813     6.0000     0.2187     3.8771     3.8771    -0.0000
 28 C      6.0556     6.0000    -0.0556     3.9879     3.9879     0.0000
 29 C      6.1831     6.0000    -0.1831     3.7385     3.7385    -0.0000
 30 C      5.7611     6.0000     0.2389     3.7957     3.7957    -0.0000
 31 C      5.7829     6.0000     0.2171     3.8242     3.8242    -0.0000
 32 C      6.0643     6.0000    -0.0643     3.9194     3.9194     0.0000
 33 C      6.0747     6.0000    -0.0747     3.9813     3.9813    -0.0000
 34 C      6.0504     6.0000    -0.0504     3.9894     3.9894     0.0000
 35 C      5.7881     6.0000     0.2119     3.8226     3.8226     0.0000
 36 C      5.8878     6.0000     0.1122     3.8862     3.8862     0.0000
 37 C      6.0661     6.0000    -0.0661     3.9175     3.9175     0.0000
 38 C      5.7648     6.0000     0.2352     3.7992     3.7992     0.0000
 39 C      6.0602     6.0000    -0.0602     3.9886     3.9886    -0.0000
 40 C      6.1869     6.0000    -0.1869     3.7367     3.7367    -0.0000
 41 C      5.7772     6.0000     0.2228     3.8828     3.8828     0.0000
 42 C      5.7988     6.0000     0.2012     3.8271     3.8271    -0.0000
 43 C      6.0730     6.0000    -0.0730     3.9022     3.9022     0.0000
 44 C      6.0892     6.0000    -0.0892     3.9850     3.9850     0.0000
 45 C      6.0553     6.0000    -0.0553     3.9928     3.9928    -0.0000
 46 C      5.7941     6.0000     0.2059     3.8266     3.8266    -0.0000
 47 C      5.8844     6.0000     0.1156     3.8935     3.8935    -0.0000
 48 C      6.0719     6.0000    -0.0719     3.9060     3.9060     0.0000
 49 C      5.7696     6.0000     0.2304     3.8870     3.8870     0.0000
 50 C      6.0509     6.0000    -0.0509     3.9904     3.9904    -0.0000
 51 C      6.1897     6.0000    -0.1897     3.7360     3.7360    -0.0000
 52 H      0.9507     1.0000     0.0493     0.9855     0.9855     0.0000
 53 H      1.0147     1.0000    -0.0147     0.9986     0.9986    -0.0000
 54 H      0.9529     1.0000     0.0471     1.0085     1.0085    -0.0000
 55 H      0.9526     1.0000     0.0474     0.9863     0.9863     0.0000
 56 H      0.9448     1.0000     0.0552     0.9707     0.9707    -0.0000
 57 H      0.9467     1.0000     0.0533     0.9836     0.9836     0.0000
 58 H      0.9471     1.0000     0.0529     0.9851     0.9851    -0.0000
 59 H      1.0070     1.0000    -0.0070     1.0010     1.0010     0.0000
 60 H      0.9500     1.0000     0.0500     1.0100     1.0100     0.0000
 61 H      0.8277     1.0000     0.1723     1.0423     1.0423     0.0000
 62 H      0.8263     1.0000     0.1737     1.0435     1.0435     0.0000
 63 H      0.9436     1.0000     0.0564     0.9853     0.9853    -0.0000
 64 H      1.0141     1.0000    -0.0141     0.9971     0.9971    -0.0000
 65 H      0.9524     1.0000     0.0476     1.0091     1.0091    -0.0000
 66 H      0.9426     1.0000     0.0574     0.9851     0.9851     0.0000
 67 H      0.9372     1.0000     0.0628     0.9720     0.9720    -0.0000
 68 H      0.9419     1.0000     0.0581     0.9868     0.9868    -0.0000
 69 H      0.9418     1.0000     0.0582     0.9829     0.9829     0.0000
 70 H      1.0259     1.0000    -0.0259     0.9939     0.9939    -0.0000
 71 H      0.9530     1.0000     0.0470     1.0064     1.0064     0.0000
 72 H      0.9388     1.0000     0.0612     0.9846     0.9846    -0.0000
 73 H      1.0122     1.0000    -0.0122     0.9994     0.9994     0.0000
 74 H      0.9489     1.0000     0.0511     1.0100     1.0100    -0.0000
 75 H      0.9397     1.0000     0.0603     0.9850     0.9850     0.0000
 76 H      0.9339     1.0000     0.0661     0.9718     0.9718     0.0000
 77 H      0.9387     1.0000     0.0613     0.9852     0.9852    -0.0000
 78 H      0.9395     1.0000     0.0605     0.9849     0.9849     0.0000
 79 H      1.0147     1.0000    -0.0147     0.9988     0.9988    -0.0000
 80 H      0.9484     1.0000     0.0516     1.0071     1.0071     0.0000
 81 H      0.9465     1.0000     0.0535     0.9855     0.9855     0.0000
 82 H      1.0238     1.0000    -0.0238     0.9940     0.9940     0.0000
 83 H      0.9572     1.0000     0.0428     1.0089     1.0089    -0.0000
 84 H      0.9465     1.0000     0.0535     0.9854     0.9854    -0.0000
 85 H      0.9404     1.0000     0.0596     0.9716     0.9716    -0.0000
 86 H      0.9440     1.0000     0.0560     0.9840     0.9840     0.0000
 87 H      0.9433     1.0000     0.0567     0.9856     0.9856    -0.0000
 88 H      1.0192     1.0000    -0.0192     0.9952     0.9952    -0.0000
 89 H      0.9555     1.0000     0.0445     1.0072     1.0072    -0.0000

  Mayer bond orders larger than 0.100000
B(  0-C ,  1-N ) :   1.1050 B(  0-C , 17-C ) :   1.6640 B(  0-C , 52-H ) :   0.9689 
B(  1-N ,  8-C ) :   1.1011 B(  1-N , 10-C ) :   0.9686 B(  2-C , 12-C ) :   1.5262 
B(  2-C , 16-C ) :   1.3359 B(  2-C , 53-H ) :   0.9772 B(  3-N , 14-C ) :   1.2089 
B(  3-N , 16-C ) :   1.1946 B(  3-N , 61-H ) :   0.8986 B(  4-C ,  6-C ) :   1.2425 
B(  4-C , 17-C ) :   1.2413 B(  4-C , 18-C ) :   1.3366 B(  5-N , 19-C ) :   1.4335 
B(  5-N , 27-C ) :   1.3937 B(  6-C ,  8-C ) :   1.6631 B(  6-C , 54-H ) :   0.9692 
B(  7-N , 30-C ) :   1.1945 B(  7-N , 38-C ) :   1.1981 B(  7-N , 62-H ) :   0.8978 
B(  8-C , 55-H ) :   0.9697 B(  9-N , 41-C ) :   1.4033 B(  9-N , 49-C ) :   1.4189 
B( 10-C , 56-H ) :   0.9764 B( 10-C , 57-H ) :   0.9819 B( 10-C , 58-H ) :   0.9839 
B( 11-N , 20-C ) :   1.1277 B( 11-N , 24-C ) :   1.1178 B( 11-N , 25-C ) :   0.9585 
B( 12-C , 14-C ) :   1.3373 B( 12-C , 59-H ) :   0.9752 B( 13-N , 31-C ) :   1.1357 
B( 13-N , 35-C ) :   1.1302 B( 13-N , 36-C ) :   0.9539 B( 14-C , 18-C ) :   1.1701 
B( 15-N , 42-C ) :   1.1128 B( 15-N , 46-C ) :   1.1172 B( 15-N , 47-C ) :   0.9620 
B( 16-C , 51-C ) :   1.1885 B( 17-C , 60-H ) :   0.9689 B( 18-C , 19-C ) :   1.1832 
B( 19-C , 21-C ) :   1.2208 B( 20-C , 28-C ) :   1.6241 B( 20-C , 63-H ) :   0.9702 
B( 21-C , 26-C ) :   1.6351 B( 21-C , 64-H ) :   0.9705 B( 22-C , 23-C ) :   1.2869 
B( 22-C , 28-C ) :   1.2715 B( 22-C , 29-C ) :   1.2245 B( 23-C , 24-C ) :   1.6177 
B( 23-C , 65-H ) :   0.9707 B( 24-C , 66-H ) :   0.9692 B( 25-C , 67-H ) :   0.9761 
B( 25-C , 68-H ) :   0.9829 B( 25-C , 69-H ) :   0.9822 B( 26-C , 27-C ) :   1.2188 
B( 26-C , 70-H ) :   0.9726 B( 27-C , 29-C ) :   1.2281 B( 28-C , 71-H ) :   0.9716 
B( 29-C , 30-C ) :   1.2197 B( 30-C , 32-C ) :   1.3035 B( 31-C , 39-C ) :   1.6172 
B( 31-C , 72-H ) :   0.9692 B( 32-C , 37-C ) :   1.5550 B( 32-C , 73-H ) :   0.9781 
B( 33-C , 34-C ) :   1.2855 B( 33-C , 39-C ) :   1.2793 B( 33-C , 40-C ) :   1.2256 
B( 34-C , 35-C ) :   1.6141 B( 34-C , 74-H ) :   0.9702 B( 35-C , 75-H ) :   0.9692 
B( 36-C , 76-H ) :   0.9764 B( 36-C , 77-H ) :   0.9819 B( 36-C , 78-H ) :   0.9829 
B( 37-C , 38-C ) :   1.3058 B( 37-C , 79-H ) :   0.9774 B( 38-C , 40-C ) :   1.2148 
B( 39-C , 80-H ) :   0.9712 B( 40-C , 41-C ) :   1.2297 B( 41-C , 43-C ) :   1.2038 
B( 42-C , 50-C ) :   1.6336 B( 42-C , 81-H ) :   0.9696 B( 43-C , 48-C ) :   1.6481 
B( 43-C , 82-H ) :   0.9732 B( 44-C , 45-C ) :   1.2683 B( 44-C , 50-C ) :   1.2685 
B( 44-C , 51-C ) :   1.2573 B( 45-C , 46-C ) :   1.6335 B( 45-C , 83-H ) :   0.9714 
B( 46-C , 84-H ) :   0.9701 B( 47-C , 85-H ) :   0.9761 B( 47-C , 86-H ) :   0.9828 
B( 47-C , 87-H ) :   0.9825 B( 48-C , 49-C ) :   1.2049 B( 48-C , 88-H ) :   0.9742 
B( 49-C , 51-C ) :   1.2275 B( 50-C , 89-H ) :   0.9712 

-------
TIMINGS
-------

Total SCF time: 0 days 0 hours 27 min 40 sec 

Total time                  ....    1660.514 sec
Sum of individual times     ....    1655.830 sec  ( 99.7%)

Fock matrix formation       ....    1628.647 sec  ( 98.1%)
Diagonalization             ....       8.827 sec  (  0.5%)
Density matrix formation    ....       0.519 sec  (  0.0%)
Population analysis         ....       0.587 sec  (  0.0%)
Initial guess               ....       2.518 sec  (  0.2%)
Orbital Transformation      ....       0.000 sec  (  0.0%)
Orbital Orthonormalization  ....       0.000 sec  (  0.0%)
DIIS solution               ....       3.965 sec  (  0.2%)
SOSCF solution              ....       9.470 sec  (  0.6%)

Maximum memory used throughout the entire SCF-calculation: 302.6 MB


           ************************************************************
           *        Program running with 16 parallel MPI-processes    *
           *              working on a common directory               *
           ************************************************************

------------------------------------------------------------------------------
                                ORCA  MP2 
------------------------------------------------------------------------------

Freezing NCore=104 chemical core electrons

----------
MP2 ENERGY (disk based algorithm)
----------

Dimension of the basis                    ...  918
Memory devoted to MP2                     ... 2000 MB   
Data format for buffers                   ... DOUBLE
Compression type for matrix containers    ... UNCOMPRESSED

-------------------------------
PARTIAL EXCHANGE TRANSFORMATION
-------------------------------

Transformation type                        ... one-operator
Generation of integrals (i,mue|j,nue)      ... ON
Generation of integrals (mue,kappa|nue,tau)... OFF
Generation of integrals (i,mue|a,nue)      ... OFF
Dimension of the basis                     ...  918
Number of internal MOs                     ...  127 (  52- 178)
Pair cutoff                                ... 2.500e-12 Eh
Number of AO pairs in the trafo            ... 421821
Total Number of distinct AO pairs          ... 421821
Memory devoted for trafo                   ... 2000.0 MB 
Max. Number of MO pairs treated together   ...  311      
Number Format for Storage                  ... Double (8 Byte)
Integral package used                      ... LIBINT

Starting integral evaluation:
    ... done with AO integral generation
Closing buffer AOK     (38.28 GB; CompressionRatio= 1.32)
Collecting buffer AOK 
Number of MO pairs included in the trafo   ... 8128
------------------------
SORTING OF (i,mue|j,nue)
------------------------

IBATCH = 1 of  2
IBATCH = 2 of  2
Closing buffer KAO     (51.03 GB; CompressionRatio= 1.00)
Collecting buffer KAO 
N(AO-Batches) Done                         ...  85497422 
N(AO-Batches) Skipped                      ...  82348516 
N(IJ)-pairs Skipped                        ...         0 
TOTAL TIME for half transformation         ...  2823.787 sec
AO-integral generation                     ...   209.661 sec
Half transformation                        ...   425.081 sec
K-integral sorting                         ...  1966.085 sec
Process 10:   Internal MO 132
Process 13:   Internal MO 156
Process  4:   Internal MO  84

Finished integral transformation - now doing MP2 part

Process  1:   Internal MO  60
OPERATOR COMBINATION   0   0: ij=( 52..178, 52..178)
Process  7:   Internal MO 108
Process  0:   Internal MO  54
Process  2:   Internal MO  69
Process  1:   Internal MO  63
Process  0:   Internal MO  57
Process  5:   Internal MO  93
Process  3:   Internal MO  78
Process  8:   Internal MO 117
Process  1:   Internal MO  66
Process  2:   Internal MO  72
Process  6:   Internal MO 102
Process 11:   Internal MO 141
Process  4:   Internal MO  87
Process 14:   Internal MO 165
Process  2:   Internal MO  75
Process  3:   Internal MO  81
Process  9:   Internal MO 126
Process 12:   Internal MO 150
Process  5:   Internal MO  96
Process  4:   Internal MO  90
Process  6:   Internal MO 105
Process 15:   Internal MO 174
Process 10:   Internal MO 135
Process  8:   Internal MO 120
Process  7:   Internal MO 111
Process  5:   Internal MO  99
Process 11:   Internal MO 144
Process  9:   Internal MO 129
Process 13:   Internal MO 159
Process 14:   Internal MO 168
Process 12:   Internal MO 153
Process  8:   Internal MO 123
Process 10:   Internal MO 138
Process  7:   Internal MO 114
Process 15:   Internal MO 177
Process 11:   Internal MO 147
Process 13:   Internal MO 162
Process 14:   Internal MO 171
-----------------------------------------------
 MP2 CORRELATION ENERGY   :     -7.288643194 Eh
-----------------------------------------------


-------
TIMINGS
-------
Total time                : 3164.599 sec
Integral trafo            : 2826.041 sec ( 89.3%)
K(i,j)                    :    6.293 sec (  0.2%)
T(i,j)                    :    0.062 sec (  0.0%)

---------------------------------------
MP2 TOTAL ENERGY:    -2130.913201869 Eh
---------------------------------------

Maximum memory used throughout the entire MP2-calculation: 2275.2 MB

-------------------------   --------------------
FINAL SINGLE POINT ENERGY     -2130.913201869477
-------------------------   --------------------


                            ***************************************
                            *     ORCA property calculations      *
                            ***************************************


  WARNING: The energy has been calculated at the MP2 level but the densities
           used in the property calculations are still SCF densities
           MP2 response densities have not been calculated 
           use %mp2 Density relaxed end
           or  %mp2 Density unrelaxed end

                                    ---------------------
                                    Active property flags
                                    ---------------------
   (+) Dipole Moment


------------------------------------------------------------------------------
                       ORCA ELECTRIC PROPERTIES CALCULATION
------------------------------------------------------------------------------

Dipole Moment Calculation                       ... on
Quadrupole Moment Calculation                   ... off
Polarizability Calculation                      ... off
GBWName                                         ... /scratch/allen/tmpyp4_amber_gaff2/conf1/conf1/Conf233.orca.gbw
Electron density                                ... /scratch/allen/tmpyp4_amber_gaff2/conf1/conf1/Conf233.orca.scfp
The origin for moment calculation is the CENTER OF MASS  = ( 0.001928, -0.002751 -0.001508)

-------------
DIPOLE MOMENT
-------------
                                X             Y             Z
Electronic contribution:      0.62943      -2.00057      -0.12417
Nuclear contribution   :      0.07716       0.23846       0.13347
                        -----------------------------------------
Total Dipole Moment    :      0.70659      -1.76210       0.00931
                        -----------------------------------------
Magnitude (a.u.)       :      1.89851
Magnitude (Debye)      :      4.82564



--------------------
Rotational spectrum 
--------------------
 
Rotational constants in cm-1:     0.001499     0.001476     0.000762 
Rotational constants in MHz :    44.937779    44.237182    22.832580 

 Dipole components along the rotational axes: 
x,y,z [a.u.] :     1.218115    -1.456193     0.007043 
x,y,z [Debye]:     3.096203    -3.701348     0.017902 

 

Timings for individual modules:

Sum of individual times         ...     4849.146 sec (=  80.819 min)
GTO integral calculation        ...        3.416 sec (=   0.057 min)   0.1 %
SCF iterations                  ...     1661.706 sec (=  27.695 min)  34.3 %
MP2 module                      ...     3184.023 sec (=  53.067 min)  65.7 %
                             ****ORCA TERMINATED NORMALLY****
TOTAL RUN TIME: 0 days 1 hours 20 minutes 52 seconds 553 msec
# of primitive gaussian functions

