
                                 *****************
                                 * O   R   C   A *
                                 *****************

                                            #,                                       
                                            ###                                      
                                            ####                                     
                                            #####                                    
                                            ######                                   
                                           ########,                                 
                                     ,,################,,,,,                         
                               ,,#################################,,                 
                          ,,##########################################,,             
                       ,#########################################, ''#####,          
                    ,#############################################,,   '####,        
                  ,##################################################,,,,####,       
                ,###########''''           ''''###############################       
              ,#####''   ,,,,##########,,,,          '''####'''          '####       
            ,##' ,,,,###########################,,,                        '##       
           ' ,,###''''                  '''############,,,                           
         ,,##''                                '''############,,,,        ,,,,,,###''
      ,#''                                            '''#######################'''  
     '                                                          ''''####''''         
             ,#######,   #######,   ,#######,      ##                                
            ,#'     '#,  ##    ##  ,#'     '#,    #''#        ######   ,####,        
            ##       ##  ##   ,#'  ##            #'  '#       #        #'  '#        
            ##       ##  #######   ##           ,######,      #####,   #    #        
            '#,     ,#'  ##    ##  '#,     ,#' ,#      #,         ##   #,  ,#        
             '#######'   ##     ##  '#######'  #'      '#     #####' # '####'        



                  #######################################################
                  #                        -***-                        #
                  #          Department of theory and spectroscopy      #
                  #    Directorship and core code : Frank Neese         #
                  #        Max Planck Institute fuer Kohlenforschung    #
                  #                Kaiser Wilhelm Platz 1               #
                  #                 D-45470 Muelheim/Ruhr               #
                  #                      Germany                        #
                  #                                                     #
                  #                  All rights reserved                #
                  #                        -***-                        #
                  #######################################################


                         Program Version 5.0.4 -  RELEASE  -


 With contributions from (in alphabetic order):
   Daniel Aravena         : Magnetic Suceptibility
   Michael Atanasov       : Ab Initio Ligand Field Theory (pilot matlab implementation)
   Alexander A. Auer      : GIAO ZORA, VPT2 properties, NMR spectrum
   Ute Becker             : Parallelization
   Giovanni Bistoni       : ED, misc. LED, open-shell LED, HFLD
   Martin Brehm           : Molecular dynamics
   Dmytro Bykov           : SCF Hessian
   Vijay G. Chilkuri      : MRCI spin determinant printing, contributions to CSF-ICE
   Dipayan Datta          : RHF DLPNO-CCSD density
   Achintya Kumar Dutta   : EOM-CC, STEOM-CC
   Dmitry Ganyushin       : Spin-Orbit,Spin-Spin,Magnetic field MRCI
   Miquel Garcia          : C-PCM and meta-GGA Hessian, CC/C-PCM, Gaussian charge scheme
   Yang Guo               : DLPNO-NEVPT2, F12-NEVPT2, CIM, IAO-localization
   Andreas Hansen         : Spin unrestricted coupled pair/coupled cluster methods
   Benjamin Helmich-Paris : MC-RPA, TRAH-SCF, COSX integrals
   Lee Huntington         : MR-EOM, pCC
   Robert Izsak           : Overlap fitted RIJCOSX, COSX-SCS-MP3, EOM
   Marcus Kettner         : VPT2
   Christian Kollmar      : KDIIS, OOCD, Brueckner-CCSD(T), CCSD density, CASPT2, CASPT2-K
   Simone Kossmann        : Meta GGA functionals, TD-DFT gradient, OOMP2, MP2 Hessian
   Martin Krupicka        : Initial AUTO-CI
   Lucas Lang             : DCDCAS
   Marvin Lechner         : AUTO-CI (C++ implementation), FIC-MRCC
   Dagmar Lenk            : GEPOL surface, SMD
   Dimitrios Liakos       : Extrapolation schemes; Compound Job, initial MDCI parallelization
   Dimitrios Manganas     : Further ROCIS development; embedding schemes
   Dimitrios Pantazis     : SARC Basis sets
   Anastasios Papadopoulos: AUTO-CI, single reference methods and gradients
   Taras Petrenko         : DFT Hessian,TD-DFT gradient, ASA, ECA, R-Raman, ABS, FL, XAS/XES, NRVS
   Peter Pinski           : DLPNO-MP2, DLPNO-MP2 Gradient
   Christoph Reimann      : Effective Core Potentials
   Marius Retegan         : Local ZFS, SOC
   Christoph Riplinger    : Optimizer, TS searches, QM/MM, DLPNO-CCSD(T), (RO)-DLPNO pert. Triples
   Tobias Risthaus        : Range-separated hybrids, TD-DFT gradient, RPA, STAB
   Michael Roemelt        : Original ROCIS implementation
   Masaaki Saitow         : Open-shell DLPNO-CCSD energy and density
   Barbara Sandhoefer     : DKH picture change effects
   Avijit Sen             : IP-ROCIS
   Kantharuban Sivalingam : CASSCF convergence, NEVPT2, FIC-MRCI
   Bernardo de Souza      : ESD, SOC TD-DFT
   Georgi Stoychev        : AutoAux, RI-MP2 NMR, DLPNO-MP2 response
   Willem Van den Heuvel  : Paramagnetic NMR
   Boris Wezisla          : Elementary symmetry handling
   Frank Wennmohs         : Technical directorship


 We gratefully acknowledge several colleagues who have allowed us to
 interface, adapt or use parts of their codes:
   Stefan Grimme, W. Hujo, H. Kruse, P. Pracht,  : VdW corrections, initial TS optimization,
                  C. Bannwarth, S. Ehlert          DFT functionals, gCP, sTDA/sTD-DF
   Ed Valeev, F. Pavosevic, A. Kumar             : LibInt (2-el integral package), F12 methods
   Garnet Chan, S. Sharma, J. Yang, R. Olivares  : DMRG
   Ulf Ekstrom                                   : XCFun DFT Library
   Mihaly Kallay                                 : mrcc  (arbitrary order and MRCC methods)
   Jiri Pittner, Ondrej Demel                    : Mk-CCSD
   Frank Weinhold                                : gennbo (NPA and NBO analysis)
   Christopher J. Cramer and Donald G. Truhlar   : smd solvation model
   Lars Goerigk                                  : TD-DFT with DH, B97 family of functionals
   V. Asgeirsson, H. Jonsson                     : NEB implementation
   FAccTs GmbH                                   : IRC, NEB, NEB-TS, DLPNO-Multilevel, CI-OPT
                                                   MM, QMMM, 2- and 3-layer-ONIOM, Crystal-QMMM,
                                                   LR-CPCM, SF, NACMEs, symmetry and pop. for TD-DFT,
                                                   nearIR, NL-DFT gradient (VV10), updates on ESD,
                                                   ML-optimized integration grids
   S Lehtola, MJT Oliveira, MAL Marques          : LibXC Library
   Liviu Ungur et al                             : ANISO software


 Your calculation uses the libint2 library for the computation of 2-el integrals
 For citations please refer to: http://libint.valeyev.net

 Your ORCA version has been built with support for libXC version: 5.1.0
 For citations please refer to: https://tddft.org/programs/libxc/

 This ORCA versions uses:
   CBLAS   interface :  Fast vector & matrix operations
   LAPACKE interface :  Fast linear algebra routines
   SCALAPACK package :  Parallel linear algebra routines
   Shared memory     :  Shared parallel matrices
   BLAS/LAPACK       :  OpenBLAS 0.3.15  USE64BITINT DYNAMIC_ARCH NO_AFFINITY Sandybridge SINGLE_THREADED
        Core in use  :  Sandybridge
   Copyright (c) 2011-2014, The OpenBLAS Project


================================================================================

----- Orbital basis set information -----
Your calculation utilizes the basis: cc-pVDZ 
       H, B-Ne : Obtained from the ccRepo (grant-hill.group.shef.ac.uk/ccrepo) Feb. 2017
                 T. H. Dunning, Jr., J. Chem. Phys. 90, 1007 (1989)
            He : Obtained from the ccRepo (grant-hill.group.shef.ac.uk/ccrepo) Feb. 2017
                 D. E. Woon, T. H. Dunning, Jr., J. Chem. Phys. 100, 2975 (1994)
  Li-Be, Na-Mg : Obtained from the ccRepo (grant-hill.group.shef.ac.uk/ccrepo) Feb. 2017
                 B. P. Prascher, D. E. Woon, K. A. Peterson, T. H. Dunning, Jr., A. K. Wilson, Theor. Chem. Acc. 128, 69 (2011)
         Al-Ar : Obtained from the ccRepo (grant-hill.group.shef.ac.uk/ccrepo) Feb. 2017
                 D. E. Woon, T. H. Dunning, Jr., J. Chem. Phys. 98, 1358 (1993)
            Ca : Obtained from the Peterson Research Group Website (tyr0.chem.wsu.edu/~kipeters) Feb. 2017
                 J. Koput, K. A. Peterson, J. Phys. Chem. 106, 9595 (2002)
         Sc-Zn : Obtained from the ccRepo (grant-hill.group.shef.ac.uk/ccrepo) Feb. 2017
                 N. B. Balabanov, K. A. Peterson, J. Chem. Phys. 123, 064107 (2005)
                 N. B. Balabanov, K. A. Peterson, J. Chem. Phys. 125, 074110 (2006)
         Ga-Kr : Obtained from the ccRepo (grant-hill.group.shef.ac.uk/ccrepo) Feb. 2017
                 A. K. Wilson, D. E. Woon, K. A. Peterson, T. H. Dunning, Jr., J. Chem. Phys. 110, 7667 (1999)

================================================================================
                                        WARNINGS
                       Please study these warnings very carefully!
================================================================================


WARNING: No MP2 level density has been requested!
         To caclulate MP2 level properties use
         %mp2 Density relaxed end
         or
         %mp2 Density unrelaxed end

WARNING: Post HF methods need fully converged wavefunctions
  ===> : Setting SCFConvForced true
         You can overwrite this default with %scf ConvForced false 


INFO   : the flag for use of the SHARK integral package has been found!

================================================================================
                                       INPUT FILE
================================================================================
NAME = /scratch/allen/tmpyp4_amber_gaff2/2.Mdgx/conf11/conf11/Conf316.orca
|  1> ! PAL2
|  2> ! mp2 cc-pvdz TightSCF  NoKeepInts
|  3> 
|  4> %scf
|  5>   MaxCore 2000
|  6> end
|  7> %mp2
|  8>   MaxCore 2000
|  9> end
| 10> * xyz 0 1
| 11>    C       -3.33300         6.27300         0.93800
| 12>    C        1.47400         4.04100         0.05700
| 13>    C       -2.80200         4.09300         0.04900
| 14>    C       -3.90300         4.23100        -0.81000
| 15>    C       -4.67400         5.37600        -0.77000
| 16>    C       -5.21100         7.60400         0.08900
| 17>    C        0.13200         4.30700         0.06100
| 18>    C       -0.56900         3.05600         0.04700
| 19>    C        1.64900         2.61800         0.02300
| 20>    C       -2.52900         5.15000         0.93100
| 21>    N       -4.38700         6.37500         0.09700
| 22>    N        0.38800         2.06700         0.02500
| 23>    N       -2.01000         0.39500        -0.07500
| 24>    N       -0.38800        -2.07400        -0.02700
| 25>    N        2.01000        -0.40100         0.06500
| 26>    C       -1.96000         2.86100         0.02400
| 27>    C       -2.62300         1.61500        -0.01800
| 28>    C       -5.57300        -4.32900         1.06600
| 29>    C       -4.07300         1.47100         0.05600
| 30>    C       -4.10600        -2.75600        -0.02600
| 31>    C       -4.99500        -2.75700        -1.11100
| 32>    C       -6.13200        -3.54200        -1.07600
| 33>    C       -7.65100        -5.11300         0.04000
| 34>    C       -4.32400         0.14100         0.03700
| 35>    C       -3.02500        -0.52000        -0.04800
| 36>    C       -4.42200        -3.56600         1.07500
| 37>    N       -6.40700        -4.31300         0.00100
| 38>    C       -2.86700        -1.92200        -0.04000
| 39>    C       -1.65000        -2.62400        -0.02700
| 40>    C        3.56800        -6.14200        -1.04000
| 41>    C       -1.47600        -4.04900        -0.03400
| 42>    C        2.80300        -4.09900        -0.00800
| 43>    C        3.65700        -4.38400         1.06900
| 44>    C        4.42700        -5.53000         1.05900
| 45>    C        5.24500        -7.58800         0.01400
| 46>    C       -0.13400        -4.31500        -0.02200
| 47>    C        0.56800        -3.06400        -0.02700
| 48>    C        2.77500        -5.01200        -1.07400
| 49>    N        4.37600        -6.39100         0.01700
| 50>    C        1.95900        -2.86900        -0.00900
| 51>    C        2.62100        -1.62200         0.00900
| 52>    C        5.54300         4.33900        -1.13000
| 53>    C        4.07000        -1.47900        -0.09400
| 54>    C        4.10400         2.75100        -0.02100
| 55>    C        5.02700         2.72900         1.03600
| 56>    C        6.16600         3.50900         0.97800
| 57>    C        7.61900         5.15300        -0.11500
| 58>    C        4.32100        -0.14800        -0.09200
| 59>    C        3.02500         0.51400         0.01500
| 60>    C        4.38700         3.58200        -1.11500
| 61>    C        2.86600         1.91600         0.01300
| 62>    N        6.41300         4.29600        -0.09500
| 63>    H       -3.16700         7.10700         1.60900
| 64>    H        2.27400         4.76600         0.08100
| 65>    H       -4.16000         3.45400        -1.52000
| 66>    H       -5.52700         5.53100        -1.41800
| 67>    H       -4.82000         8.28900        -0.66700
| 68>    H       -6.24100         7.33500        -0.14500
| 69>    H       -5.16000         8.06600         1.07400
| 70>    H       -0.33200         5.28200         0.06900
| 71>    H       -1.70100         5.09700         1.62800
| 72>    H        0.18200         1.07200         0.00500
| 73>    H       -0.18300        -1.08000        -0.02100
| 74>    H       -5.86400        -4.96200         1.89500
| 75>    H       -4.79400         2.27200         0.13900
| 76>    H       -4.80000        -2.16000        -1.99400
| 77>    H       -6.84100        -3.58200        -1.89300
| 78>    H       -8.42800        -4.53600         0.54600
| 79>    H       -7.95600        -5.33700        -0.98100
| 80>    H       -7.45600        -6.03700         0.58400
| 81>    H       -5.28700        -0.34400         0.10000
| 82>    H       -3.78000        -3.60100         1.94700
| 83>    H        3.58700        -6.86800        -1.84300
| 84>    H       -2.27600        -4.77400        -0.05000
| 85>    H        3.71400        -3.72400         1.92600
| 86>    H        5.09200        -5.79500         1.87100
| 87>    H        6.20500        -7.32900        -0.43900
| 88>    H        5.39300        -7.91700         1.04200
| 89>    H        4.75900        -8.37300        -0.56400
| 90>    H        0.32900        -5.29000        -0.00800
| 91>    H        2.14600        -4.84200        -1.94000
| 92>    H        5.80800         4.98600        -1.95600
| 93>    H        4.78800        -2.28100        -0.18500
| 94>    H        4.86000         2.11400         1.91200
| 95>    H        6.90100         3.53100         1.77200
| 96>    H        7.38300         6.10900         0.35600
| 97>    H        8.41400         4.65200         0.43500
| 98>    H        7.92100         5.31000        -1.15000
| 99>    H        5.28300         0.33600        -0.17900
|100>    H        3.72000         3.63200        -1.96700
|101> *
|102> 
|103>                          ****END OF INPUT****
================================================================================

                       ****************************
                       * Single Point Calculation *
                       ****************************

---------------------------------
CARTESIAN COORDINATES (ANGSTROEM)
---------------------------------
  C     -3.333000    6.273000    0.938000
  C      1.474000    4.041000    0.057000
  C     -2.802000    4.093000    0.049000
  C     -3.903000    4.231000   -0.810000
  C     -4.674000    5.376000   -0.770000
  C     -5.211000    7.604000    0.089000
  C      0.132000    4.307000    0.061000
  C     -0.569000    3.056000    0.047000
  C      1.649000    2.618000    0.023000
  C     -2.529000    5.150000    0.931000
  N     -4.387000    6.375000    0.097000
  N      0.388000    2.067000    0.025000
  N     -2.010000    0.395000   -0.075000
  N     -0.388000   -2.074000   -0.027000
  N      2.010000   -0.401000    0.065000
  C     -1.960000    2.861000    0.024000
  C     -2.623000    1.615000   -0.018000
  C     -5.573000   -4.329000    1.066000
  C     -4.073000    1.471000    0.056000
  C     -4.106000   -2.756000   -0.026000
  C     -4.995000   -2.757000   -1.111000
  C     -6.132000   -3.542000   -1.076000
  C     -7.651000   -5.113000    0.040000
  C     -4.324000    0.141000    0.037000
  C     -3.025000   -0.520000   -0.048000
  C     -4.422000   -3.566000    1.075000
  N     -6.407000   -4.313000    0.001000
  C     -2.867000   -1.922000   -0.040000
  C     -1.650000   -2.624000   -0.027000
  C      3.568000   -6.142000   -1.040000
  C     -1.476000   -4.049000   -0.034000
  C      2.803000   -4.099000   -0.008000
  C      3.657000   -4.384000    1.069000
  C      4.427000   -5.530000    1.059000
  C      5.245000   -7.588000    0.014000
  C     -0.134000   -4.315000   -0.022000
  C      0.568000   -3.064000   -0.027000
  C      2.775000   -5.012000   -1.074000
  N      4.376000   -6.391000    0.017000
  C      1.959000   -2.869000   -0.009000
  C      2.621000   -1.622000    0.009000
  C      5.543000    4.339000   -1.130000
  C      4.070000   -1.479000   -0.094000
  C      4.104000    2.751000   -0.021000
  C      5.027000    2.729000    1.036000
  C      6.166000    3.509000    0.978000
  C      7.619000    5.153000   -0.115000
  C      4.321000   -0.148000   -0.092000
  C      3.025000    0.514000    0.015000
  C      4.387000    3.582000   -1.115000
  C      2.866000    1.916000    0.013000
  N      6.413000    4.296000   -0.095000
  H     -3.167000    7.107000    1.609000
  H      2.274000    4.766000    0.081000
  H     -4.160000    3.454000   -1.520000
  H     -5.527000    5.531000   -1.418000
  H     -4.820000    8.289000   -0.667000
  H     -6.241000    7.335000   -0.145000
  H     -5.160000    8.066000    1.074000
  H     -0.332000    5.282000    0.069000
  H     -1.701000    5.097000    1.628000
  H      0.182000    1.072000    0.005000
  H     -0.183000   -1.080000   -0.021000
  H     -5.864000   -4.962000    1.895000
  H     -4.794000    2.272000    0.139000
  H     -4.800000   -2.160000   -1.994000
  H     -6.841000   -3.582000   -1.893000
  H     -8.428000   -4.536000    0.546000
  H     -7.956000   -5.337000   -0.981000
  H     -7.456000   -6.037000    0.584000
  H     -5.287000   -0.344000    0.100000
  H     -3.780000   -3.601000    1.947000
  H      3.587000   -6.868000   -1.843000
  H     -2.276000   -4.774000   -0.050000
  H      3.714000   -3.724000    1.926000
  H      5.092000   -5.795000    1.871000
  H      6.205000   -7.329000   -0.439000
  H      5.393000   -7.917000    1.042000
  H      4.759000   -8.373000   -0.564000
  H      0.329000   -5.290000   -0.008000
  H      2.146000   -4.842000   -1.940000
  H      5.808000    4.986000   -1.956000
  H      4.788000   -2.281000   -0.185000
  H      4.860000    2.114000    1.912000
  H      6.901000    3.531000    1.772000
  H      7.383000    6.109000    0.356000
  H      8.414000    4.652000    0.435000
  H      7.921000    5.310000   -1.150000
  H      5.283000    0.336000   -0.179000
  H      3.720000    3.632000   -1.967000

----------------------------
CARTESIAN COORDINATES (A.U.)
----------------------------
  NO LB      ZA    FRAG     MASS         X           Y           Z
   0 C     6.0000    0    12.011   -6.298457   11.854252    1.772563
   1 C     6.0000    0    12.011    2.785456    7.636383    0.107714
   2 C     6.0000    0    12.011   -5.295013    7.734649    0.092597
   3 C     6.0000    0    12.011   -7.375601    7.995431   -1.530678
   4 C     6.0000    0    12.011   -8.832580   10.159168   -1.455089
   5 C     6.0000    0    12.011   -9.847363   14.369478    0.168186
   6 C     6.0000    0    12.011    0.249444    8.139050    0.115273
   7 C     6.0000    0    12.011   -1.075254    5.775003    0.088817
   8 C     6.0000    0    12.011    3.116158    4.947303    0.043464
   9 C     6.0000    0    12.011   -4.779117    9.732090    1.759335
  10 N     7.0000    0    14.007   -8.290229   12.047004    0.183303
  11 N     7.0000    0    14.007    0.733214    3.906064    0.047243
  12 N     7.0000    0    14.007   -3.798350    0.746442   -0.141729
  13 N     7.0000    0    14.007   -0.733214   -3.919292   -0.051023
  14 N     7.0000    0    14.007    3.798350   -0.757780    0.122832
  15 C     6.0000    0    12.011   -3.703863    5.406506    0.045353
  16 C     6.0000    0    12.011   -4.956752    3.051908   -0.034015
  17 C     6.0000    0    12.011  -10.531444   -8.180624    2.014448
  18 C     6.0000    0    12.011   -7.696855    2.779787    0.105825
  19 C     6.0000    0    12.011   -7.759216   -5.208085   -0.049133
  20 C     6.0000    0    12.011   -9.439182   -5.209975   -2.099486
  21 C     6.0000    0    12.011  -11.587801   -6.693410   -2.033345
  22 C     6.0000    0    12.011  -14.458295   -9.662170    0.075589
  23 C     6.0000    0    12.011   -8.171176    0.266451    0.069920
  24 C     6.0000    0    12.011   -5.716422   -0.982658   -0.090707
  25 C     6.0000    0    12.011   -8.356369   -6.738763    2.031456
  26 N     7.0000    0    14.007  -12.107475   -8.150389    0.001890
  27 C     6.0000    0    12.011   -5.417845   -3.632054   -0.075589
  28 C     6.0000    0    12.011   -3.118048   -4.958641   -0.051023
  29 C     6.0000    0    12.011    6.742543  -11.606698   -1.965315
  30 C     6.0000    0    12.011   -2.789236   -7.651501   -0.064251
  31 C     6.0000    0    12.011    5.296902   -7.745987   -0.015118
  32 C     6.0000    0    12.011    6.910728   -8.284559    2.020117
  33 C     6.0000    0    12.011    8.365818  -10.450186    2.001220
  34 C     6.0000    0    12.011    9.911614  -14.339242    0.026456
  35 C     6.0000    0    12.011   -0.253223   -8.154168   -0.041574
  36 C     6.0000    0    12.011    1.073364   -5.790121   -0.051023
  37 C     6.0000    0    12.011    5.243990   -9.471307   -2.029566
  38 N     7.0000    0    14.007    8.269442  -12.077240    0.032125
  39 C     6.0000    0    12.011    3.701973   -5.421624   -0.017008
  40 C     6.0000    0    12.011    4.952972   -3.065136    0.017008
  41 C     6.0000    0    12.011   10.474752    8.199522   -2.135391
  42 C     6.0000    0    12.011    7.691185   -2.794905   -0.177634
  43 C     6.0000    0    12.011    7.755436    5.198637   -0.039684
  44 C     6.0000    0    12.011    9.499653    5.157063    1.957756
  45 C     6.0000    0    12.011   11.652051    6.631049    1.848152
  46 C     6.0000    0    12.011   14.397823    9.737759   -0.217319
  47 C     6.0000    0    12.011    8.165507   -0.279679   -0.173855
  48 C     6.0000    0    12.011    5.716422    0.971319    0.028346
  49 C     6.0000    0    12.011    8.290229    6.768999   -2.107045
  50 C     6.0000    0    12.011    5.415955    3.620715    0.024566
  51 N     7.0000    0    14.007   12.118814    8.118263   -0.179524
  52 H     1.0000    0     1.008   -5.984763   13.430284    3.040569
  53 H     1.0000    0     1.008    4.297237    9.006435    0.153068
  54 H     1.0000    0     1.008   -7.861261    6.527114   -2.872384
  55 H     1.0000    0     1.008  -10.444516   10.452075   -2.679632
  56 H     1.0000    0     1.008   -9.108480   15.663940   -1.260447
  57 H     1.0000    0     1.008  -11.793781   13.861141   -0.274010
  58 H     1.0000    0     1.008   -9.750987   15.242531    2.029566
  59 H     1.0000    0     1.008   -0.627389    9.981533    0.130391
  60 H     1.0000    0     1.008   -3.214424    9.631934    3.076474
  61 H     1.0000    0     1.008    0.343930    2.025786    0.009449
  62 H     1.0000    0     1.008   -0.345820   -2.040904   -0.039684
  63 H     1.0000    0     1.008  -11.081354   -9.376821    3.581031
  64 H     1.0000    0     1.008   -9.059347    4.293458    0.262672
  65 H     1.0000    0     1.008   -9.070685   -4.081808   -3.768114
  66 H     1.0000    0     1.008  -12.927616   -6.768999   -3.577252
  67 H     1.0000    0     1.008  -15.926612   -8.571798    1.031790
  68 H     1.0000    0     1.008  -15.034661  -10.085468   -1.853821
  69 H     1.0000    0     1.008  -14.089798  -11.408277    1.103600
  70 H     1.0000    0     1.008   -9.990982   -0.650066    0.188973
  71 H     1.0000    0     1.008   -7.143165   -6.804904    3.679297
  72 H     1.0000    0     1.008    6.778448  -12.978639   -3.482765
  73 H     1.0000    0     1.008   -4.301017   -9.021553   -0.094486
  74 H     1.0000    0     1.008    7.018443   -7.037340    3.639613
  75 H     1.0000    0     1.008    9.622485  -10.950963    3.535678
  76 H     1.0000    0     1.008   11.725751  -13.849803   -0.829590
  77 H     1.0000    0     1.008   10.191293  -14.960962    1.969095
  78 H     1.0000    0     1.008    8.993207  -15.822677   -1.065806
  79 H     1.0000    0     1.008    0.621720   -9.996651   -0.015118
  80 H     1.0000    0     1.008    4.055352   -9.150054   -3.666069
  81 H     1.0000    0     1.008   10.975529    9.422175   -3.696304
  82 H     1.0000    0     1.008    9.048009   -4.310465   -0.349599
  83 H     1.0000    0     1.008    9.184069    3.994881    3.613156
  84 H     1.0000    0     1.008   13.041000    6.672623    3.348595
  85 H     1.0000    0     1.008   13.951848   11.544337    0.672743
  86 H     1.0000    0     1.008   15.900156    8.791006    0.822031
  87 H     1.0000    0     1.008   14.968521   10.034446   -2.173185
  88 H     1.0000    0     1.008    9.983423    0.634948   -0.338261
  89 H     1.0000    0     1.008    7.029781    6.863485   -3.717091

--------------------------------
INTERNAL COORDINATES (ANGSTROEM)
--------------------------------
 C      0   0   0     0.000000000000     0.00000000     0.00000000
 C      1   0   0     5.372637527323     0.00000000     0.00000000
 C      1   2   0     2.413437797002    50.76428882     0.00000000
 C      3   1   2     1.403255500613    87.93860099   216.81003500
 C      4   3   1     1.380965604206   120.12288743     0.16337308
 C      5   4   3     2.447495454541   152.55264945     1.54762754
 C      2   1   3     1.368114030335    16.48517712    13.18980217
 C      7   2   1     1.434084376876   108.05010202   213.96708774
 C      2   1   3     1.434123425651   121.68726322   335.47061100
 C      1   2   3     1.381156761559    30.74479410    35.89371119
 N      1   2   3     1.352257741705   128.80935917   309.74272434
 N      9   2   1     1.376127174356   106.58526707     9.76875145
 N     12   9   2     2.925062050624   168.53581413   171.12065651
 N     13  12   9     2.954513327098    91.55032014    11.12112580
 N     14  13  12     2.925371258490    88.43092389   359.84326247
 C      8   7   2     1.404790019896   127.24786865   181.11170171
 C     13  12   9     1.366535034311    81.72106996   188.00453233
 C     14  13  12     5.758810554272    80.56209567   166.76250791
 C     17  13  12     1.459010623676   111.08861209   183.82872609
 C     18  14  13     2.412235892279    27.27532823    36.33507194
 C     20  18  14     1.402692767501    87.95206320   148.94598259
 C     21  20  18     1.382106725257   120.14573887   359.70382047
 C     18  14  13     2.446510985056   144.15733107    82.80075377
 C     19  17  13     1.353610726908   106.29293361   359.75308708
 C     13  12   9     1.366813447402   172.21332906    33.46711076
 C     18  14  13     1.380960173213    15.08449437   309.23336894
 N     22  21  20     1.352773077792   120.73759875     0.27865223
 C     25  13  17     1.410897586645   125.60330303   182.37774668
 C     14  13  12     1.376642291955    80.24689249   177.85461986
 C     14  13  12     5.764089607215   164.51507311   312.20821879
 C     29  14  13     1.435600919476   106.58649366   178.76395472
 C     30  14  13     2.413316804732    27.10625047    82.12560436
 C     32  30  14     1.403734305344    87.90059683   149.76154742
 C     33  32  30     1.380694028378   120.14881443   359.74174632
 C     34  33  32     2.448777858443   152.49203239     2.45173620
 C     31  29  14     1.368160809262   108.16950133     0.70383075
 C     14  13  12     1.376239804685   169.26375223   353.09862627
 C     30  14  13     1.380907310430    14.68948582   353.70041132
 N     34  33  32     1.352658863128   120.85575621     0.19603406
 C     37  14  29     1.404717053360   126.01551127   180.90772073
 C     15  14  13     1.366491126938    81.61824056   183.09049352
 C      2   1   3     4.249062720177   150.86509644   143.27077286
 C     41  15  14     1.459677704153   111.05201287   175.08990246
 C     42   2   1     2.412953791518    41.78584867   166.73021861
 C     44  42   2     1.403446472082    87.95153797   233.97558675
 C     45  44  42     1.381696421071   120.11137308     0.19721020
 C     42   2   1     2.450019795838   135.97209175    77.04506771
 C     43  41  15     1.354461516618   106.26758155     0.30894352
 C     15  14  13     1.367461151185   171.87382904   332.35056460
 C     42   2   1     1.381886391857    32.59078432   215.58549780
 C      9   2   1     1.404988612053   126.98745415   190.77308898
 N     42   2   1     1.352765315936   113.57249190   104.78165690
 H      1   2   3     1.083214198578   106.51835995   162.98598416
 H      2   1   3     1.079907866440   112.34984358   165.05483042
 H      4   3   1     1.083456505818   121.11325422   179.55511591
 H      5   4   3     1.082376089906   122.77782419   179.48343254
 H      6   5   4     1.092539244146   104.44017769   100.15476692
 H      6   5   4     1.089961925941    84.68246072   209.61660984
 H      6   5   4     1.089160226964   133.88963669   322.48333458
 H      7   2   1     1.079807853278   126.66122480    34.20550152
 H     10   1   2     1.083606016964   118.77139358    65.63783116
 H     12   9   2     1.016297692608   125.29023241   180.00180175
 H     14  13  12     1.014936943854    44.97226959   359.42596618
 H     18  14  13     1.082871645210   128.03556573   234.20482432
 H     19  17  13     1.080893611786   126.41830519   178.11313280
 H     21  20  18     1.083569563987   121.05669627   180.67006309
 H     22  21  20     1.082483256222   122.73097286   180.59748951
 H     23  18  14     1.092105306278   103.92715769   234.93429879
 H     23  18  14     1.088871893291   134.19244188    12.25587044
 H     23  18  14     1.089833473518    84.85857450   125.45241208
 H     24  19  17     1.080075460327   127.28078426   178.44613241
 H     26  18  14     1.083408048706   118.76995697   244.94906660
 H     30  14  13     1.082703098730   127.99711412   279.66882698
 H     31  29  14     1.079759695488   125.22293469   180.92530585
 H     33  32  30     1.083188810873   121.01964473   180.74284758
 H     34  33  32     1.082494341787   122.70821597   180.59516895
 H     35  34  33     1.092652735319   105.73575241    97.19771933
 H     35  34  33     1.089462711615    84.05943581   206.43036958
 H     35  34  33     1.089268102902   133.08365142   318.50306270
 H     36  31  29     1.079439669458   126.61599965   178.98859863
 H     38  30  73     1.083742127999   118.77264435   359.90091293
 H     42   2   1     1.082178358682   119.31790784   321.41318736
 H     43  41  15     1.080281907652   126.36969097   182.06329380
 H     45  44  42     1.083277434455   121.10105945   179.58025624
 H     46  45  44     1.082194529648   122.72144639   179.46906377
 H     47  42   2     1.091546151109   106.65128841   315.16475048
 H     47  42   2     1.088818625851   132.46019523    94.52397119
 H     47  42   2     1.089531091801    83.63838232   206.04504406
 H     48  43  41     1.080402239909   127.23657387   181.62955349
 H     50  42   2     1.083186502870   118.77001737    94.71359229

---------------------------
INTERNAL COORDINATES (A.U.)
---------------------------
 C      0   0   0     0.000000000000     0.00000000     0.00000000
 C      1   0   0    10.152813543468     0.00000000     0.00000000
 C      1   2   0     4.560736477589    50.76428882     0.00000000
 C      3   1   2     2.651768592077    87.93860099   216.81003500
 C      4   3   1     2.609646792314   120.12288743     0.16337308
 C      5   4   3     4.625096123100   152.55264945     1.54762754
 C      2   1   3     2.585360837309    16.48517712    13.18980217
 C      7   2   1     2.710026725231   108.05010202   213.96708774
 C      2   1   3     2.710100516721   121.68726322   335.47061100
 C      1   2   3     2.610008027360    30.74479410    35.89371119
 N      1   2   3     2.555396794296   128.80935917   309.74272434
 N      9   2   1     2.600503484979   106.58526707     9.76875145
 N     12   9   2     5.527566200405   168.53581413   171.12065651
 N     13  12   9     5.583221047236    91.55032014    11.12112580
 N     14  13  12     5.528150518591    88.43092389   359.84326247
 C      8   7   2     2.654668413270   127.24786865   181.11170171
 C     13  12   9     2.582376967257    81.72106996   188.00453233
 C     14  13  12    10.882574804710    80.56209567   166.76250791
 C     17  13  12     2.757130505230   111.08861209   183.82872609
 C     18  14  13     4.558465206823    27.27532823    36.33507194
 C     20  18  14     2.650705180609    87.95206320   148.94598259
 C     21  20  18     2.611803198586   120.14573887   359.70382047
 C     18  14  13     4.623235745386   144.15733107    82.80075377
 C     19  17  13     2.557953565794   106.29293361   359.75308708
 C     13  12   9     2.582903091751   172.21332906    33.46711076
 C     18  14  13     2.609636529225    15.08449437   309.23336894
 N     22  21  20     2.556370638369   120.73759875     0.27865223
 C     25  13  17     2.666210041769   125.60330303   182.37774668
 C     14  13  12     2.601476916169    80.24689249   177.85461986
 C     14  13  12    10.892550769017   164.51507311   312.20821879
 C     29  14  13     2.712892575415   106.58649366   178.76395472
 C     30  14  13     4.560507835333    27.10625047    82.12560436
 C     32  30  14     2.652673401891    87.90059683   149.76154742
 C     33  32  30     2.609133588376   120.14881443   359.74174632
 C     34  33  32     4.627519515267   152.49203239     2.45173620
 C     31  29  14     2.585449236669   108.16950133     0.70383075
 C     14  13  12     2.600716325456   169.26375223   353.09862627
 C     30  14  13     2.609536633043    14.68948582   353.70041132
 N     34  33  32     2.556154803934   120.85575621     0.19603406
 C     37  14  29     2.654530526499   126.01551127   180.90772073
 C     15  14  13     2.582293994346    81.61824056   183.09049352
 C      2   1   3     8.029564866989   150.86509644   143.27077286
 C     41  15  14     2.758391104639   111.05201287   175.08990246
 C     42   2   1     4.559821839776    41.78584867   166.73021861
 C     44  42   2     2.652129475853    87.95153797   233.97558675
 C     45  44  42     2.611027836043   120.11137308     0.19721020
 C     42   2   1     4.629866436820   135.97209175    77.04506771
 C     43  41  15     2.559561325344   106.26758155     0.30894352
 C     15  14  13     2.584127074516   171.87382904   332.35056460
 C     42   2   1     2.611386828803    32.59078432   215.58549780
 C      9   2   1     2.655043698059   126.98745415   190.77308898
 N     42   2   1     2.556355970587   113.57249190   104.78165690
 H      1   2   3     2.046978179687   106.51835995   162.98598416
 H      2   1   3     2.040730117440   112.34984358   165.05483042
 H      4   3   1     2.047436074012   121.11325422   179.55511591
 H      5   4   3     2.045394383827   122.77782419   179.48343254
 H      6   5   4     2.064599961998   104.44017769   100.15476692
 H      6   5   4     2.059729536429    84.68246072   209.61660984
 H      6   5   4     2.058214544921   133.88963669   322.48333458
 H      7   2   1     2.040541119952   126.66122480    34.20550152
 H     10   1   2     2.047718609131   118.77139358    65.63783116
 H     12   9   2     1.920524309565   125.29023241   180.00180175
 H     14  13  12     1.917952867083    44.97226959   359.42596618
 H     18  14  13     2.046330847636   128.03556573   234.20482432
 H     19  17  13     2.042592906181   126.41830519   178.11313280
 H     21  20  18     2.047649722989   121.05669627   180.67006309
 H     22  21  20     2.045596898814   122.73097286   180.59748951
 H     23  18  14     2.063779938267   103.92715769   234.93429879
 H     23  18  14     2.057669673245   134.19244188    12.25587044
 H     23  18  14     2.059486796529    84.85857450   125.45241208
 H     24  19  17     2.041046823986   127.28078426   178.44613241
 H     26  18  14     2.047344503340   118.76995697   244.94906660
 H     30  14  13     2.046012340948   127.99711412   279.66882698
 H     31  29  14     2.040450114918   125.22293469   180.92530585
 H     33  32  30     2.046930203877   121.01964473   180.74284758
 H     34  33  32     2.045617847496   122.70821597   180.59516895
 H     35  34  33     2.064814429233   105.73575241    97.19771933
 H     35  34  33     2.058786158072    84.05943581   206.43036958
 H     35  34  33     2.058418400901   133.08365142   318.50306270
 H     36  31  29     2.039845353366   126.61599965   178.98859863
 H     38  30  73     2.047975821711   118.77264435   359.90091293
 H     42   2   1     2.045020725966   119.31790784   321.41318736
 H     43  41  15     2.041436952892   126.36969097   182.06329380
 H     45  44  42     2.047097678177   121.10105945   179.58025624
 H     46  45  44     2.045051284662   122.72144639   179.46906377
 H     47  42   2     2.062723288131   106.65128841   315.16475048
 H     47  42   2     2.057569012371   132.46019523    94.52397119
 H     47  42   2     2.058915377895    83.63838232   206.04504406
 H     48  43  41     2.041664347903   127.23657387   181.62955349
 H     50  42   2     2.046925842384   118.77001737    94.71359229

---------------------
BASIS SET INFORMATION
---------------------
There are 3 groups of distinct atoms

 Group   1 Type C   : 17s4p1d contracted to 3s2p1d pattern {881/31/1}
 Group   2 Type N   : 17s4p1d contracted to 3s2p1d pattern {881/31/1}
 Group   3 Type H   : 4s1p contracted to 2s1p pattern {31/1}

Atom   0C    basis set group =>   1
Atom   1N    basis set group =>   2
Atom   2C    basis set group =>   1
Atom   3N    basis set group =>   2
Atom   4C    basis set group =>   1
Atom   5N    basis set group =>   2
Atom   6C    basis set group =>   1
Atom   7N    basis set group =>   2
Atom   8C    basis set group =>   1
Atom   9N    basis set group =>   2
Atom  10C    basis set group =>   1
Atom  11N    basis set group =>   2
Atom  12C    basis set group =>   1
Atom  13N    basis set group =>   2
Atom  14C    basis set group =>   1
Atom  15N    basis set group =>   2
Atom  16C    basis set group =>   1
Atom  17C    basis set group =>   1
Atom  18C    basis set group =>   1
Atom  19C    basis set group =>   1
Atom  20C    basis set group =>   1
Atom  21C    basis set group =>   1
Atom  22C    basis set group =>   1
Atom  23C    basis set group =>   1
Atom  24C    basis set group =>   1
Atom  25C    basis set group =>   1
Atom  26C    basis set group =>   1
Atom  27C    basis set group =>   1
Atom  28C    basis set group =>   1
Atom  29C    basis set group =>   1
Atom  30C    basis set group =>   1
Atom  31C    basis set group =>   1
Atom  32C    basis set group =>   1
Atom  33C    basis set group =>   1
Atom  34C    basis set group =>   1
Atom  35C    basis set group =>   1
Atom  36C    basis set group =>   1
Atom  37C    basis set group =>   1
Atom  38C    basis set group =>   1
Atom  39C    basis set group =>   1
Atom  40C    basis set group =>   1
Atom  41C    basis set group =>   1
Atom  42C    basis set group =>   1
Atom  43C    basis set group =>   1
Atom  44C    basis set group =>   1
Atom  45C    basis set group =>   1
Atom  46C    basis set group =>   1
Atom  47C    basis set group =>   1
Atom  48C    basis set group =>   1
Atom  49C    basis set group =>   1
Atom  50C    basis set group =>   1
Atom  51C    basis set group =>   1
Atom  52H    basis set group =>   3
Atom  53H    basis set group =>   3
Atom  54H    basis set group =>   3
Atom  55H    basis set group =>   3
Atom  56H    basis set group =>   3
Atom  57H    basis set group =>   3
Atom  58H    basis set group =>   3
Atom  59H    basis set group =>   3
Atom  60H    basis set group =>   3
Atom  61H    basis set group =>   3
Atom  62H    basis set group =>   3
Atom  63H    basis set group =>   3
Atom  64H    basis set group =>   3
Atom  65H    basis set group =>   3
Atom  66H    basis set group =>   3
Atom  67H    basis set group =>   3
Atom  68H    basis set group =>   3
Atom  69H    basis set group =>   3
Atom  70H    basis set group =>   3
Atom  71H    basis set group =>   3
Atom  72H    basis set group =>   3
Atom  73H    basis set group =>   3
Atom  74H    basis set group =>   3
Atom  75H    basis set group =>   3
Atom  76H    basis set group =>   3
Atom  77H    basis set group =>   3
Atom  78H    basis set group =>   3
Atom  79H    basis set group =>   3
Atom  80H    basis set group =>   3
Atom  81H    basis set group =>   3
Atom  82H    basis set group =>   3
Atom  83H    basis set group =>   3
Atom  84H    basis set group =>   3
Atom  85H    basis set group =>   3
Atom  86H    basis set group =>   3
Atom  87H    basis set group =>   3
Atom  88H    basis set group =>   3
Atom  89H    basis set group =>   3


           ************************************************************
           *        Program running with 8 parallel MPI-processes     *
           *              working on a common directory               *
           ************************************************************
------------------------------------------------------------------------------
                           ORCA GTO INTEGRAL CALCULATION
------------------------------------------------------------------------------
------------------------------------------------------------------------------
                   ___                                                        
                  /   \      - P O W E R E D   B Y -                         
                 /     \                                                     
                 |  |  |   _    _      __       _____    __    __             
                 |  |  |  | |  | |    /  \     |  _  \  |  |  /  |          
                  \  \/   | |  | |   /    \    | | | |  |  | /  /          
                 / \  \   | |__| |  /  /\  \   | |_| |  |  |/  /          
                |  |  |   |  __  | /  /__\  \  |    /   |      \           
                |  |  |   | |  | | |   __   |  |    \   |  |\   \          
                \     /   | |  | | |  |  |  |  | |\  \  |  | \   \       
                 \___/    |_|  |_| |__|  |__|  |_| \__\ |__|  \__/        
                                                                              
                      - O R C A' S   B I G   F R I E N D -                    
                                      &                                       
                       - I N T E G R A L  F E E D E R -                       
                                                                              
 v1 FN, 2020, v2 2021                                                         
------------------------------------------------------------------------------


Reading SHARK input file /scratch/chu_02/allen/tmpyp4_amber_gaff2/conf1/conf1/Conf316.orca.SHARKINP.tmp ... ok
----------------------
SHARK INTEGRAL PACKAGE
----------------------

Number of atoms                             ...     90
Number of basis functions                   ...   1230
Number of shells                            ...    738
Maximum angular momentum                    ...      2
Integral batch strategy                     ... SHARK/LIBINT Hybrid
RI-J (if used) integral strategy            ... SPLIT-RIJ (Revised 2003 algorithm where possible)
Printlevel                                  ...      1
Contraction scheme used                     ... PARTIAL GENERAL contraction
Coulomb Range Separation                    ... NOT USED
Exchange Range Separation                   ... NOT USED
Finite Nucleus Model                        ... NOT USED
Auxiliary Coulomb fitting basis             ... NOT available
Auxiliary J/K fitting basis                 ... NOT available
Auxiliary Correlation fitting basis         ... NOT available
Auxiliary 'external' fitting basis          ... NOT available
Integral threshold                          ...     2.500000e-11
Primitive cut-off                           ...     2.500000e-12
Primitive pair pre-selection threshold      ...     2.500000e-12

Calculating pre-screening integrals         ... done (  0.1 sec) Dimension = 738
Calculating pre-screening integrals (ORCA)  ... done (  0.3 sec) Dimension = 426
Organizing shell pair data                  ... done (  0.5 sec)
Shell pair information
Total number of shell pairs                 ...    272691
Shell pairs after pre-screening             ...     71619
Total number of primitive shell pairs       ...    422091
Primitive shell pairs kept                  ...     92404
          la=0 lb=0:  29417 shell pairs
          la=1 lb=0:  25971 shell pairs
          la=1 lb=1:   4704 shell pairs
          la=2 lb=0:   7875 shell pairs
          la=2 lb=1:   3122 shell pairs
          la=2 lb=2:    530 shell pairs

Calculating one electron integrals          ... done (  0.2 sec)
Calculating Nuclear repulsion               ... done (  0.0 sec) ENN=   6227.585139508513 Eh

SHARK setup successfully completed in   1.5 seconds

Maximum memory used throughout the entire GTOINT-calculation: 99.0 MB


           ************************************************************
           *        Program running with 8 parallel MPI-processes     *
           *              working on a common directory               *
           ************************************************************
-------------------------------------------------------------------------------
                                 ORCA SCF
-------------------------------------------------------------------------------

------------
SCF SETTINGS
------------
Hamiltonian:
 Ab initio Hamiltonian  Method          .... Hartree-Fock(GTOs)


General Settings:
 Integral files         IntName         .... /scratch/chu_02/allen/tmpyp4_amber_gaff2/conf1/conf1/Conf316.orca
 Hartree-Fock type      HFTyp           .... RHF
 Total Charge           Charge          ....    0
 Multiplicity           Mult            ....    1
 Number of Electrons    NEL             ....  358
 Basis Dimension        Dim             ....  918
 Nuclear Repulsion      ENuc            ....   6227.5851395085 Eh

Convergence Acceleration:
 DIIS                   CNVDIIS         .... on
   Start iteration      DIISMaxIt       ....    12
   Startup error        DIISStart       ....  0.200000
   # of expansion vecs  DIISMaxEq       ....     5
   Bias factor          DIISBfac        ....   1.050
   Max. coefficient     DIISMaxC        ....  10.000
 Trust-Rad. Augm. Hess. CNVTRAH         .... auto
   Auto Start mean grad. ratio tolernc. ....  1.125000
   Auto Start start iteration           ....    20
   Auto Start num. interpolation iter.  ....    10
   Max. Number of Micro iterations      ....    16
   Max. Number of Macro iterations      .... Maxiter - #DIIS iter
   Number of Davidson start vectors     ....     2
   Converg. threshold I  (grad. norm)   ....   1.000e-05
   Converg. threshold II (energy diff.) ....   1.000e-08
   Grad. Scal. Fac. for Micro threshold ....   0.100
   Minimum threshold for Micro iter.    ....   0.010
   NR start threshold (gradient norm)   ....   0.001
   Initial trust radius                 ....   0.400
   Minimum AH scaling param. (alpha)    ....   1.000
   Maximum AH scaling param. (alpha)    .... 1000.000
   Orbital update algorithm             .... Taylor
   White noise on init. David. guess    .... on
   Maximum white noise                  ....   0.010
   Quad. conv. algorithm                .... NR
 SOSCF                  CNVSOSCF        .... on
   Start iteration      SOSCFMaxIt      ....   150
   Startup grad/error   SOSCFStart      ....  0.003300
 Level Shifting         CNVShift        .... on
   Level shift para.    LevelShift      ....    0.2500
   Turn off err/grad.   ShiftErr        ....    0.0010
 Zerner damping         CNVZerner       .... off
 Static damping         CNVDamp         .... on
   Fraction old density DampFac         ....    0.7000
   Max. Damping (<1)    DampMax         ....    0.9800
   Min. Damping (>=0)   DampMin         ....    0.0000
   Turn off err/grad.   DampErr         ....    0.1000
 Fernandez-Rico         CNVRico         .... off

SCF Procedure:
 Maximum # iterations   MaxIter         ....   125
 SCF integral mode      SCFMode         .... Direct
   Integral package                     .... SHARK and LIBINT hybrid scheme
 Reset frequency        DirectResetFreq ....    20
 Integral Threshold     Thresh          ....  2.500e-11 Eh
 Primitive CutOff       TCut            ....  2.500e-12 Eh

Convergence Tolerance:
 Convergence Check Mode ConvCheckMode   .... Total+1el-Energy
 Convergence forced     ConvForced      .... 1
 Energy Change          TolE            ....  1.000e-08 Eh
 1-El. energy change                    ....  1.000e-05 Eh
 Orbital Gradient       TolG            ....  1.000e-05
 Orbital Rotation angle TolX            ....  1.000e-05
 DIIS Error             TolErr          ....  5.000e-07


Diagonalization of the overlap matrix:
Smallest eigenvalue                        ... 2.241e-04
Time for diagonalization                   ...    0.211 sec
Threshold for overlap eigenvalues          ... 1.000e-08
Number of eigenvalues below threshold      ... 0
Time for construction of square roots      ...    0.122 sec
Total time needed                          ...    0.337 sec

Time for model grid setup =    1.328 sec

------------------------------
INITIAL GUESS: MODEL POTENTIAL
------------------------------
Loading Hartree-Fock densities                     ... done
Calculating cut-offs                               ... done
Initializing the effective Hamiltonian             ... done
Setting up the integral package (SHARK)            ... done
Starting the Coulomb interaction                   ... done (   1.6 sec)
Reading the grid                                   ... done
Mapping shells                                     ... done
Starting the XC term evaluation                    ... done (   0.3 sec)
Transforming the Hamiltonian                       ... done (   0.1 sec)
Diagonalizing the Hamiltonian                      ... done (   0.2 sec)
Back transforming the eigenvectors                 ... done (   0.0 sec)
Now organizing SCF variables                       ... done
                      ------------------
                      INITIAL GUESS DONE (   3.6 sec)
                      ------------------
--------------
SCF ITERATIONS
--------------
ITER       Energy         Delta-E        Max-DP      RMS-DP      [F,P]     Damp
               ***  Starting incremental Fock matrix formation  ***
  0  -2121.6919552926   0.000000000000 0.06873919  0.00120716  0.2325651 0.7000
  1  -2122.3520396328  -0.660084340254 0.05211442  0.00098031  0.1439785 0.7000
                               ***Turning on DIIS***
  2  -2122.7620794562  -0.410039823393 0.11828251  0.00222401  0.0802396 0.0000
  3  -2117.8402809844   4.921798471853 0.03018618  0.00067269  0.0440973 0.0000
  4  -2123.4307697980  -5.590488813657 0.00888723  0.00022607  0.0072661 0.0000
  5  -2123.5995257825  -0.168755984452 0.00514547  0.00013316  0.0049929 0.0000
  6  -2123.5823166825   0.017209099997 0.00347785  0.00008585  0.0019485 0.0000
  7  -2123.6836647688  -0.101348086297 0.00294876  0.00006741  0.0015361 0.0000
  8  -2123.6975512248  -0.013886456036 0.00307979  0.00006310  0.0014269 0.0000
  9  -2123.6646795364   0.032871688391 0.00247017  0.00004343  0.0011321 0.0000
 10  -2123.6758163247  -0.011136788224 0.00503421  0.00008742  0.0008683 0.0000
                      *** Initiating the SOSCF procedure ***
                           *** Shutting down DIIS ***
                      *** Re-Reading the Fockian *** 
                      *** Removing any level shift *** 
ITER      Energy       Delta-E        Grad      Rot      Max-DP    RMS-DP
 11  -2123.56444969   0.1113666320  0.000237  0.000237  0.000259  0.000006
               *** Restarting incremental Fock matrix formation ***
 12  -2123.62920971  -0.0647600175  0.000853  0.005738  0.001224  0.000030
 13  -2123.62929009  -0.0000803842  0.000984  0.026886  0.005840  0.000115
 14  -2123.62941899  -0.0001288911  0.000413  0.001884  0.000531  0.000012
 15  -2123.62943418  -0.0000151925  0.000180  0.003855  0.000952  0.000018
 16  -2123.62944402  -0.0000098411  0.000160  0.004210  0.000691  0.000014
 17  -2123.62944815  -0.0000041291  0.000141  0.002825  0.000378  0.000009
 18  -2123.62945029  -0.0000021406  0.000077  0.001266  0.000305  0.000005
 19  -2123.62945129  -0.0000010048  0.000054  0.000515  0.000157  0.000003
 20  -2123.62945159  -0.0000002984  0.000025  0.000480  0.000112  0.000002
 21  -2123.62945175  -0.0000001582  0.000024  0.000247  0.000077  0.000001
 22  -2123.62945183  -0.0000000845  0.000014  0.000324  0.000099  0.000002
 23  -2123.62945189  -0.0000000554  0.000009  0.000152  0.000043  0.000001
 24  -2123.62945191  -0.0000000221  0.000005  0.000110  0.000028  0.000000
 25  -2123.62945192  -0.0000000104  0.000004  0.000072  0.000017  0.000000
                  ***Gradient check signals convergence***
              ***Rediagonalizing the Fockian in SOSCF/NRSCF***

               *****************************************************
               *                     SUCCESS                       *
               *           SCF CONVERGED AFTER  26 CYCLES          *
               *****************************************************


----------------
TOTAL SCF ENERGY
----------------

Total Energy       :        -2123.62945193 Eh          -57786.89522 eV

Components:
Nuclear Repulsion  :         6227.58513951 Eh          169461.20689 eV
Electronic Energy  :        -8351.21459144 Eh         -227248.10210 eV
One Electron Energy:       -15296.14272160 Eh         -416229.20414 eV
Two Electron Energy:         6944.92813016 Eh          188981.10204 eV

Virial components:
Potential Energy   :        -4245.66722718 Eh         -115530.47871 eV
Kinetic Energy     :         2122.03777525 Eh           57743.58349 eV
Virial Ratio       :            2.00075007


---------------
SCF CONVERGENCE
---------------

  Last Energy change         ...   -7.2723e-09  Tolerance :   1.0000e-08
  Last MAX-Density change    ...    1.4912e-05  Tolerance :   1.0000e-07
  Last RMS-Density change    ...    3.1013e-07  Tolerance :   5.0000e-09
  Last Orbital Gradient      ...    2.4339e-06  Tolerance :   1.0000e-05
  Last Orbital Rotation      ...    8.4327e-05  Tolerance :   1.0000e-05

             **** THE GBW FILE WAS UPDATED (/scratch/chu_02/allen/tmpyp4_amber_gaff2/conf1/conf1/Conf316.orca.gbw) ****
             **** DENSITY /scratch/chu_02/allen/tmpyp4_amber_gaff2/conf1/conf1/Conf316.orca.scfp WAS UPDATED ****
             **** ENERGY FILE WAS UPDATED (/scratch/chu_02/allen/tmpyp4_amber_gaff2/conf1/conf1/Conf316.orca.en.tmp) ****
             **** THE GBW FILE WAS UPDATED (/scratch/chu_02/allen/tmpyp4_amber_gaff2/conf1/conf1/Conf316.orca.gbw) ****
             **** DENSITY /scratch/chu_02/allen/tmpyp4_amber_gaff2/conf1/conf1/Conf316.orca.scfp WAS UPDATED ****
----------------
ORBITAL ENERGIES
----------------

  NO   OCC          E(Eh)            E(eV) 
   0   2.0000     -15.659876      -426.1269 
   1   2.0000     -15.638725      -425.5513 
   2   2.0000     -15.628554      -425.2746 
   3   2.0000     -15.601558      -424.5400 
   4   2.0000     -15.523021      -422.4029 
   5   2.0000     -15.515709      -422.2039 
   6   2.0000     -15.448809      -420.3835 
   7   2.0000     -15.443655      -420.2432 
   8   2.0000     -11.315601      -307.9132 
   9   2.0000     -11.313352      -307.8520 
  10   2.0000     -11.310948      -307.7865 
  11   2.0000     -11.302246      -307.5497 
  12   2.0000     -11.296102      -307.3826 
  13   2.0000     -11.295775      -307.3737 
  14   2.0000     -11.291975      -307.2703 
  15   2.0000     -11.287182      -307.1398 
  16   2.0000     -11.284478      -307.0663 
  17   2.0000     -11.280160      -306.9487 
  18   2.0000     -11.265901      -306.5607 
  19   2.0000     -11.263890      -306.5060 
  20   2.0000     -11.263279      -306.4894 
  21   2.0000     -11.249302      -306.1091 
  22   2.0000     -11.248391      -306.0843 
  23   2.0000     -11.242245      -305.9170 
  24   2.0000     -11.234518      -305.7068 
  25   2.0000     -11.233949      -305.6913 
  26   2.0000     -11.233185      -305.6705 
  27   2.0000     -11.226975      -305.5015 
  28   2.0000     -11.226753      -305.4955 
  29   2.0000     -11.211166      -305.0713 
  30   2.0000     -11.207008      -304.9582 
  31   2.0000     -11.206221      -304.9368 
  32   2.0000     -11.206027      -304.9315 
  33   2.0000     -11.205910      -304.9283 
  34   2.0000     -11.190865      -304.5189 
  35   2.0000     -11.190525      -304.5097 
  36   2.0000     -11.182310      -304.2861 
  37   2.0000     -11.179281      -304.2037 
  38   2.0000     -11.178720      -304.1884 
  39   2.0000     -11.174035      -304.0609 
  40   2.0000     -11.168080      -303.8989 
  41   2.0000     -11.167764      -303.8903 
  42   2.0000     -11.165298      -303.8232 
  43   2.0000     -11.165174      -303.8198 
  44   2.0000     -11.164196      -303.7932 
  45   2.0000     -11.161777      -303.7274 
  46   2.0000     -11.152028      -303.4621 
  47   2.0000     -11.149491      -303.3931 
  48   2.0000     -11.148247      -303.3592 
  49   2.0000     -11.145392      -303.2815 
  50   2.0000     -11.137360      -303.0630 
  51   2.0000     -11.132147      -302.9211 
  52   2.0000      -1.343408       -36.5560 
  53   2.0000      -1.325296       -36.0631 
  54   2.0000      -1.316635       -35.8275 
  55   2.0000      -1.294494       -35.2250 
  56   2.0000      -1.222925       -33.2775 
  57   2.0000      -1.210955       -32.9518 
  58   2.0000      -1.166428       -31.7401 
  59   2.0000      -1.155310       -31.4376 
  60   2.0000      -1.129258       -30.7287 
  61   2.0000      -1.113527       -30.3006 
  62   2.0000      -1.106169       -30.1004 
  63   2.0000      -1.088496       -29.6195 
  64   2.0000      -1.066292       -29.0153 
  65   2.0000      -1.049251       -28.5516 
  66   2.0000      -1.041344       -28.3364 
  67   2.0000      -1.032277       -28.0897 
  68   2.0000      -1.021517       -27.7969 
  69   2.0000      -1.013464       -27.5777 
  70   2.0000      -1.009380       -27.4666 
  71   2.0000      -0.993256       -27.0279 
  72   2.0000      -0.987051       -26.8590 
  73   2.0000      -0.975587       -26.5471 
  74   2.0000      -0.972952       -26.4754 
  75   2.0000      -0.958872       -26.0922 
  76   2.0000      -0.950771       -25.8718 
  77   2.0000      -0.947386       -25.7797 
  78   2.0000      -0.937127       -25.5005 
  79   2.0000      -0.921830       -25.0843 
  80   2.0000      -0.898115       -24.4390 
  81   2.0000      -0.889065       -24.1927 
  82   2.0000      -0.876189       -23.8423 
  83   2.0000      -0.869508       -23.6605 
  84   2.0000      -0.864172       -23.5153 
  85   2.0000      -0.854756       -23.2591 
  86   2.0000      -0.845725       -23.0134 
  87   2.0000      -0.839230       -22.8366 
  88   2.0000      -0.822065       -22.3695 
  89   2.0000      -0.798750       -21.7351 
  90   2.0000      -0.795321       -21.6418 
  91   2.0000      -0.743239       -20.2246 
  92   2.0000      -0.736330       -20.0366 
  93   2.0000      -0.731474       -19.9044 
  94   2.0000      -0.722986       -19.6735 
  95   2.0000      -0.719528       -19.5794 
  96   2.0000      -0.713328       -19.4106 
  97   2.0000      -0.705212       -19.1898 
  98   2.0000      -0.701484       -19.0883 
  99   2.0000      -0.695968       -18.9383 
 100   2.0000      -0.692673       -18.8486 
 101   2.0000      -0.681563       -18.5463 
 102   2.0000      -0.678874       -18.4731 
 103   2.0000      -0.674281       -18.3481 
 104   2.0000      -0.671330       -18.2678 
 105   2.0000      -0.670606       -18.2481 
 106   2.0000      -0.663955       -18.0671 
 107   2.0000      -0.662459       -18.0264 
 108   2.0000      -0.656828       -17.8732 
 109   2.0000      -0.654352       -17.8058 
 110   2.0000      -0.650335       -17.6965 
 111   2.0000      -0.647431       -17.6175 
 112   2.0000      -0.643467       -17.5096 
 113   2.0000      -0.636426       -17.3180 
 114   2.0000      -0.631935       -17.1958 
 115   2.0000      -0.631603       -17.1868 
 116   2.0000      -0.623198       -16.9581 
 117   2.0000      -0.616048       -16.7635 
 118   2.0000      -0.613709       -16.6999 
 119   2.0000      -0.611704       -16.6453 
 120   2.0000      -0.608653       -16.5623 
 121   2.0000      -0.601653       -16.3718 
 122   2.0000      -0.598522       -16.2866 
 123   2.0000      -0.589772       -16.0485 
 124   2.0000      -0.589250       -16.0343 
 125   2.0000      -0.584500       -15.9051 
 126   2.0000      -0.578382       -15.7386 
 127   2.0000      -0.576614       -15.6905 
 128   2.0000      -0.563291       -15.3279 
 129   2.0000      -0.558558       -15.1991 
 130   2.0000      -0.554171       -15.0798 
 131   2.0000      -0.549552       -14.9541 
 132   2.0000      -0.542168       -14.7532 
 133   2.0000      -0.538318       -14.6484 
 134   2.0000      -0.534239       -14.5374 
 135   2.0000      -0.532660       -14.4944 
 136   2.0000      -0.525320       -14.2947 
 137   2.0000      -0.523644       -14.2491 
 138   2.0000      -0.517614       -14.0850 
 139   2.0000      -0.516280       -14.0487 
 140   2.0000      -0.509847       -13.8737 
 141   2.0000      -0.509121       -13.8539 
 142   2.0000      -0.508354       -13.8330 
 143   2.0000      -0.502049       -13.6615 
 144   2.0000      -0.500433       -13.6175 
 145   2.0000      -0.497374       -13.5342 
 146   2.0000      -0.493990       -13.4422 
 147   2.0000      -0.487247       -13.2587 
 148   2.0000      -0.486743       -13.2450 
 149   2.0000      -0.469011       -12.7624 
 150   2.0000      -0.463171       -12.6035 
 151   2.0000      -0.455173       -12.3859 
 152   2.0000      -0.448230       -12.1969 
 153   2.0000      -0.447020       -12.1640 
 154   2.0000      -0.445918       -12.1341 
 155   2.0000      -0.440059       -11.9746 
 156   2.0000      -0.433579       -11.7983 
 157   2.0000      -0.429113       -11.6768 
 158   2.0000      -0.398449       -10.8423 
 159   2.0000      -0.384975       -10.4757 
 160   2.0000      -0.379141       -10.3170 
 161   2.0000      -0.374259       -10.1841 
 162   2.0000      -0.370890       -10.0924 
 163   2.0000      -0.359761        -9.7896 
 164   2.0000      -0.353197        -9.6110 
 165   2.0000      -0.337402        -9.1812 
 166   2.0000      -0.336314        -9.1516 
 167   2.0000      -0.334674        -9.1069 
 168   2.0000      -0.328593        -8.9415 
 169   2.0000      -0.301365        -8.2006 
 170   2.0000      -0.299777        -8.1574 
 171   2.0000      -0.287397        -7.8205 
 172   2.0000      -0.285081        -7.7574 
 173   2.0000      -0.258597        -7.0368 
 174   2.0000      -0.246228        -6.7002 
 175   2.0000      -0.189203        -5.1485 
 176   2.0000      -0.179348        -4.8803 
 177   2.0000      -0.070876        -1.9286 
 178   2.0000      -0.056688        -1.5426 
 179   0.0000       0.029398         0.8000 
 180   0.0000       0.068552         1.8654 
 181   0.0000       0.092487         2.5167 
 182   0.0000       0.103535         2.8173 
 183   0.0000       0.119585         3.2541 
 184   0.0000       0.134098         3.6490 
 185   0.0000       0.141624         3.8538 
 186   0.0000       0.151338         4.1181 
 187   0.0000       0.160920         4.3789 
 188   0.0000       0.162382         4.4186 
 189   0.0000       0.162970         4.4347 
 190   0.0000       0.167687         4.5630 
 191   0.0000       0.180906         4.9227 
 192   0.0000       0.190923         5.1953 
 193   0.0000       0.194340         5.2883 
 194   0.0000       0.202272         5.5041 
 195   0.0000       0.205760         5.5990 
 196   0.0000       0.207772         5.6538 
 197   0.0000       0.210789         5.7359 
 198   0.0000       0.220457         5.9989 
 199   0.0000       0.225794         6.1442 
 200   0.0000       0.226265         6.1570 
 201   0.0000       0.237110         6.4521 
 202   0.0000       0.241678         6.5764 
 203   0.0000       0.243874         6.6362 
 204   0.0000       0.252277         6.8648 
 205   0.0000       0.254756         6.9323 
 206   0.0000       0.255600         6.9552 
 207   0.0000       0.259270         7.0551 
 208   0.0000       0.262192         7.1346 
 209   0.0000       0.262597         7.1456 
 210   0.0000       0.265533         7.2255 
 211   0.0000       0.269818         7.3421 
 212   0.0000       0.271643         7.3918 
 213   0.0000       0.273747         7.4490 
 214   0.0000       0.276774         7.5314 
 215   0.0000       0.278906         7.5894 
 216   0.0000       0.280497         7.6327 
 217   0.0000       0.281542         7.6612 
 218   0.0000       0.283250         7.7076 
 219   0.0000       0.288047         7.8381 
 220   0.0000       0.290091         7.8938 
 221   0.0000       0.293553         7.9880 
 222   0.0000       0.293787         7.9943 
 223   0.0000       0.296110         8.0576 
 224   0.0000       0.297788         8.1032 
 225   0.0000       0.299984         8.1630 
 226   0.0000       0.306804         8.3486 
 227   0.0000       0.307873         8.3776 
 228   0.0000       0.310327         8.4444 
 229   0.0000       0.316025         8.5995 
 230   0.0000       0.319130         8.6840 
 231   0.0000       0.324086         8.8188 
 232   0.0000       0.324991         8.8435 
 233   0.0000       0.330542         8.9945 
 234   0.0000       0.337233         9.1766 
 235   0.0000       0.342803         9.3281 
 236   0.0000       0.355141         9.6639 
 237   0.0000       0.382434        10.4065 
 238   0.0000       0.395179        10.7534 
 239   0.0000       0.398289        10.8380 
 240   0.0000       0.403082        10.9684 
 241   0.0000       0.415444        11.3048 
 242   0.0000       0.417825        11.3696 
 243   0.0000       0.423752        11.5309 
 244   0.0000       0.426418        11.6034 
 245   0.0000       0.433312        11.7910 
 246   0.0000       0.434446        11.8219 
 247   0.0000       0.438482        11.9317 
 248   0.0000       0.441314        12.0088 
 249   0.0000       0.443850        12.0778 
 250   0.0000       0.451220        12.2783 
 251   0.0000       0.457975        12.4621 
 252   0.0000       0.461034        12.5454 
 253   0.0000       0.462550        12.5866 
 254   0.0000       0.469876        12.7860 
 255   0.0000       0.474352        12.9078 
 256   0.0000       0.482801        13.1377 
 257   0.0000       0.483485        13.1563 
 258   0.0000       0.489913        13.3312 
 259   0.0000       0.499078        13.5806 
 260   0.0000       0.501265        13.6401 
 261   0.0000       0.503464        13.7000 
 262   0.0000       0.507171        13.8008 
 263   0.0000       0.509141        13.8544 
 264   0.0000       0.513195        13.9648 
 265   0.0000       0.516300        14.0492 
 266   0.0000       0.518744        14.1158 
 267   0.0000       0.523894        14.2559 
 268   0.0000       0.535199        14.5635 
 269   0.0000       0.538364        14.6496 
 270   0.0000       0.540778        14.7153 
 271   0.0000       0.545590        14.8463 
 272   0.0000       0.546240        14.8639 
 273   0.0000       0.554683        15.0937 
 274   0.0000       0.560243        15.2450 
 275   0.0000       0.565245        15.3811 
 276   0.0000       0.570931        15.5358 
 277   0.0000       0.576058        15.6753 
 278   0.0000       0.580429        15.7943 
 279   0.0000       0.584757        15.9120 
 280   0.0000       0.586802        15.9677 
 281   0.0000       0.590981        16.0814 
 282   0.0000       0.592563        16.1245 
 283   0.0000       0.597657        16.2631 
 284   0.0000       0.598433        16.2842 
 285   0.0000       0.599388        16.3102 
 286   0.0000       0.607101        16.5201 
 287   0.0000       0.612125        16.6568 
 288   0.0000       0.612354        16.6630 
 289   0.0000       0.619401        16.8548 
 290   0.0000       0.626100        17.0370 
 291   0.0000       0.627823        17.0839 
 292   0.0000       0.634595        17.2682 
 293   0.0000       0.636351        17.3160 
 294   0.0000       0.645776        17.5725 
 295   0.0000       0.650618        17.7042 
 296   0.0000       0.654483        17.8094 
 297   0.0000       0.658006        17.9053 
 298   0.0000       0.663583        18.0570 
 299   0.0000       0.666587        18.1388 
 300   0.0000       0.669299        18.2125 
 301   0.0000       0.670836        18.2544 
 302   0.0000       0.679277        18.4841 
 303   0.0000       0.682062        18.5599 
 304   0.0000       0.684476        18.6255 
 305   0.0000       0.687123        18.6976 
 306   0.0000       0.689654        18.7664 
 307   0.0000       0.693317        18.8661 
 308   0.0000       0.695228        18.9181 
 309   0.0000       0.697646        18.9839 
 310   0.0000       0.700701        19.0670 
 311   0.0000       0.704265        19.1640 
 312   0.0000       0.706195        19.2165 
 313   0.0000       0.708532        19.2801 
 314   0.0000       0.711340        19.3565 
 315   0.0000       0.713320        19.4104 
 316   0.0000       0.717295        19.5186 
 317   0.0000       0.718799        19.5595 
 318   0.0000       0.722130        19.6502 
 319   0.0000       0.723727        19.6936 
 320   0.0000       0.726740        19.7756 
 321   0.0000       0.729084        19.8394 
 322   0.0000       0.733460        19.9585 
 323   0.0000       0.736799        20.0493 
 324   0.0000       0.738987        20.1088 
 325   0.0000       0.740340        20.1457 
 326   0.0000       0.742787        20.2123 
 327   0.0000       0.744398        20.2561 
 328   0.0000       0.747806        20.3488 
 329   0.0000       0.749235        20.3877 
 330   0.0000       0.752464        20.4756 
 331   0.0000       0.755007        20.5448 
 332   0.0000       0.760016        20.6811 
 333   0.0000       0.762748        20.7554 
 334   0.0000       0.768575        20.9140 
 335   0.0000       0.772250        21.0140 
 336   0.0000       0.777377        21.1535 
 337   0.0000       0.782317        21.2879 
 338   0.0000       0.785175        21.3657 
 339   0.0000       0.787253        21.4222 
 340   0.0000       0.791560        21.5394 
 341   0.0000       0.793141        21.5825 
 342   0.0000       0.796866        21.6838 
 343   0.0000       0.800853        21.7923 
 344   0.0000       0.805262        21.9123 
 345   0.0000       0.806344        21.9417 
 346   0.0000       0.809034        22.0149 
 347   0.0000       0.812241        22.1022 
 348   0.0000       0.814753        22.1706 
 349   0.0000       0.816272        22.2119 
 350   0.0000       0.820333        22.3224 
 351   0.0000       0.823548        22.4099 
 352   0.0000       0.824891        22.4464 
 353   0.0000       0.827215        22.5097 
 354   0.0000       0.828279        22.5386 
 355   0.0000       0.831743        22.6329 
 356   0.0000       0.832928        22.6651 
 357   0.0000       0.835302        22.7297 
 358   0.0000       0.837663        22.7940 
 359   0.0000       0.838637        22.8205 
 360   0.0000       0.841084        22.8871 
 361   0.0000       0.842345        22.9214 
 362   0.0000       0.843348        22.9487 
 363   0.0000       0.846179        23.0257 
 364   0.0000       0.848667        23.0934 
 365   0.0000       0.849345        23.1118 
 366   0.0000       0.852885        23.2082 
 367   0.0000       0.857521        23.3343 
 368   0.0000       0.859797        23.3963 
 369   0.0000       0.863429        23.4951 
 370   0.0000       0.865483        23.5510 
 371   0.0000       0.871399        23.7120 
 372   0.0000       0.874602        23.7991 
 373   0.0000       0.878652        23.9093 
 374   0.0000       0.881744        23.9935 
 375   0.0000       0.883609        24.0442 
 376   0.0000       0.884536        24.0695 
 377   0.0000       0.889420        24.2024 
 378   0.0000       0.891145        24.2493 
 379   0.0000       0.893059        24.3014 
 380   0.0000       0.897091        24.4111 
 381   0.0000       0.899176        24.4678 
 382   0.0000       0.902955        24.5707 
 383   0.0000       0.903597        24.5881 
 384   0.0000       0.904222        24.6051 
 385   0.0000       0.905345        24.6357 
 386   0.0000       0.907710        24.7000 
 387   0.0000       0.909137        24.7389 
 388   0.0000       0.911318        24.7982 
 389   0.0000       0.915167        24.9030 
 390   0.0000       0.918738        25.0001 
 391   0.0000       0.920172        25.0391 
 392   0.0000       0.923928        25.1414 
 393   0.0000       0.925895        25.1949 
 394   0.0000       0.928086        25.2545 
 395   0.0000       0.930855        25.3299 
 396   0.0000       0.933025        25.3889 
 397   0.0000       0.935130        25.4462 
 398   0.0000       0.938490        25.5376 
 399   0.0000       0.941681        25.6244 
 400   0.0000       0.942941        25.6587 
 401   0.0000       0.948675        25.8148 
 402   0.0000       0.950594        25.8670 
 403   0.0000       0.956113        26.0171 
 404   0.0000       0.957581        26.0571 
 405   0.0000       0.958444        26.0806 
 406   0.0000       0.959520        26.1099 
 407   0.0000       0.963879        26.2285 
 408   0.0000       0.967219        26.3194 
 409   0.0000       0.973538        26.4913 
 410   0.0000       0.975362        26.5409 
 411   0.0000       0.981452        26.7067 
 412   0.0000       0.984068        26.7778 
 413   0.0000       0.986641        26.8479 
 414   0.0000       0.988163        26.8893 
 415   0.0000       0.995463        27.0879 
 416   0.0000       1.000564        27.2267 
 417   0.0000       1.003960        27.3191 
 418   0.0000       1.006261        27.3818 
 419   0.0000       1.015800        27.6413 
 420   0.0000       1.021899        27.8073 
 421   0.0000       1.028246        27.9800 
 422   0.0000       1.031921        28.0800 
 423   0.0000       1.041158        28.3313 
 424   0.0000       1.044063        28.4104 
 425   0.0000       1.050504        28.5857 
 426   0.0000       1.055002        28.7081 
 427   0.0000       1.061957        28.8973 
 428   0.0000       1.065022        28.9807 
 429   0.0000       1.070274        29.1236 
 430   0.0000       1.077393        29.3174 
 431   0.0000       1.082371        29.4528 
 432   0.0000       1.084699        29.5162 
 433   0.0000       1.088338        29.6152 
 434   0.0000       1.099055        29.9068 
 435   0.0000       1.104874        30.0652 
 436   0.0000       1.107300        30.1312 
 437   0.0000       1.110956        30.2307 
 438   0.0000       1.115049        30.3420 
 439   0.0000       1.116508        30.3817 
 440   0.0000       1.121519        30.5181 
 441   0.0000       1.124097        30.5882 
 442   0.0000       1.127141        30.6711 
 443   0.0000       1.128595        30.7106 
 444   0.0000       1.132674        30.8216 
 445   0.0000       1.133786        30.8519 
 446   0.0000       1.137983        30.9661 
 447   0.0000       1.142182        31.0804 
 448   0.0000       1.144308        31.1382 
 449   0.0000       1.148793        31.2602 
 450   0.0000       1.150785        31.3144 
 451   0.0000       1.152106        31.3504 
 452   0.0000       1.155390        31.4398 
 453   0.0000       1.157657        31.5014 
 454   0.0000       1.161789        31.6139 
 455   0.0000       1.170047        31.8386 
 456   0.0000       1.171608        31.8811 
 457   0.0000       1.177061        32.0295 
 458   0.0000       1.179710        32.1015 
 459   0.0000       1.185319        32.2542 
 460   0.0000       1.187227        32.3061 
 461   0.0000       1.193996        32.4903 
 462   0.0000       1.201990        32.7078 
 463   0.0000       1.202769        32.7290 
 464   0.0000       1.206151        32.8210 
 465   0.0000       1.207929        32.8694 
 466   0.0000       1.212970        33.0066 
 467   0.0000       1.215066        33.0636 
 468   0.0000       1.221569        33.2406 
 469   0.0000       1.228116        33.4187 
 470   0.0000       1.230466        33.4827 
 471   0.0000       1.233052        33.5530 
 472   0.0000       1.234931        33.6042 
 473   0.0000       1.236077        33.6354 
 474   0.0000       1.242178        33.8014 
 475   0.0000       1.246814        33.9275 
 476   0.0000       1.251791        34.0630 
 477   0.0000       1.252395        34.0794 
 478   0.0000       1.252980        34.0953 
 479   0.0000       1.255710        34.1696 
 480   0.0000       1.259476        34.2721 
 481   0.0000       1.263846        34.3910 
 482   0.0000       1.269999        34.5584 
 483   0.0000       1.272614        34.6296 
 484   0.0000       1.273400        34.6510 
 485   0.0000       1.276158        34.7260 
 486   0.0000       1.279322        34.8121 
 487   0.0000       1.282666        34.9031 
 488   0.0000       1.287691        35.0399 
 489   0.0000       1.290536        35.1173 
 490   0.0000       1.294048        35.2128 
 491   0.0000       1.298605        35.3368 
 492   0.0000       1.300273        35.3822 
 493   0.0000       1.305696        35.5298 
 494   0.0000       1.310786        35.6683 
 495   0.0000       1.314541        35.7705 
 496   0.0000       1.316403        35.8211 
 497   0.0000       1.323450        36.0129 
 498   0.0000       1.324602        36.0443 
 499   0.0000       1.328893        36.1610 
 500   0.0000       1.333251        36.2796 
 501   0.0000       1.336525        36.3687 
 502   0.0000       1.341718        36.5100 
 503   0.0000       1.348883        36.7050 
 504   0.0000       1.350120        36.7386 
 505   0.0000       1.351830        36.7852 
 506   0.0000       1.353481        36.8301 
 507   0.0000       1.357420        36.9373 
 508   0.0000       1.362194        37.0672 
 509   0.0000       1.363978        37.1157 
 510   0.0000       1.364749        37.1367 
 511   0.0000       1.367411        37.2092 
[...]
 76 H s       :     0.888475  s :     0.888475
      pz      :     0.022044  p :     0.079681
      px      :     0.043466
      py      :     0.014171
 77 H s       :     0.886778  s :     0.886778
      pz      :     0.047810  p :     0.079094
      px      :     0.015017
      py      :     0.016267
 78 H s       :     0.887200  s :     0.887200
      pz      :     0.025793  p :     0.079040
      px      :     0.020504
      py      :     0.032743
 79 H s       :     0.909669  s :     0.909669
      pz      :     0.021951  p :     0.086529
      px      :     0.021713
      py      :     0.042864
 80 H s       :     0.867645  s :     0.867645
      pz      :     0.039133  p :     0.084483
      px      :     0.030114
      py      :     0.015237
 81 H s       :     0.887173  s :     0.887173
      pz      :     0.037781  p :     0.084010
      px      :     0.016177
      py      :     0.030052
 82 H s       :     0.915797  s :     0.915797
      pz      :     0.022051  p :     0.086781
      px      :     0.031499
      py      :     0.033231
 83 H s       :     0.873411  s :     0.873411
      pz      :     0.039232  p :     0.084016
      px      :     0.015273
      py      :     0.029511
 84 H s       :     0.887197  s :     0.887197
      pz      :     0.035757  p :     0.083567
      px      :     0.031697
      py      :     0.016112
 85 H s       :     0.893512  s :     0.893512
      pz      :     0.022487  p :     0.079751
      px      :     0.014089
      py      :     0.043175
 86 H s       :     0.891084  s :     0.891084
      pz      :     0.024721  p :     0.078827
      px      :     0.032973
      py      :     0.021133
 87 H s       :     0.890140  s :     0.890140
      pz      :     0.047983  p :     0.078711
      px      :     0.015595
      py      :     0.015133
 88 H s       :     0.912139  s :     0.912139
      pz      :     0.021865  p :     0.087006
      px      :     0.042723
      py      :     0.022418
 89 H s       :     0.871710  s :     0.871710
      pz      :     0.037931  p :     0.083853
      px      :     0.030476
      py      :     0.015447


                      *****************************
                      * MAYER POPULATION ANALYSIS *
                      *****************************

  NA   - Mulliken gross atomic population
  ZA   - Total nuclear charge
  QA   - Mulliken gross atomic charge
  VA   - Mayer's total valence
  BVA  - Mayer's bonded valence
  FA   - Mayer's free valence

  ATOM       NA         ZA         QA         VA         BVA        FA
  0 C      5.7940     6.0000     0.2060     3.8397     3.8397    -0.0000
  1 N      7.4511     7.0000    -0.4511     3.3378     3.3378    -0.0000
  2 C      6.0642     6.0000    -0.0642     3.9206     3.9206    -0.0000
  3 N      7.3362     7.0000    -0.3362     3.4550     3.4550     0.0000
  4 C      6.0570     6.0000    -0.0570     3.9881     3.9881    -0.0000
  5 N      7.5606     7.0000    -0.5606     3.0925     3.0925     0.0000
  6 C      6.0938     6.0000    -0.0938     4.0079     4.0079     0.0000
  7 N      7.3395     7.0000    -0.3395     3.4367     3.4367     0.0000
  8 C      5.7982     6.0000     0.2018     3.8363     3.8363     0.0000
  9 N      7.5627     7.0000    -0.5627     3.0808     3.0808    -0.0000
 10 C      5.8821     6.0000     0.1179     3.9047     3.9047    -0.0000
 11 N      7.4375     7.0000    -0.4375     3.3835     3.3835     0.0000
 12 C      6.0776     6.0000    -0.0776     3.9158     3.9158    -0.0000
 13 N      7.4341     7.0000    -0.4341     3.4065     3.4065     0.0000
 14 C      5.7672     6.0000     0.2328     3.7826     3.7826    -0.0000
 15 N      7.4413     7.0000    -0.4413     3.3701     3.3701     0.0000
 16 C      5.7696     6.0000     0.2304     3.7830     3.7830     0.0000
 17 C      6.1006     6.0000    -0.1006     4.0074     4.0074    -0.0000
 18 C      6.1862     6.0000    -0.1862     3.7679     3.7679    -0.0000
 19 C      5.7805     6.0000     0.2195     3.8646     3.8646    -0.0000
 20 C      5.7875     6.0000     0.2125     3.8271     3.8271     0.0000
 21 C      6.0879     6.0000    -0.0879     3.9086     3.9086     0.0000
 22 C      6.0877     6.0000    -0.0877     3.9823     3.9823    -0.0000
 23 C      6.0436     6.0000    -0.0436     3.9914     3.9914    -0.0000
 24 C      5.8000     6.0000     0.2000     3.8220     3.8220    -0.0000
 25 C      5.8861     6.0000     0.1139     3.8898     3.8898     0.0000
 26 C      6.0736     6.0000    -0.0736     3.9060     3.9060     0.0000
 27 C      5.7852     6.0000     0.2148     3.8712     3.8712     0.0000
 28 C      6.0573     6.0000    -0.0573     3.9884     3.9884     0.0000
 29 C      6.1815     6.0000    -0.1815     3.7413     3.7413     0.0000
 30 C      5.7588     6.0000     0.2412     3.7959     3.7959     0.0000
 31 C      5.7775     6.0000     0.2225     3.8222     3.8222    -0.0000
 32 C      6.0627     6.0000    -0.0627     3.9213     3.9213     0.0000
 33 C      6.0699     6.0000    -0.0699     3.9783     3.9783    -0.0000
 34 C      6.0496     6.0000    -0.0496     3.9876     3.9876    -0.0000
 35 C      5.7834     6.0000     0.2166     3.8204     3.8204     0.0000
 36 C      5.8891     6.0000     0.1109     3.8823     3.8823     0.0000
 37 C      6.0653     6.0000    -0.0653     3.9175     3.9175     0.0000
 38 C      5.7653     6.0000     0.2347     3.8011     3.8011     0.0000
 39 C      6.0602     6.0000    -0.0602     3.9867     3.9867    -0.0000
 40 C      6.1840     6.0000    -0.1840     3.7332     3.7332    -0.0000
 41 C      5.7775     6.0000     0.2225     3.8838     3.8838    -0.0000
 42 C      5.8009     6.0000     0.1991     3.8268     3.8268     0.0000
 43 C      6.0732     6.0000    -0.0732     3.9011     3.9011    -0.0000
 44 C      6.0905     6.0000    -0.0905     3.9856     3.9856     0.0000
 45 C      6.0580     6.0000    -0.0580     3.9923     3.9923     0.0000
 46 C      5.7928     6.0000     0.2072     3.8277     3.8277    -0.0000
 47 C      5.8843     6.0000     0.1157     3.8939     3.8939     0.0000
 48 C      6.0708     6.0000    -0.0708     3.9071     3.9071     0.0000
 49 C      5.7671     6.0000     0.2329     3.8903     3.8903    -0.0000
 50 C      6.0491     6.0000    -0.0491     3.9906     3.9906     0.0000
 51 C      6.1919     6.0000    -0.1919     3.7368     3.7368     0.0000
 52 H      0.9549     1.0000     0.0451     0.9857     0.9857     0.0000
 53 H      1.0156     1.0000    -0.0156     0.9986     0.9986     0.0000
 54 H      0.9521     1.0000     0.0479     1.0120     1.0120     0.0000
 55 H      0.9568     1.0000     0.0432     0.9865     0.9865    -0.0000
 56 H      0.9483     1.0000     0.0517     0.9703     0.9703     0.0000
 57 H      0.9490     1.0000     0.0510     0.9826     0.9826    -0.0000
 58 H      0.9501     1.0000     0.0499     0.9856     0.9856    -0.0000
 59 H      1.0037     1.0000    -0.0037     1.0027     1.0027     0.0000
 60 H      0.9525     1.0000     0.0475     1.0092     1.0092    -0.0000
 61 H      0.8285     1.0000     0.1715     1.0420     1.0420     0.0000
 62 H      0.8254     1.0000     0.1746     1.0436     1.0436     0.0000
 63 H      0.9431     1.0000     0.0569     0.9853     0.9853     0.0000
 64 H      1.0095     1.0000    -0.0095     0.9962     0.9962    -0.0000
 65 H      0.9531     1.0000     0.0469     1.0096     1.0096    -0.0000
 66 H      0.9428     1.0000     0.0572     0.9852     0.9852     0.0000
 67 H      0.9365     1.0000     0.0635     0.9720     0.9720    -0.0000
 68 H      0.9419     1.0000     0.0581     0.9868     0.9868    -0.0000
 69 H      0.9419     1.0000     0.0581     0.9829     0.9829    -0.0000
 70 H      1.0269     1.0000    -0.0269     0.9931     0.9931     0.0000
 71 H      0.9528     1.0000     0.0472     1.0062     1.0062     0.0000
 72 H      0.9352     1.0000     0.0648     0.9842     0.9842     0.0000
 73 H      1.0105     1.0000    -0.0105     0.9999     0.9999     0.0000
 74 H      0.9456     1.0000     0.0544     1.0101     1.0101     0.0000
 75 H      0.9361     1.0000     0.0639     0.9847     0.9847     0.0000
 76 H      0.9308     1.0000     0.0692     0.9719     0.9719     0.0000
 77 H      0.9364     1.0000     0.0636     0.9853     0.9853    -0.0000
 78 H      0.9372     1.0000     0.0628     0.9851     0.9851     0.0000
 79 H      1.0149     1.0000    -0.0149     0.9985     0.9985    -0.0000
 80 H      0.9451     1.0000     0.0549     1.0071     1.0071     0.0000
 81 H      0.9464     1.0000     0.0536     0.9856     0.9856    -0.0000
 82 H      1.0247     1.0000    -0.0247     0.9936     0.9936    -0.0000
 83 H      0.9584     1.0000     0.0416     1.0087     1.0087     0.0000
 84 H      0.9470     1.0000     0.0530     0.9854     0.9854    -0.0000
 85 H      0.9405     1.0000     0.0595     0.9716     0.9716     0.0000
 86 H      0.9446     1.0000     0.0554     0.9839     0.9839     0.0000
 87 H      0.9433     1.0000     0.0567     0.9856     0.9856     0.0000
 88 H      1.0177     1.0000    -0.0177     0.9958     0.9958     0.0000
 89 H      0.9541     1.0000     0.0459     1.0069     1.0069     0.0000

  Mayer bond orders larger than 0.100000
B(  0-C ,  1-N ) :   1.0984 B(  0-C , 17-C ) :   1.6830 B(  0-C , 52-H ) :   0.9683 
B(  1-N ,  8-C ) :   1.0907 B(  1-N , 10-C ) :   0.9733 B(  2-C , 12-C ) :   1.5220 
B(  2-C , 16-C ) :   1.3412 B(  2-C , 53-H ) :   0.9770 B(  3-N , 14-C ) :   1.2134 
B(  3-N , 16-C ) :   1.1933 B(  3-N , 61-H ) :   0.8992 B(  4-C ,  6-C ) :   1.2263 
B(  4-C , 17-C ) :   1.2246 B(  4-C , 18-C ) :   1.3756 B(  5-N , 19-C ) :   1.4420 
B(  5-N , 27-C ) :   1.3884 B(  6-C ,  8-C ) :   1.6850 B(  6-C , 54-H ) :   0.9672 
B(  7-N , 30-C ) :   1.1935 B(  7-N , 38-C ) :   1.1961 B(  7-N , 62-H ) :   0.8973 
B(  8-C , 55-H ) :   0.9698 B(  9-N , 41-C ) :   1.3976 B(  9-N , 49-C ) :   1.4244 
B( 10-C , 56-H ) :   0.9765 B( 10-C , 57-H ) :   0.9829 B( 10-C , 58-H ) :   0.9834 
B( 11-N , 20-C ) :   1.1303 B( 11-N , 24-C ) :   1.1157 B( 11-N , 25-C ) :   0.9583 
B( 12-C , 14-C ) :   1.3441 B( 12-C , 59-H ) :   0.9750 B( 13-N , 31-C ) :   1.1456 
B( 13-N , 35-C ) :   1.1391 B( 13-N , 36-C ) :   0.9496 B( 14-C , 18-C ) :   1.1571 
B( 15-N , 42-C ) :   1.1096 B( 15-N , 46-C ) :   1.1187 B( 15-N , 47-C ) :   0.9624 
B( 16-C , 51-C ) :   1.1833 B( 17-C , 60-H ) :   0.9675 B( 18-C , 19-C ) :   1.1639 
B( 19-C , 21-C ) :   1.2308 B( 20-C , 28-C ) :   1.6239 B( 20-C , 63-H ) :   0.9702 
B( 21-C , 26-C ) :   1.6278 B( 21-C , 64-H ) :   0.9715 B( 22-C , 23-C ) :   1.2893 
B( 22-C , 28-C ) :   1.2707 B( 22-C , 29-C ) :   1.2213 B( 23-C , 24-C ) :   1.6165 
B( 23-C , 65-H ) :   0.9706 B( 24-C , 66-H ) :   0.9693 B( 25-C , 67-H ) :   0.9761 
B( 25-C , 68-H ) :   0.9828 B( 25-C , 69-H ) :   0.9822 B( 26-C , 27-C ) :   1.2257 
B( 26-C , 70-H ) :   0.9719 B( 27-C , 29-C ) :   1.2210 B( 28-C , 71-H ) :   0.9717 
B( 29-C , 30-C ) :   1.2312 B( 30-C , 32-C ) :   1.2925 B( 31-C , 39-C ) :   1.6071 
B( 31-C , 72-H ) :   0.9688 B( 32-C , 37-C ) :   1.5665 B( 32-C , 73-H ) :   0.9782 
B( 33-C , 34-C ) :   1.2942 B( 33-C , 39-C ) :   1.2870 B( 33-C , 40-C ) :   1.2067 
B( 34-C , 35-C ) :   1.6037 B( 34-C , 74-H ) :   0.9700 B( 35-C , 75-H ) :   0.9688 
B( 36-C , 76-H ) :   0.9765 B( 36-C , 77-H ) :   0.9818 B( 36-C , 78-H ) :   0.9827 
B( 37-C , 38-C ) :   1.2955 B( 37-C , 79-H ) :   0.9771 B( 38-C , 40-C ) :   1.2237 
B( 39-C , 80-H ) :   0.9710 B( 40-C , 41-C ) :   1.2363 B( 41-C , 43-C ) :   1.1995 
B( 42-C , 50-C ) :   1.6352 B( 42-C , 81-H ) :   0.9696 B( 43-C , 48-C ) :   1.6521 
B( 43-C , 82-H ) :   0.9727 B( 44-C , 45-C ) :   1.2648 B( 44-C , 50-C ) :   1.2685 
B( 44-C , 51-C ) :   1.2622 B( 45-C , 46-C ) :   1.6357 B( 45-C , 83-H ) :   0.9716 
B( 46-C , 84-H ) :   0.9702 B( 47-C , 85-H ) :   0.9762 B( 47-C , 86-H ) :   0.9829 
B( 47-C , 87-H ) :   0.9825 B( 48-C , 49-C ) :   1.2018 B( 48-C , 88-H ) :   0.9745 
B( 49-C , 51-C ) :   1.2284 B( 50-C , 89-H ) :   0.9711 

-------
TIMINGS
-------

Total SCF time: 0 days 0 hours 41 min 11 sec 

Total time                  ....    2471.674 sec
Sum of individual times     ....    2468.805 sec  ( 99.9%)

Fock matrix formation       ....    2451.652 sec  ( 99.2%)
Diagonalization             ....       4.798 sec  (  0.2%)
Density matrix formation    ....       0.463 sec  (  0.0%)
Population analysis         ....       0.313 sec  (  0.0%)
Initial guess               ....       2.303 sec  (  0.1%)
Orbital Transformation      ....       0.000 sec  (  0.0%)
Orbital Orthonormalization  ....       0.000 sec  (  0.0%)
DIIS solution               ....       2.764 sec  (  0.1%)
SOSCF solution              ....       5.185 sec  (  0.2%)

Maximum memory used throughout the entire SCF-calculation: 304.2 MB


           ************************************************************
           *        Program running with 8 parallel MPI-processes     *
           *              working on a common directory               *
           ************************************************************

------------------------------------------------------------------------------
                                ORCA  MP2 
------------------------------------------------------------------------------

Freezing NCore=104 chemical core electrons

----------
MP2 ENERGY (disk based algorithm)
----------

Dimension of the basis                    ...  918
Memory devoted to MP2                     ... 7000 MB   
Data format for buffers                   ... DOUBLE
Compression type for matrix containers    ... UNCOMPRESSED

-------------------------------
PARTIAL EXCHANGE TRANSFORMATION
-------------------------------

Transformation type                        ... one-operator
Generation of integrals (i,mue|j,nue)      ... ON
Generation of integrals (mue,kappa|nue,tau)... OFF
Generation of integrals (i,mue|a,nue)      ... OFF
Dimension of the basis                     ...  918
Number of internal MOs                     ...  127 (  52- 178)
Pair cutoff                                ... 2.500e-12 Eh
Number of AO pairs in the trafo            ... 421821
Total Number of distinct AO pairs          ... 421821
Memory devoted for trafo                   ... 7000.0 MB 
Max. Number of MO pairs treated together   ... 1088      
Number Format for Storage                  ... Double (8 Byte)
Integral package used                      ... LIBINT

Starting integral evaluation:
    ... done with AO integral generation
Closing buffer AOK     (38.23 GB; CompressionRatio= 1.33)
Collecting buffer AOK 
Number of MO pairs included in the trafo   ... 8128
------------------------
SORTING OF (i,mue|j,nue)
------------------------

IBATCH = 1 of  1
Closing buffer KAO     (51.03 GB; CompressionRatio= 1.00)
Collecting buffer KAO 
N(AO-Batches) Done                         ... 174240032 
N(AO-Batches) Skipped                      ... 167061806 
N(IJ)-pairs Skipped                        ...         0 
TOTAL TIME for half transformation         ...  1338.875 sec
AO-integral generation                     ...   253.884 sec
Half transformation                        ...   475.400 sec
K-integral sorting                         ...   309.658 sec

Finished integral transformation - now doing MP2 part

OPERATOR COMBINATION   0   0: ij=( 52..178, 52..178)
Process 5:   Internal MO 132
Process 2:   Internal MO  84
Process 0:   Internal MO  54
Process 0:   Internal MO  57
Process 1:   Internal MO  69
Process 0:   Internal MO  60
Process 4:   Internal MO 117
Process 0:   Internal MO  63
Process 1:   Internal MO  72
Process 3:   Internal MO 102
Process 2:   Internal MO  87
Process 0:   Internal MO  66
Process 7:   Internal MO 165
Process 1:   Internal MO  75
Process 6:   Internal MO 150
Process 2:   Internal MO  90
Process 1:   Internal MO  78
Process 5:   Internal MO 135
Process 3:   Internal MO 105
Process 4:   Internal MO 120
Process 1:   Internal MO  81
Process 2:   Internal MO  93
Process 3:   Internal MO 108
Process 2:   Internal MO  96
Process 7:   Internal MO 168
Process 4:   Internal MO 123
Process 6:   Internal MO 153
Process 5:   Internal MO 138
Process 2:   Internal MO  99
Process 3:   Internal MO 111
Process 4:   Internal MO 126
Process 5:   Internal MO 141
Process 3:   Internal MO 114
Process 6:   Internal MO 156
Process 7:   Internal MO 171
Process 4:   Internal MO 129
Process 5:   Internal MO 144
Process 6:   Internal MO 159
Process 7:   Internal MO 174
Process 5:   Internal MO 147
Process 6:   Internal MO 162
Process 7:   Internal MO 177
-----------------------------------------------
 MP2 CORRELATION ENERGY   :     -7.284732778 Eh
-----------------------------------------------


-------
TIMINGS
-------
Total time                : 1497.679 sec
Integral trafo            : 1348.916 sec ( 90.1%)
K(i,j)                    :    9.564 sec (  0.6%)
T(i,j)                    :    0.152 sec (  0.0%)

---------------------------------------
MP2 TOTAL ENERGY:    -2130.914184708 Eh
---------------------------------------

Maximum memory used throughout the entire MP2-calculation: 6735.7 MB

-------------------------   --------------------
FINAL SINGLE POINT ENERGY     -2130.914184708266
-------------------------   --------------------


                            ***************************************
                            *     ORCA property calculations      *
                            ***************************************


  WARNING: The energy has been calculated at the MP2 level but the densities
           used in the property calculations are still SCF densities
           MP2 response densities have not been calculated 
           use %mp2 Density relaxed end
           or  %mp2 Density unrelaxed end

                                    ---------------------
                                    Active property flags
                                    ---------------------
   (+) Dipole Moment


------------------------------------------------------------------------------
                       ORCA ELECTRIC PROPERTIES CALCULATION
------------------------------------------------------------------------------

Dipole Moment Calculation                       ... on
Quadrupole Moment Calculation                   ... off
Polarizability Calculation                      ... off
GBWName                                         ... /scratch/chu_02/allen/tmpyp4_amber_gaff2/conf1/conf1/Conf316.orca.gbw
Electron density                                ... /scratch/chu_02/allen/tmpyp4_amber_gaff2/conf1/conf1/Conf316.orca.scfp
The origin for moment calculation is the CENTER OF MASS  = (-0.001104, -0.004831 -0.000191)

-------------
DIPOLE MOMENT
-------------
                                X             Y             Z
Electronic contribution:      1.27848      -2.95561      -0.05930
Nuclear contribution   :      0.00768       0.19327       0.07026
                        -----------------------------------------
Total Dipole Moment    :      1.28616      -2.76234       0.01097
                        -----------------------------------------
Magnitude (a.u.)       :      3.04711
Magnitude (Debye)      :      7.74513



--------------------
Rotational spectrum 
--------------------
 
Rotational constants in cm-1:     0.001501     0.001475     0.000761 
Rotational constants in MHz :    44.991236    44.207472    22.826556 

 Dipole components along the rotational axes: 
x,y,z [a.u.] :     2.014143    -2.286466     0.012939 
x,y,z [Debye]:     5.119544    -5.811736     0.032887 

 

Timings for individual modules:

Sum of individual times         ...     3974.799 sec (=  66.247 min)
GTO integral calculation        ...        2.791 sec (=   0.047 min)   0.1 %
SCF iterations                  ...     2472.996 sec (=  41.217 min)  62.2 %
MP2 module                      ...     1499.012 sec (=  24.984 min)  37.7 %
                             ****ORCA TERMINATED NORMALLY****
TOTAL RUN TIME: 0 days 1 hours 6 minutes 16 seconds 968 msec
# of primitive gaussian functions

