
                                 *****************
                                 * O   R   C   A *
                                 *****************

                                            #,                                       
                                            ###                                      
                                            ####                                     
                                            #####                                    
                                            ######                                   
                                           ########,                                 
                                     ,,################,,,,,                         
                               ,,#################################,,                 
                          ,,##########################################,,             
                       ,#########################################, ''#####,          
                    ,#############################################,,   '####,        
                  ,##################################################,,,,####,       
                ,###########''''           ''''###############################       
              ,#####''   ,,,,##########,,,,          '''####'''          '####       
            ,##' ,,,,###########################,,,                        '##       
           ' ,,###''''                  '''############,,,                           
         ,,##''                                '''############,,,,        ,,,,,,###''
      ,#''                                            '''#######################'''  
     '                                                          ''''####''''         
             ,#######,   #######,   ,#######,      ##                                
            ,#'     '#,  ##    ##  ,#'     '#,    #''#        ######   ,####,        
            ##       ##  ##   ,#'  ##            #'  '#       #        #'  '#        
            ##       ##  #######   ##           ,######,      #####,   #    #        
            '#,     ,#'  ##    ##  '#,     ,#' ,#      #,         ##   #,  ,#        
             '#######'   ##     ##  '#######'  #'      '#     #####' # '####'        



                  #######################################################
                  #                        -***-                        #
                  #          Department of theory and spectroscopy      #
                  #    Directorship and core code : Frank Neese         #
                  #        Max Planck Institute fuer Kohlenforschung    #
                  #                Kaiser Wilhelm Platz 1               #
                  #                 D-45470 Muelheim/Ruhr               #
                  #                      Germany                        #
                  #                                                     #
                  #                  All rights reserved                #
                  #                        -***-                        #
                  #######################################################


                         Program Version 5.0.4 -  RELEASE  -


 With contributions from (in alphabetic order):
   Daniel Aravena         : Magnetic Suceptibility
   Michael Atanasov       : Ab Initio Ligand Field Theory (pilot matlab implementation)
   Alexander A. Auer      : GIAO ZORA, VPT2 properties, NMR spectrum
   Ute Becker             : Parallelization
   Giovanni Bistoni       : ED, misc. LED, open-shell LED, HFLD
   Martin Brehm           : Molecular dynamics
   Dmytro Bykov           : SCF Hessian
   Vijay G. Chilkuri      : MRCI spin determinant printing, contributions to CSF-ICE
   Dipayan Datta          : RHF DLPNO-CCSD density
   Achintya Kumar Dutta   : EOM-CC, STEOM-CC
   Dmitry Ganyushin       : Spin-Orbit,Spin-Spin,Magnetic field MRCI
   Miquel Garcia          : C-PCM and meta-GGA Hessian, CC/C-PCM, Gaussian charge scheme
   Yang Guo               : DLPNO-NEVPT2, F12-NEVPT2, CIM, IAO-localization
   Andreas Hansen         : Spin unrestricted coupled pair/coupled cluster methods
   Benjamin Helmich-Paris : MC-RPA, TRAH-SCF, COSX integrals
   Lee Huntington         : MR-EOM, pCC
   Robert Izsak           : Overlap fitted RIJCOSX, COSX-SCS-MP3, EOM
   Marcus Kettner         : VPT2
   Christian Kollmar      : KDIIS, OOCD, Brueckner-CCSD(T), CCSD density, CASPT2, CASPT2-K
   Simone Kossmann        : Meta GGA functionals, TD-DFT gradient, OOMP2, MP2 Hessian
   Martin Krupicka        : Initial AUTO-CI
   Lucas Lang             : DCDCAS
   Marvin Lechner         : AUTO-CI (C++ implementation), FIC-MRCC
   Dagmar Lenk            : GEPOL surface, SMD
   Dimitrios Liakos       : Extrapolation schemes; Compound Job, initial MDCI parallelization
   Dimitrios Manganas     : Further ROCIS development; embedding schemes
   Dimitrios Pantazis     : SARC Basis sets
   Anastasios Papadopoulos: AUTO-CI, single reference methods and gradients
   Taras Petrenko         : DFT Hessian,TD-DFT gradient, ASA, ECA, R-Raman, ABS, FL, XAS/XES, NRVS
   Peter Pinski           : DLPNO-MP2, DLPNO-MP2 Gradient
   Christoph Reimann      : Effective Core Potentials
   Marius Retegan         : Local ZFS, SOC
   Christoph Riplinger    : Optimizer, TS searches, QM/MM, DLPNO-CCSD(T), (RO)-DLPNO pert. Triples
   Tobias Risthaus        : Range-separated hybrids, TD-DFT gradient, RPA, STAB
   Michael Roemelt        : Original ROCIS implementation
   Masaaki Saitow         : Open-shell DLPNO-CCSD energy and density
   Barbara Sandhoefer     : DKH picture change effects
   Avijit Sen             : IP-ROCIS
   Kantharuban Sivalingam : CASSCF convergence, NEVPT2, FIC-MRCI
   Bernardo de Souza      : ESD, SOC TD-DFT
   Georgi Stoychev        : AutoAux, RI-MP2 NMR, DLPNO-MP2 response
   Willem Van den Heuvel  : Paramagnetic NMR
   Boris Wezisla          : Elementary symmetry handling
   Frank Wennmohs         : Technical directorship


 We gratefully acknowledge several colleagues who have allowed us to
 interface, adapt or use parts of their codes:
   Stefan Grimme, W. Hujo, H. Kruse, P. Pracht,  : VdW corrections, initial TS optimization,
                  C. Bannwarth, S. Ehlert          DFT functionals, gCP, sTDA/sTD-DF
   Ed Valeev, F. Pavosevic, A. Kumar             : LibInt (2-el integral package), F12 methods
   Garnet Chan, S. Sharma, J. Yang, R. Olivares  : DMRG
   Ulf Ekstrom                                   : XCFun DFT Library
   Mihaly Kallay                                 : mrcc  (arbitrary order and MRCC methods)
   Jiri Pittner, Ondrej Demel                    : Mk-CCSD
   Frank Weinhold                                : gennbo (NPA and NBO analysis)
   Christopher J. Cramer and Donald G. Truhlar   : smd solvation model
   Lars Goerigk                                  : TD-DFT with DH, B97 family of functionals
   V. Asgeirsson, H. Jonsson                     : NEB implementation
   FAccTs GmbH                                   : IRC, NEB, NEB-TS, DLPNO-Multilevel, CI-OPT
                                                   MM, QMMM, 2- and 3-layer-ONIOM, Crystal-QMMM,
                                                   LR-CPCM, SF, NACMEs, symmetry and pop. for TD-DFT,
                                                   nearIR, NL-DFT gradient (VV10), updates on ESD,
                                                   ML-optimized integration grids
   S Lehtola, MJT Oliveira, MAL Marques          : LibXC Library
   Liviu Ungur et al                             : ANISO software


 Your calculation uses the libint2 library for the computation of 2-el integrals
 For citations please refer to: http://libint.valeyev.net

 Your ORCA version has been built with support for libXC version: 5.1.0
 For citations please refer to: https://tddft.org/programs/libxc/

 This ORCA versions uses:
   CBLAS   interface :  Fast vector & matrix operations
   LAPACKE interface :  Fast linear algebra routines
   SCALAPACK package :  Parallel linear algebra routines
   Shared memory     :  Shared parallel matrices
   BLAS/LAPACK       :  OpenBLAS 0.3.15  USE64BITINT DYNAMIC_ARCH NO_AFFINITY Sandybridge SINGLE_THREADED
        Core in use  :  Sandybridge
   Copyright (c) 2011-2014, The OpenBLAS Project


================================================================================

----- Orbital basis set information -----
Your calculation utilizes the basis: cc-pVDZ 
       H, B-Ne : Obtained from the ccRepo (grant-hill.group.shef.ac.uk/ccrepo) Feb. 2017
                 T. H. Dunning, Jr., J. Chem. Phys. 90, 1007 (1989)
            He : Obtained from the ccRepo (grant-hill.group.shef.ac.uk/ccrepo) Feb. 2017
                 D. E. Woon, T. H. Dunning, Jr., J. Chem. Phys. 100, 2975 (1994)
  Li-Be, Na-Mg : Obtained from the ccRepo (grant-hill.group.shef.ac.uk/ccrepo) Feb. 2017
                 B. P. Prascher, D. E. Woon, K. A. Peterson, T. H. Dunning, Jr., A. K. Wilson, Theor. Chem. Acc. 128, 69 (2011)
         Al-Ar : Obtained from the ccRepo (grant-hill.group.shef.ac.uk/ccrepo) Feb. 2017
                 D. E. Woon, T. H. Dunning, Jr., J. Chem. Phys. 98, 1358 (1993)
            Ca : Obtained from the Peterson Research Group Website (tyr0.chem.wsu.edu/~kipeters) Feb. 2017
                 J. Koput, K. A. Peterson, J. Phys. Chem. 106, 9595 (2002)
         Sc-Zn : Obtained from the ccRepo (grant-hill.group.shef.ac.uk/ccrepo) Feb. 2017
                 N. B. Balabanov, K. A. Peterson, J. Chem. Phys. 123, 064107 (2005)
                 N. B. Balabanov, K. A. Peterson, J. Chem. Phys. 125, 074110 (2006)
         Ga-Kr : Obtained from the ccRepo (grant-hill.group.shef.ac.uk/ccrepo) Feb. 2017
                 A. K. Wilson, D. E. Woon, K. A. Peterson, T. H. Dunning, Jr., J. Chem. Phys. 110, 7667 (1999)

================================================================================
                                        WARNINGS
                       Please study these warnings very carefully!
================================================================================


WARNING: No MP2 level density has been requested!
         To caclulate MP2 level properties use
         %mp2 Density relaxed end
         or
         %mp2 Density unrelaxed end

WARNING: Post HF methods need fully converged wavefunctions
  ===> : Setting SCFConvForced true
         You can overwrite this default with %scf ConvForced false 


INFO   : the flag for use of the SHARK integral package has been found!

================================================================================
                                       INPUT FILE
================================================================================
NAME = /scratch/allen/tmpyp4_amber_gaff2/2.Mdgx/conf11/conf11/Conf262.orca
|  1> ! PAL2
|  2> ! mp2 cc-pvdz TightSCF  NoKeepInts
|  3> 
|  4> %scf
|  5>   MaxCore 2000
|  6> end
|  7> %mp2
|  8>   MaxCore 2000
|  9> end
| 10> * xyz 0 1
| 11>    C       -4.15500         5.70500         1.23000
| 12>    C        1.47400         4.04100         0.05700
| 13>    C       -2.80200         4.09300         0.04900
| 14>    C       -3.05700         4.81600        -1.12600
| 15>    C       -3.84200         5.95100        -1.08600
| 16>    C       -5.18700         7.62000         0.09500
| 17>    C        0.13200         4.30700         0.06100
| 18>    C       -0.56900         3.05600         0.04700
| 19>    C        1.64900         2.61800         0.02300
| 20>    C       -3.37100         4.56800         1.24100
| 21>    N       -4.38100         6.37900         0.07900
| 22>    N        0.38800         2.06700         0.02500
| 23>    N       -2.01000         0.39500        -0.07500
| 24>    N       -0.38800        -2.07400        -0.02700
| 25>    N        2.01000        -0.40100         0.06500
| 26>    C       -1.96000         2.86100         0.02400
| 27>    C       -2.62300         1.61500        -0.01800
| 28>    C       -5.57300        -4.32900         1.06600
| 29>    C       -4.07300         1.47100         0.05600
| 30>    C       -4.10600        -2.75600        -0.02600
| 31>    C       -4.99500        -2.75700        -1.11100
| 32>    C       -6.13200        -3.54200        -1.07600
| 33>    C       -7.65100        -5.11300         0.04000
| 34>    C       -4.32400         0.14100         0.03700
| 35>    C       -3.02500        -0.52000        -0.04800
| 36>    C       -4.42200        -3.56600         1.07500
| 37>    N       -6.40700        -4.31300         0.00100
| 38>    C       -2.86700        -1.92200        -0.04000
| 39>    C       -1.65000        -2.62400        -0.02700
| 40>    C        3.56800        -6.14200        -1.04000
| 41>    C       -1.47600        -4.04900        -0.03400
| 42>    C        2.80300        -4.09900        -0.00800
| 43>    C        3.65700        -4.38400         1.06900
| 44>    C        4.42700        -5.53000         1.05900
| 45>    C        5.24500        -7.58800         0.01400
| 46>    C       -0.13400        -4.31500        -0.02200
| 47>    C        0.56800        -3.06400        -0.02700
| 48>    C        2.77500        -5.01200        -1.07400
| 49>    N        4.37600        -6.39100         0.01700
| 50>    C        1.95900        -2.86900        -0.00900
| 51>    C        2.62100        -1.62200         0.00900
| 52>    C        5.54300         4.33900        -1.13000
| 53>    C        4.07000        -1.47900        -0.09400
| 54>    C        4.10400         2.75100        -0.02100
| 55>    C        5.02700         2.72900         1.03600
| 56>    C        6.16600         3.50900         0.97800
| 57>    C        7.61900         5.15300        -0.11500
| 58>    C        4.32100        -0.14800        -0.09200
| 59>    C        3.02500         0.51400         0.01500
| 60>    C        4.38700         3.58200        -1.11500
| 61>    C        2.86600         1.91600         0.01300
| 62>    N        6.41300         4.29600        -0.09500
| 63>    H       -4.62400         6.10100         2.12200
| 64>    H        2.27400         4.76600         0.08100
| 65>    H       -2.63800         4.50600        -2.07600
| 66>    H       -4.05900         6.54600        -1.96400
| 67>    H       -4.51900         8.47600         0.21100
| 68>    H       -5.73500         7.69500        -0.84400
| 69>    H       -5.88500         7.57400         0.93200
| 70>    H       -0.33200         5.28200         0.06900
| 71>    H       -3.22300         4.04600         2.17900
| 72>    H        0.18200         1.07200         0.00500
| 73>    H       -0.18300        -1.08000        -0.02100
| 74>    H       -5.86400        -4.96200         1.89500
| 75>    H       -4.79400         2.27200         0.13900
| 76>    H       -4.80000        -2.16000        -1.99400
| 77>    H       -6.84100        -3.58200        -1.89300
| 78>    H       -8.42800        -4.53600         0.54600
| 79>    H       -7.95600        -5.33700        -0.98100
| 80>    H       -7.45600        -6.03700         0.58400
| 81>    H       -5.28700        -0.34400         0.10000
| 82>    H       -3.78000        -3.60100         1.94700
| 83>    H        3.58700        -6.86800        -1.84300
| 84>    H       -2.27600        -4.77400        -0.05000
| 85>    H        3.71400        -3.72400         1.92600
| 86>    H        5.09200        -5.79500         1.87100
| 87>    H        6.20500        -7.32900        -0.43900
| 88>    H        5.39300        -7.91700         1.04200
| 89>    H        4.75900        -8.37300        -0.56400
| 90>    H        0.32900        -5.29000        -0.00800
| 91>    H        2.14600        -4.84200        -1.94000
| 92>    H        5.80800         4.98600        -1.95600
| 93>    H        4.78800        -2.28100        -0.18500
| 94>    H        4.86000         2.11400         1.91200
| 95>    H        6.90100         3.53100         1.77200
| 96>    H        7.38300         6.10900         0.35600
| 97>    H        8.41400         4.65200         0.43500
| 98>    H        7.92100         5.31000        -1.15000
| 99>    H        5.28300         0.33600        -0.17900
|100>    H        3.72000         3.63200        -1.96700
|101> *
|102> 
|103>                          ****END OF INPUT****
================================================================================

                       ****************************
                       * Single Point Calculation *
                       ****************************

---------------------------------
CARTESIAN COORDINATES (ANGSTROEM)
---------------------------------
  C     -4.155000    5.705000    1.230000
  C      1.474000    4.041000    0.057000
  C     -2.802000    4.093000    0.049000
  C     -3.057000    4.816000   -1.126000
  C     -3.842000    5.951000   -1.086000
  C     -5.187000    7.620000    0.095000
  C      0.132000    4.307000    0.061000
  C     -0.569000    3.056000    0.047000
  C      1.649000    2.618000    0.023000
  C     -3.371000    4.568000    1.241000
  N     -4.381000    6.379000    0.079000
  N      0.388000    2.067000    0.025000
  N     -2.010000    0.395000   -0.075000
  N     -0.388000   -2.074000   -0.027000
  N      2.010000   -0.401000    0.065000
  C     -1.960000    2.861000    0.024000
  C     -2.623000    1.615000   -0.018000
  C     -5.573000   -4.329000    1.066000
  C     -4.073000    1.471000    0.056000
  C     -4.106000   -2.756000   -0.026000
  C     -4.995000   -2.757000   -1.111000
  C     -6.132000   -3.542000   -1.076000
  C     -7.651000   -5.113000    0.040000
  C     -4.324000    0.141000    0.037000
  C     -3.025000   -0.520000   -0.048000
  C     -4.422000   -3.566000    1.075000
  N     -6.407000   -4.313000    0.001000
  C     -2.867000   -1.922000   -0.040000
  C     -1.650000   -2.624000   -0.027000
  C      3.568000   -6.142000   -1.040000
  C     -1.476000   -4.049000   -0.034000
  C      2.803000   -4.099000   -0.008000
  C      3.657000   -4.384000    1.069000
  C      4.427000   -5.530000    1.059000
  C      5.245000   -7.588000    0.014000
  C     -0.134000   -4.315000   -0.022000
  C      0.568000   -3.064000   -0.027000
  C      2.775000   -5.012000   -1.074000
  N      4.376000   -6.391000    0.017000
  C      1.959000   -2.869000   -0.009000
  C      2.621000   -1.622000    0.009000
  C      5.543000    4.339000   -1.130000
  C      4.070000   -1.479000   -0.094000
  C      4.104000    2.751000   -0.021000
  C      5.027000    2.729000    1.036000
  C      6.166000    3.509000    0.978000
  C      7.619000    5.153000   -0.115000
  C      4.321000   -0.148000   -0.092000
  C      3.025000    0.514000    0.015000
  C      4.387000    3.582000   -1.115000
  C      2.866000    1.916000    0.013000
  N      6.413000    4.296000   -0.095000
  H     -4.624000    6.101000    2.122000
  H      2.274000    4.766000    0.081000
  H     -2.638000    4.506000   -2.076000
  H     -4.059000    6.546000   -1.964000
  H     -4.519000    8.476000    0.211000
  H     -5.735000    7.695000   -0.844000
  H     -5.885000    7.574000    0.932000
  H     -0.332000    5.282000    0.069000
  H     -3.223000    4.046000    2.179000
  H      0.182000    1.072000    0.005000
  H     -0.183000   -1.080000   -0.021000
  H     -5.864000   -4.962000    1.895000
  H     -4.794000    2.272000    0.139000
  H     -4.800000   -2.160000   -1.994000
  H     -6.841000   -3.582000   -1.893000
  H     -8.428000   -4.536000    0.546000
  H     -7.956000   -5.337000   -0.981000
  H     -7.456000   -6.037000    0.584000
  H     -5.287000   -0.344000    0.100000
  H     -3.780000   -3.601000    1.947000
  H      3.587000   -6.868000   -1.843000
  H     -2.276000   -4.774000   -0.050000
  H      3.714000   -3.724000    1.926000
  H      5.092000   -5.795000    1.871000
  H      6.205000   -7.329000   -0.439000
  H      5.393000   -7.917000    1.042000
  H      4.759000   -8.373000   -0.564000
  H      0.329000   -5.290000   -0.008000
  H      2.146000   -4.842000   -1.940000
  H      5.808000    4.986000   -1.956000
  H      4.788000   -2.281000   -0.185000
  H      4.860000    2.114000    1.912000
  H      6.901000    3.531000    1.772000
  H      7.383000    6.109000    0.356000
  H      8.414000    4.652000    0.435000
  H      7.921000    5.310000   -1.150000
  H      5.283000    0.336000   -0.179000
  H      3.720000    3.632000   -1.967000

----------------------------
CARTESIAN COORDINATES (A.U.)
----------------------------
  NO LB      ZA    FRAG     MASS         X           Y           Z
   0 C     6.0000    0    12.011   -7.851812   10.780888    2.324363
   1 C     6.0000    0    12.011    2.785456    7.636383    0.107714
   2 C     6.0000    0    12.011   -5.295013    7.734649    0.092597
   3 C     6.0000    0    12.011   -5.776893    9.100921   -2.127832
   4 C     6.0000    0    12.011   -7.260328   11.245760   -2.052243
   5 C     6.0000    0    12.011   -9.802009   14.399713    0.179524
   6 C     6.0000    0    12.011    0.249444    8.139050    0.115273
   7 C     6.0000    0    12.011   -1.075254    5.775003    0.088817
   8 C     6.0000    0    12.011    3.116158    4.947303    0.043464
   9 C     6.0000    0    12.011   -6.370267    8.632269    2.345150
  10 N     7.0000    0    14.007   -8.278890   12.054563    0.149288
  11 N     7.0000    0    14.007    0.733214    3.906064    0.047243
  12 N     7.0000    0    14.007   -3.798350    0.746442   -0.141729
  13 N     7.0000    0    14.007   -0.733214   -3.919292   -0.051023
  14 N     7.0000    0    14.007    3.798350   -0.757780    0.122832
  15 C     6.0000    0    12.011   -3.703863    5.406506    0.045353
  16 C     6.0000    0    12.011   -4.956752    3.051908   -0.034015
  17 C     6.0000    0    12.011  -10.531444   -8.180624    2.014448
  18 C     6.0000    0    12.011   -7.696855    2.779787    0.105825
  19 C     6.0000    0    12.011   -7.759216   -5.208085   -0.049133
  20 C     6.0000    0    12.011   -9.439182   -5.209975   -2.099486
  21 C     6.0000    0    12.011  -11.587801   -6.693410   -2.033345
  22 C     6.0000    0    12.011  -14.458295   -9.662170    0.075589
  23 C     6.0000    0    12.011   -8.171176    0.266451    0.069920
  24 C     6.0000    0    12.011   -5.716422   -0.982658   -0.090707
  25 C     6.0000    0    12.011   -8.356369   -6.738763    2.031456
  26 N     7.0000    0    14.007  -12.107475   -8.150389    0.001890
  27 C     6.0000    0    12.011   -5.417845   -3.632054   -0.075589
  28 C     6.0000    0    12.011   -3.118048   -4.958641   -0.051023
  29 C     6.0000    0    12.011    6.742543  -11.606698   -1.965315
  30 C     6.0000    0    12.011   -2.789236   -7.651501   -0.064251
  31 C     6.0000    0    12.011    5.296902   -7.745987   -0.015118
  32 C     6.0000    0    12.011    6.910728   -8.284559    2.020117
  33 C     6.0000    0    12.011    8.365818  -10.450186    2.001220
  34 C     6.0000    0    12.011    9.911614  -14.339242    0.026456
  35 C     6.0000    0    12.011   -0.253223   -8.154168   -0.041574
  36 C     6.0000    0    12.011    1.073364   -5.790121   -0.051023
  37 C     6.0000    0    12.011    5.243990   -9.471307   -2.029566
  38 N     7.0000    0    14.007    8.269442  -12.077240    0.032125
  39 C     6.0000    0    12.011    3.701973   -5.421624   -0.017008
  40 C     6.0000    0    12.011    4.952972   -3.065136    0.017008
  41 C     6.0000    0    12.011   10.474752    8.199522   -2.135391
  42 C     6.0000    0    12.011    7.691185   -2.794905   -0.177634
  43 C     6.0000    0    12.011    7.755436    5.198637   -0.039684
  44 C     6.0000    0    12.011    9.499653    5.157063    1.957756
  45 C     6.0000    0    12.011   11.652051    6.631049    1.848152
  46 C     6.0000    0    12.011   14.397823    9.737759   -0.217319
  47 C     6.0000    0    12.011    8.165507   -0.279679   -0.173855
  48 C     6.0000    0    12.011    5.716422    0.971319    0.028346
  49 C     6.0000    0    12.011    8.290229    6.768999   -2.107045
  50 C     6.0000    0    12.011    5.415955    3.620715    0.024566
  51 N     7.0000    0    14.007   12.118814    8.118263   -0.179524
  52 H     1.0000    0     1.008   -8.738094   11.529219    4.009999
  53 H     1.0000    0     1.008    4.297237    9.006435    0.153068
  54 H     1.0000    0     1.008   -4.985098    8.515106   -3.923071
  55 H     1.0000    0     1.008   -7.670398   12.370147   -3.711422
  56 H     1.0000    0     1.008   -8.539672   16.017319    0.398732
  57 H     1.0000    0     1.008  -10.837579   14.541443   -1.594929
  58 H     1.0000    0     1.008  -11.121038   14.312786    1.761225
  59 H     1.0000    0     1.008   -0.627389    9.981533    0.130391
  60 H     1.0000    0     1.008   -6.090587    7.645832    4.117713
  61 H     1.0000    0     1.008    0.343930    2.025786    0.009449
  62 H     1.0000    0     1.008   -0.345820   -2.040904   -0.039684
  63 H     1.0000    0     1.008  -11.081354   -9.376821    3.581031
  64 H     1.0000    0     1.008   -9.059347    4.293458    0.262672
  65 H     1.0000    0     1.008   -9.070685   -4.081808   -3.768114
  66 H     1.0000    0     1.008  -12.927616   -6.768999   -3.577252
  67 H     1.0000    0     1.008  -15.926612   -8.571798    1.031790
  68 H     1.0000    0     1.008  -15.034661  -10.085468   -1.853821
  69 H     1.0000    0     1.008  -14.089798  -11.408277    1.103600
  70 H     1.0000    0     1.008   -9.990982   -0.650066    0.188973
  71 H     1.0000    0     1.008   -7.143165   -6.804904    3.679297
  72 H     1.0000    0     1.008    6.778448  -12.978639   -3.482765
  73 H     1.0000    0     1.008   -4.301017   -9.021553   -0.094486
  74 H     1.0000    0     1.008    7.018443   -7.037340    3.639613
  75 H     1.0000    0     1.008    9.622485  -10.950963    3.535678
  76 H     1.0000    0     1.008   11.725751  -13.849803   -0.829590
  77 H     1.0000    0     1.008   10.191293  -14.960962    1.969095
  78 H     1.0000    0     1.008    8.993207  -15.822677   -1.065806
  79 H     1.0000    0     1.008    0.621720   -9.996651   -0.015118
  80 H     1.0000    0     1.008    4.055352   -9.150054   -3.666069
  81 H     1.0000    0     1.008   10.975529    9.422175   -3.696304
  82 H     1.0000    0     1.008    9.048009   -4.310465   -0.349599
  83 H     1.0000    0     1.008    9.184069    3.994881    3.613156
  84 H     1.0000    0     1.008   13.041000    6.672623    3.348595
  85 H     1.0000    0     1.008   13.951848   11.544337    0.672743
  86 H     1.0000    0     1.008   15.900156    8.791006    0.822031
  87 H     1.0000    0     1.008   14.968521   10.034446   -2.173185
  88 H     1.0000    0     1.008    9.983423    0.634948   -0.338261
  89 H     1.0000    0     1.008    7.029781    6.863485   -3.717091

--------------------------------
INTERNAL COORDINATES (ANGSTROEM)
--------------------------------
 C      0   0   0     0.000000000000     0.00000000     0.00000000
 C      1   0   0     5.985855494413     0.00000000     0.00000000
 C      1   2   0     2.413278682622    36.02001830     0.00000000
 C      3   1   2     1.402989308584    87.92120804   258.14622438
 C      4   3   1     1.380597696652   120.18112882     0.16658984
 C      5   4   3     2.447314242185   152.51419627     1.58514472
 C      2   1   3     1.368114030335    12.29728869    29.50669507
 C      7   2   3     1.434084376876   108.05010202     0.84668783
 C      2   1   3     1.434123425651   113.28028024   321.56534585
 C      1   2   3     1.381139384711    40.43917703    49.31449604
 N      1   2   3     1.352831475092    97.40427451   279.29020316
 N      9   2   1     1.376127174356   106.58526707    11.23181703
 N     12   9   2     2.925062050624   168.53581413   171.12065651
 N     13  12   9     2.954513327098    91.55032014    11.12112580
 N     14  13  12     2.925371258490    88.43092389   359.84326247
 C      8   7   2     1.404790019896   127.24786865   181.11170171
 C     13  12   9     1.366535034311    81.72106996   188.00453233
 C     14  13  12     5.758810554272    80.56209567   166.76250791
 C     17  13  12     1.459010623676   111.08861209   183.82872609
 C     18  14  13     2.412235892279    27.27532823    36.33507194
 C     20  18  14     1.402692767501    87.95206320   148.94598259
 C     21  20  18     1.382106725257   120.14573887   359.70382047
 C     18  14  13     2.446510985056   144.15733107    82.80075377
 C     19  17  13     1.353610726908   106.29293361   359.75308708
 C     13  12   9     1.366813447402   172.21332906    33.46711076
 C     18  14  13     1.380960173213    15.08449437   309.23336894
 N     22  21  20     1.352773077792   120.73759875     0.27865223
 C     25  13  17     1.410897586645   125.60330303   182.37774668
 C     14  13  12     1.376642291955    80.24689249   177.85461986
 C     14  13  12     5.764089607215   164.51507311   312.20821879
 C     29  14  13     1.435600919476   106.58649366   178.76395472
 C     30  14  13     2.413316804732    27.10625047    82.12560436
 C     32  30  14     1.403734305344    87.90059683   149.76154742
 C     33  32  30     1.380694028378   120.14881443   359.74174632
 C     34  33  32     2.448777858443   152.49203239     2.45173620
 C     31  29  14     1.368160809262   108.16950133     0.70383075
 C     14  13  12     1.376239804685   169.26375223   353.09862627
 C     30  14  13     1.380907310430    14.68948582   353.70041132
 N     34  33  32     1.352658863128   120.85575621     0.19603406
 C     37  14  29     1.404717053360   126.01551127   180.90772073
 C     15  14  13     1.366491126938    81.61824056   183.09049352
 C      2   1   3     4.249062720177   159.35448690   128.86899924
 C     41  15  14     1.459677704153   111.05201287   175.08990246
 C     42   2   1     2.412953791518    41.78584867   168.02038654
 C     44  42   2     1.403446472082    87.95153797   233.97558675
 C     45  44  42     1.381696421071   120.11137308     0.19721020
 C     42   2   1     2.450019795838   135.97209175    78.33523564
 C     43  41  15     1.354461516618   106.26758155     0.30894352
 C     15  14  13     1.367461151185   171.87382904   332.35056460
 C     42   2   1     1.381886391857    32.59078432   216.87566573
 C      9   2   1     1.404988612053   126.98745415   192.23615456
 N     42   2   1     1.352765315936   113.57249190   106.07182484
 H      1   2   3     1.082793147374   132.09915262   142.90409359
 H      2   1   3     1.079907866440   120.37491314   153.23012771
 H      4   3   1     1.083587098484   121.10041664   179.51804983
 H      5   4   3     1.082588564506   122.84116718   179.43523310
 H      6   5   4     1.091978021757   104.45751055   100.07957921
 H      6   5   4     1.089793558432    84.69211589   209.59504486
 H      6   5   4     1.090820333511   133.88335934   322.39910405
 H      7   2  54     1.079807853278   126.66122480     1.30600390
 H     10   1   2     1.083619859545   118.75007628   118.73036399
 H     12   9   2     1.016297692608   125.29023241   180.00180175
 H     14  13  12     1.014936943854    44.97226959   359.42596618
 H     18  14  13     1.082871645210   128.03556573   234.20482432
 H     19  17  13     1.080893611786   126.41830519   178.11313280
 H     21  20  18     1.083569563987   121.05669627   180.67006309
 H     22  21  20     1.082483256222   122.73097286   180.59748951
 H     23  18  14     1.092105306278   103.92715769   234.93429879
 H     23  18  14     1.088871893291   134.19244188    12.25587044
 H     23  18  14     1.089833473518    84.85857450   125.45241208
 H     24  19  17     1.080075460327   127.28078426   178.44613241
 H     26  18  14     1.083408048706   118.76995697   244.94906660
 H     30  14  13     1.082703098730   127.99711412   279.66882698
 H     31  29  14     1.079759695488   125.22293469   180.92530585
 H     33  32  30     1.083188810873   121.01964473   180.74284758
 H     34  33  32     1.082494341787   122.70821597   180.59516895
 H     35  34  33     1.092652735319   105.73575241    97.19771933
 H     35  34  33     1.089462711615    84.05943581   206.43036958
 H     35  34  33     1.089268102902   133.08365142   318.50306270
 H     36  31  29     1.079439669458   126.61599965   178.98859863
 H     38  30  73     1.083742127999   118.77264435   359.90091293
 H     42   2   1     1.082178358682   119.31790784   322.70335529
 H     43  41  15     1.080281907652   126.36969097   182.06329380
 H     45  44  42     1.083277434455   121.10105945   179.58025624
 H     46  45  44     1.082194529648   122.72144639   179.46906377
 H     47  42   2     1.091546151109   106.65128841   315.16475048
 H     47  42   2     1.088818625851   132.46019523    94.52397119
 H     47  42   2     1.089531091801    83.63838232   206.04504406
 H     48  43  41     1.080402239909   127.23657387   181.62955349
 H     50  42   2     1.083186502870   118.77001737    94.71359229

---------------------------
INTERNAL COORDINATES (A.U.)
---------------------------
 C      0   0   0     0.000000000000     0.00000000     0.00000000
 C      1   0   0    11.311627561669     0.00000000     0.00000000
 C      1   2   0     4.560435794987    36.02001830     0.00000000
 C      3   1   2     2.651265562043    87.92120804   258.14622438
 C      4   3   1     2.608951547794   120.18112882     0.16658984
 C      5   4   3     4.624753681374   152.51419627     1.58514472
 C      2   1   3     2.585360837309    12.29728869    29.50669507
 C      7   2   3     2.710026725231   108.05010202     0.84668783
 C      2   1   3     2.710100516721   113.28028024   321.56534585
 C      1   2   3     2.609975189876    40.43917703    49.31449604
 N      1   2   3     2.556480993273    97.40427451   279.29020316
 N      9   2   1     2.600503484979   106.58526707    11.23181703
 N     12   9   2     5.527566200405   168.53581413   171.12065651
 N     13  12   9     5.583221047236    91.55032014    11.12112580
 N     14  13  12     5.528150518591    88.43092389   359.84326247
 C      8   7   2     2.654668413270   127.24786865   181.11170171
 C     13  12   9     2.582376967257    81.72106996   188.00453233
 C     14  13  12    10.882574804710    80.56209567   166.76250791
 C     17  13  12     2.757130505230   111.08861209   183.82872609
 C     18  14  13     4.558465206823    27.27532823    36.33507194
 C     20  18  14     2.650705180609    87.95206320   148.94598259
 C     21  20  18     2.611803198586   120.14573887   359.70382047
 C     18  14  13     4.623235745386   144.15733107    82.80075377
 C     19  17  13     2.557953565794   106.29293361   359.75308708
 C     13  12   9     2.582903091751   172.21332906    33.46711076
 C     18  14  13     2.609636529225    15.08449437   309.23336894
 N     22  21  20     2.556370638369   120.73759875     0.27865223
 C     25  13  17     2.666210041769   125.60330303   182.37774668
 C     14  13  12     2.601476916169    80.24689249   177.85461986
 C     14  13  12    10.892550769017   164.51507311   312.20821879
 C     29  14  13     2.712892575415   106.58649366   178.76395472
 C     30  14  13     4.560507835333    27.10625047    82.12560436
 C     32  30  14     2.652673401891    87.90059683   149.76154742
 C     33  32  30     2.609133588376   120.14881443   359.74174632
 C     34  33  32     4.627519515267   152.49203239     2.45173620
 C     31  29  14     2.585449236669   108.16950133     0.70383075
 C     14  13  12     2.600716325456   169.26375223   353.09862627
 C     30  14  13     2.609536633043    14.68948582   353.70041132
 N     34  33  32     2.556154803934   120.85575621     0.19603406
 C     37  14  29     2.654530526499   126.01551127   180.90772073
 C     15  14  13     2.582293994346    81.61824056   183.09049352
 C      2   1   3     8.029564866989   159.35448690   128.86899924
 C     41  15  14     2.758391104639   111.05201287   175.08990246
 C     42   2   1     4.559821839776    41.78584867   168.02038654
 C     44  42   2     2.652129475853    87.95153797   233.97558675
 C     45  44  42     2.611027836043   120.11137308     0.19721020
 C     42   2   1     4.629866436820   135.97209175    78.33523564
 C     43  41  15     2.559561325344   106.26758155     0.30894352
 C     15  14  13     2.584127074516   171.87382904   332.35056460
 C     42   2   1     2.611386828803    32.59078432   216.87566573
 C      9   2   1     2.655043698059   126.98745415   192.23615456
 N     42   2   1     2.556355970587   113.57249190   106.07182484
 H      1   2   3     2.046182508223   132.09915262   142.90409359
 H      2   1   3     2.040730117440   120.37491314   153.23012771
 H      4   3   1     2.047682858384   121.10041664   179.51804983
 H      5   4   3     2.045795902632   122.84116718   179.43523310
 H      6   5   4     2.063539405382   104.45751055   100.07957921
 H      6   5   4     2.059411367948    84.69211589   209.59504486
 H      6   5   4     2.061351691648   133.88335934   322.39910405
 H      7   2  54     2.040541119952   126.66122480     1.30600390
 H     10   1   2     2.047744767818   118.75007628   118.73036399
 H     12   9   2     1.920524309565   125.29023241   180.00180175
 H     14  13  12     1.917952867083    44.97226959   359.42596618
 H     18  14  13     2.046330847636   128.03556573   234.20482432
 H     19  17  13     2.042592906181   126.41830519   178.11313280
 H     21  20  18     2.047649722989   121.05669627   180.67006309
 H     22  21  20     2.045596898814   122.73097286   180.59748951
 H     23  18  14     2.063779938267   103.92715769   234.93429879
 H     23  18  14     2.057669673245   134.19244188    12.25587044
 H     23  18  14     2.059486796529    84.85857450   125.45241208
 H     24  19  17     2.041046823986   127.28078426   178.44613241
 H     26  18  14     2.047344503340   118.76995697   244.94906660
 H     30  14  13     2.046012340948   127.99711412   279.66882698
 H     31  29  14     2.040450114918   125.22293469   180.92530585
 H     33  32  30     2.046930203877   121.01964473   180.74284758
 H     34  33  32     2.045617847496   122.70821597   180.59516895
 H     35  34  33     2.064814429233   105.73575241    97.19771933
 H     35  34  33     2.058786158072    84.05943581   206.43036958
 H     35  34  33     2.058418400901   133.08365142   318.50306270
 H     36  31  29     2.039845353366   126.61599965   178.98859863
 H     38  30  73     2.047975821711   118.77264435   359.90091293
 H     42   2   1     2.045020725966   119.31790784   322.70335529
 H     43  41  15     2.041436952892   126.36969097   182.06329380
 H     45  44  42     2.047097678177   121.10105945   179.58025624
 H     46  45  44     2.045051284662   122.72144639   179.46906377
 H     47  42   2     2.062723288131   106.65128841   315.16475048
 H     47  42   2     2.057569012371   132.46019523    94.52397119
 H     47  42   2     2.058915377895    83.63838232   206.04504406
 H     48  43  41     2.041664347903   127.23657387   181.62955349
 H     50  42   2     2.046925842384   118.77001737    94.71359229

---------------------
BASIS SET INFORMATION
---------------------
There are 3 groups of distinct atoms

 Group   1 Type C   : 17s4p1d contracted to 3s2p1d pattern {881/31/1}
 Group   2 Type N   : 17s4p1d contracted to 3s2p1d pattern {881/31/1}
 Group   3 Type H   : 4s1p contracted to 2s1p pattern {31/1}

Atom   0C    basis set group =>   1
Atom   1N    basis set group =>   2
Atom   2C    basis set group =>   1
Atom   3N    basis set group =>   2
Atom   4C    basis set group =>   1
Atom   5N    basis set group =>   2
Atom   6C    basis set group =>   1
Atom   7N    basis set group =>   2
Atom   8C    basis set group =>   1
Atom   9N    basis set group =>   2
Atom  10C    basis set group =>   1
Atom  11N    basis set group =>   2
Atom  12C    basis set group =>   1
Atom  13N    basis set group =>   2
Atom  14C    basis set group =>   1
Atom  15N    basis set group =>   2
Atom  16C    basis set group =>   1
Atom  17C    basis set group =>   1
Atom  18C    basis set group =>   1
Atom  19C    basis set group =>   1
Atom  20C    basis set group =>   1
Atom  21C    basis set group =>   1
Atom  22C    basis set group =>   1
Atom  23C    basis set group =>   1
Atom  24C    basis set group =>   1
Atom  25C    basis set group =>   1
Atom  26C    basis set group =>   1
Atom  27C    basis set group =>   1
Atom  28C    basis set group =>   1
Atom  29C    basis set group =>   1
Atom  30C    basis set group =>   1
Atom  31C    basis set group =>   1
Atom  32C    basis set group =>   1
Atom  33C    basis set group =>   1
Atom  34C    basis set group =>   1
Atom  35C    basis set group =>   1
Atom  36C    basis set group =>   1
Atom  37C    basis set group =>   1
Atom  38C    basis set group =>   1
Atom  39C    basis set group =>   1
Atom  40C    basis set group =>   1
Atom  41C    basis set group =>   1
Atom  42C    basis set group =>   1
Atom  43C    basis set group =>   1
Atom  44C    basis set group =>   1
Atom  45C    basis set group =>   1
Atom  46C    basis set group =>   1
Atom  47C    basis set group =>   1
Atom  48C    basis set group =>   1
Atom  49C    basis set group =>   1
Atom  50C    basis set group =>   1
Atom  51C    basis set group =>   1
Atom  52H    basis set group =>   3
Atom  53H    basis set group =>   3
Atom  54H    basis set group =>   3
Atom  55H    basis set group =>   3
Atom  56H    basis set group =>   3
Atom  57H    basis set group =>   3
Atom  58H    basis set group =>   3
Atom  59H    basis set group =>   3
Atom  60H    basis set group =>   3
Atom  61H    basis set group =>   3
Atom  62H    basis set group =>   3
Atom  63H    basis set group =>   3
Atom  64H    basis set group =>   3
Atom  65H    basis set group =>   3
Atom  66H    basis set group =>   3
Atom  67H    basis set group =>   3
Atom  68H    basis set group =>   3
Atom  69H    basis set group =>   3
Atom  70H    basis set group =>   3
Atom  71H    basis set group =>   3
Atom  72H    basis set group =>   3
Atom  73H    basis set group =>   3
Atom  74H    basis set group =>   3
Atom  75H    basis set group =>   3
Atom  76H    basis set group =>   3
Atom  77H    basis set group =>   3
Atom  78H    basis set group =>   3
Atom  79H    basis set group =>   3
Atom  80H    basis set group =>   3
Atom  81H    basis set group =>   3
Atom  82H    basis set group =>   3
Atom  83H    basis set group =>   3
Atom  84H    basis set group =>   3
Atom  85H    basis set group =>   3
Atom  86H    basis set group =>   3
Atom  87H    basis set group =>   3
Atom  88H    basis set group =>   3
Atom  89H    basis set group =>   3


           ************************************************************
           *        Program running with 16 parallel MPI-processes    *
           *              working on a common directory               *
           ************************************************************
------------------------------------------------------------------------------
                           ORCA GTO INTEGRAL CALCULATION
------------------------------------------------------------------------------
------------------------------------------------------------------------------
                   ___                                                        
                  /   \      - P O W E R E D   B Y -                         
                 /     \                                                     
                 |  |  |   _    _      __       _____    __    __             
                 |  |  |  | |  | |    /  \     |  _  \  |  |  /  |          
                  \  \/   | |  | |   /    \    | | | |  |  | /  /          
                 / \  \   | |__| |  /  /\  \   | |_| |  |  |/  /          
                |  |  |   |  __  | /  /__\  \  |    /   |      \           
                |  |  |   | |  | | |   __   |  |    \   |  |\   \          
                \     /   | |  | | |  |  |  |  | |\  \  |  | \   \       
                 \___/    |_|  |_| |__|  |__|  |_| \__\ |__|  \__/        
                                                                              
                      - O R C A' S   B I G   F R I E N D -                    
                                      &                                       
                       - I N T E G R A L  F E E D E R -                       
                                                                              
 v1 FN, 2020, v2 2021                                                         
------------------------------------------------------------------------------


Reading SHARK input file /scratch/allen/tmpyp4_amber_gaff2/conf1/conf1/Conf262.orca.SHARKINP.tmp ... ok
----------------------
SHARK INTEGRAL PACKAGE
----------------------

Number of atoms                             ...     90
Number of basis functions                   ...   1230
Number of shells                            ...    738
Maximum angular momentum                    ...      2
Integral batch strategy                     ... SHARK/LIBINT Hybrid
RI-J (if used) integral strategy            ... SPLIT-RIJ (Revised 2003 algorithm where possible)
Printlevel                                  ...      1
Contraction scheme used                     ... PARTIAL GENERAL contraction
Coulomb Range Separation                    ... NOT USED
Exchange Range Separation                   ... NOT USED
Finite Nucleus Model                        ... NOT USED
Auxiliary Coulomb fitting basis             ... NOT available
Auxiliary J/K fitting basis                 ... NOT available
Auxiliary Correlation fitting basis         ... NOT available
Auxiliary 'external' fitting basis          ... NOT available
Integral threshold                          ...     2.500000e-11
Primitive cut-off                           ...     2.500000e-12
Primitive pair pre-selection threshold      ...     2.500000e-12

Calculating pre-screening integrals         ... done (  0.1 sec) Dimension = 738
Calculating pre-screening integrals (ORCA)  ... done (  0.3 sec) Dimension = 426
Organizing shell pair data                  ... done (  0.7 sec)
Shell pair information
Total number of shell pairs                 ...    272691
Shell pairs after pre-screening             ...     71595
Total number of primitive shell pairs       ...    422091
Primitive shell pairs kept                  ...     92345
          la=0 lb=0:  29416 shell pairs
          la=1 lb=0:  25957 shell pairs
          la=1 lb=1:   4686 shell pairs
          la=2 lb=0:   7892 shell pairs
          la=2 lb=1:   3113 shell pairs
          la=2 lb=2:    531 shell pairs

Calculating one electron integrals          ... done (  0.2 sec)
Calculating Nuclear repulsion               ... done (  0.0 sec) ENN=   6222.156673887257 Eh

SHARK setup successfully completed in   2.2 seconds

Maximum memory used throughout the entire GTOINT-calculation: 98.9 MB


           ************************************************************
           *        Program running with 16 parallel MPI-processes    *
           *              working on a common directory               *
           ************************************************************
-------------------------------------------------------------------------------
                                 ORCA SCF
-------------------------------------------------------------------------------

------------
SCF SETTINGS
------------
Hamiltonian:
 Ab initio Hamiltonian  Method          .... Hartree-Fock(GTOs)


General Settings:
 Integral files         IntName         .... /scratch/allen/tmpyp4_amber_gaff2/conf1/conf1/Conf262.orca
 Hartree-Fock type      HFTyp           .... RHF
 Total Charge           Charge          ....    0
 Multiplicity           Mult            ....    1
 Number of Electrons    NEL             ....  358
 Basis Dimension        Dim             ....  918
 Nuclear Repulsion      ENuc            ....   6222.1566738873 Eh

Convergence Acceleration:
 DIIS                   CNVDIIS         .... on
   Start iteration      DIISMaxIt       ....    12
   Startup error        DIISStart       ....  0.200000
   # of expansion vecs  DIISMaxEq       ....     5
   Bias factor          DIISBfac        ....   1.050
   Max. coefficient     DIISMaxC        ....  10.000
 Trust-Rad. Augm. Hess. CNVTRAH         .... auto
   Auto Start mean grad. ratio tolernc. ....  1.125000
   Auto Start start iteration           ....    20
   Auto Start num. interpolation iter.  ....    10
   Max. Number of Micro iterations      ....    16
   Max. Number of Macro iterations      .... Maxiter - #DIIS iter
   Number of Davidson start vectors     ....     2
   Converg. threshold I  (grad. norm)   ....   1.000e-05
   Converg. threshold II (energy diff.) ....   1.000e-08
   Grad. Scal. Fac. for Micro threshold ....   0.100
   Minimum threshold for Micro iter.    ....   0.010
   NR start threshold (gradient norm)   ....   0.001
   Initial trust radius                 ....   0.400
   Minimum AH scaling param. (alpha)    ....   1.000
   Maximum AH scaling param. (alpha)    .... 1000.000
   Orbital update algorithm             .... Taylor
   White noise on init. David. guess    .... on
   Maximum white noise                  ....   0.010
   Quad. conv. algorithm                .... NR
 SOSCF                  CNVSOSCF        .... on
   Start iteration      SOSCFMaxIt      ....   150
   Startup grad/error   SOSCFStart      ....  0.003300
 Level Shifting         CNVShift        .... on
   Level shift para.    LevelShift      ....    0.2500
   Turn off err/grad.   ShiftErr        ....    0.0010
 Zerner damping         CNVZerner       .... off
 Static damping         CNVDamp         .... on
   Fraction old density DampFac         ....    0.7000
   Max. Damping (<1)    DampMax         ....    0.9800
   Min. Damping (>=0)   DampMin         ....    0.0000
   Turn off err/grad.   DampErr         ....    0.1000
 Fernandez-Rico         CNVRico         .... off

SCF Procedure:
 Maximum # iterations   MaxIter         ....   125
 SCF integral mode      SCFMode         .... Direct
   Integral package                     .... SHARK and LIBINT hybrid scheme
 Reset frequency        DirectResetFreq ....    20
 Integral Threshold     Thresh          ....  2.500e-11 Eh
 Primitive CutOff       TCut            ....  2.500e-12 Eh

Convergence Tolerance:
 Convergence Check Mode ConvCheckMode   .... Total+1el-Energy
 Convergence forced     ConvForced      .... 1
 Energy Change          TolE            ....  1.000e-08 Eh
 1-El. energy change                    ....  1.000e-05 Eh
 Orbital Gradient       TolG            ....  1.000e-05
 Orbital Rotation angle TolX            ....  1.000e-05
 DIIS Error             TolErr          ....  5.000e-07


Diagonalization of the overlap matrix:
Smallest eigenvalue                        ... 2.262e-04
Time for diagonalization                   ...    0.436 sec
Threshold for overlap eigenvalues          ... 1.000e-08
Number of eigenvalues below threshold      ... 0
Time for construction of square roots      ...    0.268 sec
Total time needed                          ...    0.711 sec

Time for model grid setup =    1.299 sec

------------------------------
INITIAL GUESS: MODEL POTENTIAL
------------------------------
Loading Hartree-Fock densities                     ... done
Calculating cut-offs                               ... done
Initializing the effective Hamiltonian             ... done
Setting up the integral package (SHARK)            ... done
Starting the Coulomb interaction                   ... done (   1.4 sec)
Reading the grid                                   ... done
Mapping shells                                     ... done
Starting the XC term evaluation                    ... done (   0.2 sec)
Transforming the Hamiltonian                       ... done (   0.3 sec)
Diagonalizing the Hamiltonian                      ... done (   0.4 sec)
Back transforming the eigenvectors                 ... done (   0.1 sec)
Now organizing SCF variables                       ... done
                      ------------------
                      INITIAL GUESS DONE (   3.8 sec)
                      ------------------
--------------
SCF ITERATIONS
--------------
ITER       Energy         Delta-E        Max-DP      RMS-DP      [F,P]     Damp
               ***  Starting incremental Fock matrix formation  ***
  0  -2121.6426364821   0.000000000000 0.06932981  0.00121245  0.2349699 0.7000
  1  -2122.3116469061  -0.669010423950 0.05270018  0.00098265  0.1453352 0.7000
                               ***Turning on DIIS***
  2  -2122.7278114247  -0.416164518658 0.11736535  0.00222141  0.0806730 0.0000
  3  -2117.7511348873   4.976676537457 0.03413154  0.00068659  0.0442807 0.0000
  4  -2123.4097725185  -5.658637631208 0.00924874  0.00023062  0.0073355 0.0000
  5  -2123.5802996705  -0.170527152026 0.00531067  0.00013886  0.0051409 0.0000
  6  -2123.5599527088   0.020346961690 0.00446558  0.00009475  0.0024143 0.0000
  7  -2123.6651185335  -0.105165824698 0.00398398  0.00007959  0.0018931 0.0000
  8  -2123.6936388805  -0.028520347014 0.00385433  0.00008071  0.0017790 0.0000
                      *** Initiating the SOSCF procedure ***
                           *** Shutting down DIIS ***
                      *** Re-Reading the Fockian *** 
                      *** Removing any level shift *** 
ITER      Energy       Delta-E        Grad      Rot      Max-DP    RMS-DP
  9  -2123.65230137   0.0413375080  0.003176  0.003176  0.002943  0.000059
               *** Restarting incremental Fock matrix formation ***
 10  -2123.60866006   0.0436413171  0.002271  0.021245  0.005917  0.000097
 11  -2123.60929178  -0.0006317287  0.001445  0.071224  0.016663  0.000314
 12  -2123.61031620  -0.0010244149  0.000999  0.012867  0.005048  0.000068
 13  -2123.61057057  -0.0002543677  0.000785  0.015201  0.004879  0.000081
 14  -2123.61074930  -0.0001787371  0.000469  0.012865  0.004262  0.000059
 15  -2123.61082850  -0.0000791971  0.000302  0.011869  0.003476  0.000055
 16  -2123.61088410  -0.0000556006  0.000347  0.008959  0.001870  0.000035
 17  -2123.61090987  -0.0000257640  0.000194  0.002381  0.000909  0.000014
 18  -2123.61091715  -0.0000072867  0.000151  0.002517  0.000579  0.000010
 19  -2123.61092121  -0.0000040606  0.000105  0.002947  0.000614  0.000010
 20  -2123.61092408  -0.0000028693  0.000085  0.004192  0.000775  0.000013
 21  -2123.61092635  -0.0000022715  0.000065  0.003134  0.000576  0.000010
 22  -2123.61092752  -0.0000011629  0.000033  0.001767  0.000314  0.000006
 23  -2123.61092804  -0.0000005231  0.000029  0.000691  0.000192  0.000003
 24  -2123.61092828  -0.0000002445  0.000029  0.000720  0.000211  0.000003
 25  -2123.61092845  -0.0000001641  0.000024  0.000751  0.000245  0.000003
 26  -2123.61092858  -0.0000001274  0.000013  0.000667  0.000217  0.000003
 27  -2123.61092866  -0.0000000869  0.000013  0.000466  0.000127  0.000002
 28  -2123.61092870  -0.0000000363  0.000007  0.000141  0.000029  0.000001
 29  -2123.61092871  -0.0000000147  0.000004  0.000056  0.000014  0.000000
               *** Restarting incremental Fock matrix formation ***
 30  -2123.61092876  -0.0000000492  0.000003  0.000070  0.000016  0.000000
                 **** Energy Check signals convergence ****
              ***Rediagonalizing the Fockian in SOSCF/NRSCF***

               *****************************************************
               *                     SUCCESS                       *
               *           SCF CONVERGED AFTER  31 CYCLES          *
               *****************************************************


----------------
TOTAL SCF ENERGY
----------------

Total Energy       :        -2123.61092876 Eh          -57786.39117 eV

Components:
Nuclear Repulsion  :         6222.15667389 Eh          169313.49083 eV
Electronic Energy  :        -8345.76760265 Eh         -227099.88200 eV
One Electron Energy:       -15285.78874170 Eh         -415947.45802 eV
Two Electron Energy:         6940.02113905 Eh          188847.57602 eV

Virial components:
Potential Energy   :        -4245.59705840 Eh         -115528.56932 eV
Kinetic Energy     :         2121.98612964 Eh           57742.17814 eV
Virial Ratio       :            2.00076570


---------------
SCF CONVERGENCE
---------------

  Last Energy change         ...    3.3378e-09  Tolerance :   1.0000e-08
  Last MAX-Density change    ...    1.1703e-05  Tolerance :   1.0000e-07
  Last RMS-Density change    ...    2.5023e-07  Tolerance :   5.0000e-09
  Last Orbital Gradient      ...    1.6096e-06  Tolerance :   1.0000e-05
  Last Orbital Rotation      ...    6.7942e-05  Tolerance :   1.0000e-05

             **** THE GBW FILE WAS UPDATED (/scratch/allen/tmpyp4_amber_gaff2/conf1/conf1/Conf262.orca.gbw) ****
             **** DENSITY /scratch/allen/tmpyp4_amber_gaff2/conf1/conf1/Conf262.orca.scfp WAS UPDATED ****
             **** ENERGY FILE WAS UPDATED (/scratch/allen/tmpyp4_amber_gaff2/conf1/conf1/Conf262.orca.en.tmp) ****
             **** THE GBW FILE WAS UPDATED (/scratch/allen/tmpyp4_amber_gaff2/conf1/conf1/Conf262.orca.gbw) ****
             **** DENSITY /scratch/allen/tmpyp4_amber_gaff2/conf1/conf1/Conf262.orca.scfp WAS UPDATED ****
----------------
ORBITAL ENERGIES
----------------

  NO   OCC          E(Eh)            E(eV) 
   0   2.0000     -15.710703      -427.5100 
   1   2.0000     -15.630600      -425.3303 
   2   2.0000     -15.619137      -425.0183 
   3   2.0000     -15.581198      -423.9859 
   4   2.0000     -15.520374      -422.3309 
   5   2.0000     -15.505315      -421.9211 
   6   2.0000     -15.450649      -420.4335 
   7   2.0000     -15.428058      -419.8188 
   8   2.0000     -11.350778      -308.8704 
   9   2.0000     -11.350344      -308.8586 
  10   2.0000     -11.345130      -308.7167 
  11   2.0000     -11.305888      -307.6488 
  12   2.0000     -11.297617      -307.4238 
  13   2.0000     -11.291888      -307.2679 
  14   2.0000     -11.289955      -307.2153 
  15   2.0000     -11.282655      -307.0166 
  16   2.0000     -11.281618      -306.9884 
  17   2.0000     -11.281467      -306.9843 
  18   2.0000     -11.281192      -306.9768 
  19   2.0000     -11.272221      -306.7327 
  20   2.0000     -11.266112      -306.5665 
  21   2.0000     -11.246995      -306.0463 
  22   2.0000     -11.243476      -305.9505 
  23   2.0000     -11.234221      -305.6987 
  24   2.0000     -11.228167      -305.5340 
  25   2.0000     -11.227275      -305.5097 
  26   2.0000     -11.223457      -305.4058 
  27   2.0000     -11.219405      -305.2955 
  28   2.0000     -11.219081      -305.2867 
  29   2.0000     -11.209347      -305.0218 
  30   2.0000     -11.207984      -304.9848 
  31   2.0000     -11.193174      -304.5817 
  32   2.0000     -11.192070      -304.5517 
  33   2.0000     -11.191712      -304.5420 
  34   2.0000     -11.191168      -304.5272 
  35   2.0000     -11.190934      -304.5208 
  36   2.0000     -11.187603      -304.4302 
  37   2.0000     -11.181322      -304.2592 
  38   2.0000     -11.181227      -304.2566 
  39   2.0000     -11.175432      -304.0990 
  40   2.0000     -11.167670      -303.8877 
  41   2.0000     -11.165220      -303.8211 
  42   2.0000     -11.163835      -303.7834 
  43   2.0000     -11.160960      -303.7052 
  44   2.0000     -11.160308      -303.6874 
  45   2.0000     -11.146737      -303.3181 
  46   2.0000     -11.146281      -303.3057 
  47   2.0000     -11.141984      -303.1888 
  48   2.0000     -11.139893      -303.1319 
  49   2.0000     -11.132852      -302.9403 
  50   2.0000     -11.118753      -302.5566 
  51   2.0000     -11.113562      -302.4154 
  52   2.0000      -1.384398       -37.6714 
  53   2.0000      -1.318492       -35.8780 
  54   2.0000      -1.308089       -35.5949 
  55   2.0000      -1.275845       -34.7175 
  56   2.0000      -1.223321       -33.2882 
  57   2.0000      -1.201386       -32.6914 
  58   2.0000      -1.175915       -31.9983 
  59   2.0000      -1.160382       -31.5756 
  60   2.0000      -1.138581       -30.9824 
  61   2.0000      -1.107420       -30.1344 
  62   2.0000      -1.103204       -30.0197 
  63   2.0000      -1.097871       -29.8746 
  64   2.0000      -1.069503       -29.1027 
  65   2.0000      -1.052860       -28.6498 
  66   2.0000      -1.042785       -28.3756 
  67   2.0000      -1.033024       -28.1100 
  68   2.0000      -1.014506       -27.6061 
  69   2.0000      -1.004372       -27.3304 
  70   2.0000      -1.002759       -27.2865 
  71   2.0000      -0.993123       -27.0242 
  72   2.0000      -0.984609       -26.7926 
  73   2.0000      -0.977798       -26.6072 
  74   2.0000      -0.963955       -26.2305 
  75   2.0000      -0.962052       -26.1788 
  76   2.0000      -0.951220       -25.8840 
  77   2.0000      -0.941216       -25.6118 
  78   2.0000      -0.929187       -25.2845 
  79   2.0000      -0.921294       -25.0697 
  80   2.0000      -0.913746       -24.8643 
  81   2.0000      -0.889808       -24.2129 
  82   2.0000      -0.884585       -24.0708 
  83   2.0000      -0.869656       -23.6645 
  84   2.0000      -0.860496       -23.4153 
  85   2.0000      -0.847666       -23.0662 
  86   2.0000      -0.831032       -22.6135 
  87   2.0000      -0.827983       -22.5306 
  88   2.0000      -0.821051       -22.3419 
  89   2.0000      -0.794772       -21.6268 
  90   2.0000      -0.786897       -21.4125 
  91   2.0000      -0.768028       -20.8991 
  92   2.0000      -0.734286       -19.9809 
  93   2.0000      -0.733576       -19.9616 
  94   2.0000      -0.728192       -19.8151 
  95   2.0000      -0.722307       -19.6550 
  96   2.0000      -0.716547       -19.4982 
  97   2.0000      -0.707612       -19.2551 
  98   2.0000      -0.704986       -19.1836 
  99   2.0000      -0.702114       -19.1055 
 100   2.0000      -0.695719       -18.9315 
 101   2.0000      -0.689135       -18.7523 
 102   2.0000      -0.684140       -18.6164 
 103   2.0000      -0.674820       -18.3628 
 104   2.0000      -0.673598       -18.3295 
 105   2.0000      -0.667854       -18.1732 
 106   2.0000      -0.665485       -18.1088 
 107   2.0000      -0.662990       -18.0409 
 108   2.0000      -0.652834       -17.7645 
 109   2.0000      -0.650042       -17.6885 
 110   2.0000      -0.648495       -17.6464 
 111   2.0000      -0.642599       -17.4860 
 112   2.0000      -0.640321       -17.4240 
 113   2.0000      -0.636184       -17.3114 
 114   2.0000      -0.630632       -17.1604 
 115   2.0000      -0.629287       -17.1238 
 116   2.0000      -0.626354       -17.0440 
 117   2.0000      -0.617584       -16.8053 
 118   2.0000      -0.611748       -16.6465 
 119   2.0000      -0.610314       -16.6075 
 120   2.0000      -0.609405       -16.5827 
 121   2.0000      -0.601164       -16.3585 
 122   2.0000      -0.590127       -16.0582 
 123   2.0000      -0.587737       -15.9931 
 124   2.0000      -0.585155       -15.9229 
 125   2.0000      -0.579263       -15.7625 
 126   2.0000      -0.575658       -15.6645 
 127   2.0000      -0.573263       -15.5993 
 128   2.0000      -0.571193       -15.5429 
 129   2.0000      -0.565449       -15.3867 
 130   2.0000      -0.556497       -15.1431 
 131   2.0000      -0.545955       -14.8562 
 132   2.0000      -0.541690       -14.7401 
 133   2.0000      -0.539650       -14.6846 
 134   2.0000      -0.533962       -14.5298 
 135   2.0000      -0.529707       -14.4141 
 136   2.0000      -0.518595       -14.1117 
 137   2.0000      -0.516193       -14.0463 
 138   2.0000      -0.513556       -13.9746 
 139   2.0000      -0.512767       -13.9531 
 140   2.0000      -0.510489       -13.8911 
 141   2.0000      -0.503075       -13.6894 
 142   2.0000      -0.501358       -13.6427 
 143   2.0000      -0.498922       -13.5764 
 144   2.0000      -0.495349       -13.4791 
 145   2.0000      -0.493762       -13.4359 
 146   2.0000      -0.489615       -13.3231 
 147   2.0000      -0.474972       -12.9247 
 148   2.0000      -0.472628       -12.8609 
 149   2.0000      -0.466027       -12.6812 
 150   2.0000      -0.461807       -12.5664 
 151   2.0000      -0.460127       -12.5207 
 152   2.0000      -0.451800       -12.2941 
 153   2.0000      -0.441145       -12.0042 
 154   2.0000      -0.434288       -11.8176 
 155   2.0000      -0.432506       -11.7691 
 156   2.0000      -0.419406       -11.4126 
 157   2.0000      -0.414852       -11.2887 
 158   2.0000      -0.412908       -11.2358 
 159   2.0000      -0.404772       -11.0144 
 160   2.0000      -0.381869       -10.3912 
 161   2.0000      -0.370039       -10.0693 
 162   2.0000      -0.354525        -9.6471 
 163   2.0000      -0.352968        -9.6048 
 164   2.0000      -0.346131        -9.4187 
 165   2.0000      -0.340613        -9.2685 
 166   2.0000      -0.338677        -9.2159 
 167   2.0000      -0.320164        -8.7121 
 168   2.0000      -0.313349        -8.5267 
 169   2.0000      -0.303418        -8.2564 
 170   2.0000      -0.298311        -8.1175 
 171   2.0000      -0.283092        -7.7033 
 172   2.0000      -0.276649        -7.5280 
 173   2.0000      -0.265771        -7.2320 
 174   2.0000      -0.230785        -6.2800 
 175   2.0000      -0.183466        -4.9924 
 176   2.0000      -0.173622        -4.7245 
 177   2.0000      -0.062588        -1.7031 
 178   2.0000      -0.050762        -1.3813 
 179   0.0000       0.035173         0.9571 
 180   0.0000       0.056200         1.5293 
 181   0.0000       0.079539         2.1644 
 182   0.0000       0.098117         2.6699 
 183   0.0000       0.102034         2.7765 
 184   0.0000       0.127286         3.4636 
 185   0.0000       0.140105         3.8124 
 186   0.0000       0.148689         4.0460 
 187   0.0000       0.162822         4.4306 
 188   0.0000       0.166328         4.5260 
 189   0.0000       0.168008         4.5717 
 190   0.0000       0.169799         4.6205 
 191   0.0000       0.172903         4.7049 
 192   0.0000       0.176939         4.8148 
 193   0.0000       0.193293         5.2598 
 194   0.0000       0.203763         5.5447 
 195   0.0000       0.205161         5.5827 
 196   0.0000       0.211119         5.7449 
 197   0.0000       0.212190         5.7740 
 198   0.0000       0.217547         5.9198 
 199   0.0000       0.220971         6.0129 
 200   0.0000       0.233529         6.3547 
 201   0.0000       0.234289         6.3753 
 202   0.0000       0.237367         6.4591 
 203   0.0000       0.240366         6.5407 
 204   0.0000       0.242328         6.5941 
 205   0.0000       0.246765         6.7148 
 206   0.0000       0.250250         6.8096 
 207   0.0000       0.251861         6.8535 
 208   0.0000       0.254500         6.9253 
 209   0.0000       0.258266         7.0278 
 210   0.0000       0.263610         7.1732 
 211   0.0000       0.266166         7.2428 
 212   0.0000       0.267194         7.2707 
 213   0.0000       0.273634         7.4460 
 214   0.0000       0.279112         7.5950 
 215   0.0000       0.280285         7.6269 
 216   0.0000       0.283365         7.7107 
 217   0.0000       0.284793         7.7496 
 218   0.0000       0.288240         7.8434 
 219   0.0000       0.288949         7.8627 
 220   0.0000       0.290863         7.9148 
 221   0.0000       0.294112         8.0032 
 222   0.0000       0.297912         8.1066 
 223   0.0000       0.298820         8.1313 
 224   0.0000       0.300568         8.1789 
 225   0.0000       0.304707         8.2915 
 226   0.0000       0.305540         8.3142 
 227   0.0000       0.306431         8.3384 
 228   0.0000       0.316262         8.6059 
 229   0.0000       0.318948         8.6790 
 230   0.0000       0.326812         8.8930 
 231   0.0000       0.328293         8.9333 
 232   0.0000       0.330918         9.0047 
 233   0.0000       0.335062         9.1175 
 234   0.0000       0.339203         9.2302 
 235   0.0000       0.356763         9.7080 
 236   0.0000       0.358625         9.7587 
 237   0.0000       0.362018         9.8510 
 238   0.0000       0.378776        10.3070 
 239   0.0000       0.391035        10.6406 
 240   0.0000       0.397840        10.8258 
 241   0.0000       0.398789        10.8516 
 242   0.0000       0.408067        11.1041 
 243   0.0000       0.419352        11.4111 
 244   0.0000       0.424131        11.5412 
 245   0.0000       0.429116        11.6768 
 246   0.0000       0.436440        11.8761 
 247   0.0000       0.438305        11.9269 
 248   0.0000       0.442387        12.0380 
 249   0.0000       0.445355        12.1187 
 250   0.0000       0.451387        12.2829 
 251   0.0000       0.456075        12.4104 
 252   0.0000       0.462530        12.5861 
 253   0.0000       0.467910        12.7325 
 254   0.0000       0.470194        12.7946 
 255   0.0000       0.476480        12.9657 
 256   0.0000       0.477307        12.9882 
 257   0.0000       0.483882        13.1671 
 258   0.0000       0.486540        13.2394 
 259   0.0000       0.492701        13.4071 
 260   0.0000       0.502111        13.6631 
 261   0.0000       0.504613        13.7312 
 262   0.0000       0.508183        13.8284 
 263   0.0000       0.508723        13.8431 
 264   0.0000       0.511984        13.9318 
 265   0.0000       0.516764        14.0619 
 266   0.0000       0.521105        14.1800 
 267   0.0000       0.525227        14.2922 
 268   0.0000       0.531548        14.4642 
 269   0.0000       0.541550        14.7363 
 270   0.0000       0.543295        14.7838 
 271   0.0000       0.544821        14.8253 
 272   0.0000       0.547966        14.9109 
 273   0.0000       0.550714        14.9857 
 274   0.0000       0.551593        15.0096 
 275   0.0000       0.559607        15.2277 
 276   0.0000       0.567800        15.4506 
 277   0.0000       0.571113        15.5408 
 278   0.0000       0.578202        15.7337 
 279   0.0000       0.585148        15.9227 
 280   0.0000       0.588857        16.0236 
 281   0.0000       0.594005        16.1637 
 282   0.0000       0.596108        16.2209 
 283   0.0000       0.598492        16.2858 
 284   0.0000       0.601394        16.3648 
 285   0.0000       0.603485        16.4217 
 286   0.0000       0.605487        16.4761 
 287   0.0000       0.607812        16.5394 
 288   0.0000       0.613137        16.6843 
 289   0.0000       0.619711        16.8632 
 290   0.0000       0.625894        17.0315 
 291   0.0000       0.629275        17.1235 
 292   0.0000       0.630677        17.1616 
 293   0.0000       0.636192        17.3117 
 294   0.0000       0.643324        17.5057 
 295   0.0000       0.646992        17.6055 
 296   0.0000       0.653321        17.7778 
 297   0.0000       0.657112        17.8809 
 298   0.0000       0.659758        17.9529 
 299   0.0000       0.662957        18.0400 
 300   0.0000       0.666644        18.1403 
 301   0.0000       0.668609        18.1938 
 302   0.0000       0.671991        18.2858 
 303   0.0000       0.674793        18.3621 
 304   0.0000       0.677548        18.4370 
 305   0.0000       0.679584        18.4924 
 306   0.0000       0.683634        18.6026 
 307   0.0000       0.687990        18.7212 
 308   0.0000       0.691077        18.8052 
 309   0.0000       0.697170        18.9710 
 310   0.0000       0.697735        18.9863 
 311   0.0000       0.700816        19.0702 
 312   0.0000       0.706025        19.2119 
 313   0.0000       0.706870        19.2349 
 314   0.0000       0.714406        19.4400 
 315   0.0000       0.715038        19.4572 
 316   0.0000       0.715325        19.4650 
 317   0.0000       0.717920        19.5356 
 318   0.0000       0.718566        19.5532 
 319   0.0000       0.723339        19.6831 
 320   0.0000       0.725461        19.7408 
 321   0.0000       0.729275        19.8446 
 322   0.0000       0.731447        19.9037 
 323   0.0000       0.736259        20.0346 
 324   0.0000       0.740718        20.1560 
 325   0.0000       0.742192        20.1961 
 326   0.0000       0.745487        20.2857 
 327   0.0000       0.747312        20.3354 
 328   0.0000       0.750581        20.4243 
 329   0.0000       0.756402        20.5828 
 330   0.0000       0.758475        20.6392 
 331   0.0000       0.760283        20.6884 
 332   0.0000       0.761715        20.7273 
 333   0.0000       0.763875        20.7861 
 334   0.0000       0.766277        20.8515 
 335   0.0000       0.767714        20.8906 
 336   0.0000       0.771915        21.0049 
 337   0.0000       0.777777        21.1644 
 338   0.0000       0.781664        21.2701 
 339   0.0000       0.787140        21.4192 
 340   0.0000       0.790463        21.5096 
 341   0.0000       0.791629        21.5413 
 342   0.0000       0.793142        21.5825 
 343   0.0000       0.794324        21.6146 
 344   0.0000       0.796548        21.6752 
 345   0.0000       0.800731        21.7890 
 346   0.0000       0.803472        21.8636 
 347   0.0000       0.805926        21.9304 
 348   0.0000       0.812558        22.1108 
 349   0.0000       0.815494        22.1907 
 350   0.0000       0.817078        22.2338 
 351   0.0000       0.823313        22.4035 
 352   0.0000       0.823872        22.4187 
 353   0.0000       0.826002        22.4767 
 354   0.0000       0.828450        22.5433 
 355   0.0000       0.830059        22.5870 
 356   0.0000       0.831608        22.6292 
 357   0.0000       0.836539        22.7634 
 358   0.0000       0.839276        22.8379 
 359   0.0000       0.840027        22.8583 
 360   0.0000       0.844225        22.9725 
 361   0.0000       0.846546        23.0357 
 362   0.0000       0.848200        23.0807 
 363   0.0000       0.849909        23.1272 
 364   0.0000       0.851833        23.1796 
 365   0.0000       0.854649        23.2562 
 366   0.0000       0.858104        23.3502 
 367   0.0000       0.859461        23.3871 
 368   0.0000       0.863417        23.4948 
 369   0.0000       0.864587        23.5266 
 370   0.0000       0.866566        23.5805 
 371   0.0000       0.869194        23.6520 
 372   0.0000       0.871552        23.7161 
 373   0.0000       0.872000        23.7283 
 374   0.0000       0.874456        23.7952 
 375   0.0000       0.876592        23.8533 
 376   0.0000       0.877056        23.8659 
 377   0.0000       0.880319        23.9547 
 378   0.0000       0.886066        24.1111 
 379   0.0000       0.888972        24.1902 
 380   0.0000       0.889920        24.2160 
 381   0.0000       0.893236        24.3062 
 382   0.0000       0.900558        24.5054 
 383   0.0000       0.903562        24.5872 
 384   0.0000       0.905003        24.6264 
 385   0.0000       0.907267        24.6880 
 386   0.0000       0.908586        24.7239 
 387   0.0000       0.915473        24.9113 
 388   0.0000       0.917678        24.9713 
 389   0.0000       0.918389        24.9906 
 390   0.0000       0.920869        25.0581 
 391   0.0000       0.923227        25.1223 
 392   0.0000       0.927822        25.2473 
 393   0.0000       0.932123        25.3644 
 394   0.0000       0.932968        25.3874 
 395   0.0000       0.934108        25.4184 
 396   0.0000       0.938193        25.5295 
 397   0.0000       0.938632        25.5415 
 398   0.0000       0.939963        25.5777 
 399   0.0000       0.942959        25.6592 
 400   0.0000       0.947942        25.7948 
 401   0.0000       0.949444        25.8357 
 402   0.0000       0.951377        25.8883 
 403   0.0000       0.955975        26.0134 
 404   0.0000       0.957717        26.0608 
 405   0.0000       0.959228        26.1019 
 406   0.0000       0.963964        26.2308 
 407   0.0000       0.966819        26.3085 
 408   0.0000       0.967230        26.3197 
 409   0.0000       0.974464        26.5165 
 410   0.0000       0.978729        26.6326 
 411   0.0000       0.982553        26.7366 
 412   0.0000       0.988503        26.8985 
 413   0.0000       0.995188        27.0804 
 414   0.0000       0.996123        27.1059 
 415   0.0000       0.998866        27.1805 
 416   0.0000       1.002547        27.2807 
 417   0.0000       1.005463        27.3600 
 418   0.0000       1.008346        27.4385 
 419   0.0000       1.017759        27.6946 
 420   0.0000       1.019395        27.7391 
 421   0.0000       1.024712        27.8838 
 422   0.0000       1.033850        28.1325 
 423   0.0000       1.036627        28.2081 
 424   0.0000       1.040807        28.3218 
 425   0.0000       1.045132        28.4395 
 426   0.0000       1.056410        28.7464 
 427   0.0000       1.064207        28.9585 
 428   0.0000       1.071187        29.1485 
 429   0.0000       1.072134        29.1743 
 430   0.0000       1.073008        29.1980 
 431   0.0000       1.080894        29.4126 
 432   0.0000       1.084708        29.5164 
 433   0.0000       1.087858        29.6021 
 434   0.0000       1.093889        29.7662 
 435   0.0000       1.096794        29.8453 
 436   0.0000       1.103713        30.0336 
 437   0.0000       1.111212        30.2376 
 438   0.0000       1.114226        30.3196 
 439   0.0000       1.115891        30.3649 
 440   0.0000       1.116641        30.3854 
 441   0.0000       1.121518        30.5181 
 442   0.0000       1.126746        30.6603 
 443   0.0000       1.129651        30.7394 
 444   0.0000       1.131960        30.8022 
 445   0.0000       1.134730        30.8776 
 446   0.0000       1.141119        31.0514 
 447   0.0000       1.143334        31.1117 
 448   0.0000       1.145434        31.1689 
 449   0.0000       1.148789        31.2601 
 450   0.0000       1.154779        31.4231 
 451   0.0000       1.156468        31.4691 
 452   0.0000       1.158436        31.5227 
 453   0.0000       1.161444        31.6045 
 454   0.0000       1.164392        31.6847 
 455   0.0000       1.166834        31.7512 
 456   0.0000       1.173654        31.9367 
 457   0.0000       1.177974        32.0543 
 458   0.0000       1.184707        32.2375 
 459   0.0000       1.186865        32.2962 
 460   0.0000       1.189735        32.3743 
 461   0.0000       1.192440        32.4479 
 462   0.0000       1.198115        32.6024 
 463   0.0000       1.202842        32.7310 
 464   0.0000       1.206997        32.8440 
 465   0.0000       1.207625        32.8612 
 466   0.0000       1.210622        32.9427 
 467   0.0000       1.212624        32.9972 
 468   0.0000       1.220221        33.2039 
 469   0.0000       1.223797        33.3012 
 470   0.0000       1.227676        33.4067 
 471   0.0000       1.232174        33.5291 
 472   0.0000       1.233618        33.5685 
 473   0.0000       1.236564        33.6486 
 474   0.0000       1.237863        33.6840 
 475   0.0000       1.242791        33.8181 
 476   0.0000       1.246477        33.9184 
 477   0.0000       1.249407        33.9981 
 478   0.0000       1.255154        34.1545 
 479   0.0000       1.257036        34.2057 
 480   0.0000       1.260143        34.2902 
 481   0.0000       1.264417        34.4065 
 482   0.0000       1.265708        34.4417 
 483   0.0000       1.269713        34.5506 
 484   0.0000       1.275094        34.6971 
 485   0.0000       1.279986        34.8302 
 486   0.0000       1.283638        34.9296 
 487   0.0000       1.286440        35.0058 
 488   0.0000       1.289369        35.0855 
 489   0.0000       1.292111        35.1601 
 490   0.0000       1.296056        35.2675 
 491   0.0000       1.299436        35.3595 
 492   0.0000       1.302025        35.4299 
 493   0.0000       1.308044        35.5937 
 494   0.0000       1.311023        35.6748 
 495   0.0000       1.315389        35.7936 
 496   0.0000       1.319017        35.8923 
 497   0.0000       1.322971        35.9999 
 498   0.0000       1.326933        36.1077 
 499   0.0000       1.328495        36.1502 
 500   0.0000       1.332401        36.2565 
 501   0.0000       1.337987        36.4085 
 502   0.0000       1.341396        36.5012 
[...]
      pz      :     0.021758  p :     0.079260
      px      :     0.042835
      py      :     0.014666
 77 H s       :     0.895805  s :     0.895805
      pz      :     0.047103  p :     0.078320
      px      :     0.015003
      py      :     0.016215
 78 H s       :     0.896202  s :     0.896202
      pz      :     0.025436  p :     0.078232
      px      :     0.020712
      py      :     0.032083
 79 H s       :     0.907183  s :     0.907183
      pz      :     0.022633  p :     0.087291
      px      :     0.021904
      py      :     0.042754
 80 H s       :     0.880059  s :     0.880059
      pz      :     0.038129  p :     0.083151
      px      :     0.029465
      py      :     0.015556
 81 H s       :     0.888931  s :     0.888931
      pz      :     0.037534  p :     0.083283
      px      :     0.016082
      py      :     0.029667
 82 H s       :     0.914134  s :     0.914134
      pz      :     0.022498  p :     0.087161
      px      :     0.030907
      py      :     0.033756
 83 H s       :     0.872352  s :     0.872352
      pz      :     0.039162  p :     0.083614
      px      :     0.015247
      py      :     0.029204
 84 H s       :     0.888918  s :     0.888918
      pz      :     0.035804  p :     0.084467
      px      :     0.031805
      py      :     0.016858
 85 H s       :     0.896263  s :     0.896263
      pz      :     0.022507  p :     0.079597
      px      :     0.014162
      py      :     0.042928
 86 H s       :     0.890851  s :     0.890851
      pz      :     0.024695  p :     0.078884
      px      :     0.032986
      py      :     0.021203
 87 H s       :     0.891462  s :     0.891462
      pz      :     0.047790  p :     0.078573
      px      :     0.015660
      py      :     0.015123
 88 H s       :     0.918321  s :     0.918321
      pz      :     0.022525  p :     0.086821
      px      :     0.041971
      py      :     0.022325
 89 H s       :     0.875688  s :     0.875688
      pz      :     0.037782  p :     0.084016
      px      :     0.030448
      py      :     0.015786


                      *****************************
                      * MAYER POPULATION ANALYSIS *
                      *****************************

  NA   - Mulliken gross atomic population
  ZA   - Total nuclear charge
  QA   - Mulliken gross atomic charge
  VA   - Mayer's total valence
  BVA  - Mayer's bonded valence
  FA   - Mayer's free valence

  ATOM       NA         ZA         QA         VA         BVA        FA
  0 C      5.7647     6.0000     0.2353     3.8015     3.8015    -0.0000
  1 N      7.4146     7.0000    -0.4146     3.4727     3.4727    -0.0000
  2 C      6.0663     6.0000    -0.0663     3.9206     3.9206     0.0000
  3 N      7.3432     7.0000    -0.3432     3.4222     3.4222    -0.0000
  4 C      6.0671     6.0000    -0.0671     3.9574     3.9574    -0.0000
  5 N      7.5660     7.0000    -0.5660     3.0672     3.0672    -0.0000
  6 C      6.0290     6.0000    -0.0290     3.9616     3.9616     0.0000
  7 N      7.3368     7.0000    -0.3368     3.4458     3.4458    -0.0000
  8 C      5.7666     6.0000     0.2334     3.8032     3.8032     0.0000
  9 N      7.5664     7.0000    -0.5664     3.0918     3.0918    -0.0000
 10 C      5.8965     6.0000     0.1035     3.8608     3.8608     0.0000
 11 N      7.4396     7.0000    -0.4396     3.3735     3.3735    -0.0000
 12 C      6.0593     6.0000    -0.0593     3.9089     3.9089     0.0000
 13 N      7.4510     7.0000    -0.4510     3.3178     3.3178     0.0000
 14 C      5.7782     6.0000     0.2218     3.8093     3.8093     0.0000
 15 N      7.4418     7.0000    -0.4418     3.3624     3.3624     0.0000
 16 C      5.7442     6.0000     0.2558     3.8061     3.8061    -0.0000
 17 C      6.0325     6.0000    -0.0325     3.9637     3.9637    -0.0000
 18 C      6.1810     6.0000    -0.1810     3.6794     3.6794     0.0000
 19 C      5.7669     6.0000     0.2331     3.8985     3.8985    -0.0000
 20 C      5.8114     6.0000     0.1886     3.8209     3.8209    -0.0000
 21 C      6.0697     6.0000    -0.0697     3.8920     3.8920    -0.0000
 22 C      6.0908     6.0000    -0.0908     3.9853     3.9853    -0.0000
 23 C      6.0672     6.0000    -0.0672     3.9882     3.9882    -0.0000
 24 C      5.7827     6.0000     0.2173     3.8301     3.8301    -0.0000
 25 C      5.8851     6.0000     0.1149     3.8935     3.8935     0.0000
 26 C      6.0656     6.0000    -0.0656     3.9101     3.9101    -0.0000
 27 C      5.7524     6.0000     0.2476     3.9032     3.9032     0.0000
 28 C      6.0399     6.0000    -0.0399     3.9903     3.9903    -0.0000
 29 C      6.1969     6.0000    -0.1969     3.7272     3.7272     0.0000
 30 C      5.7793     6.0000     0.2207     3.7789     3.7789    -0.0000
 31 C      5.8122     6.0000     0.1878     3.8336     3.8336    -0.0000
 32 C      6.0651     6.0000    -0.0651     3.9128     3.9128    -0.0000
 33 C      6.1026     6.0000    -0.1026     3.9845     3.9845    -0.0000
 34 C      6.0506     6.0000    -0.0506     3.9996     3.9996    -0.0000
 35 C      5.8215     6.0000     0.1785     3.8300     3.8300     0.0000
 36 C      5.8790     6.0000     0.1210     3.9105     3.9105    -0.0000
 37 C      6.0707     6.0000    -0.0707     3.9137     3.9137    -0.0000
 38 C      5.7557     6.0000     0.2443     3.7942     3.7942     0.0000
 39 C      6.0652     6.0000    -0.0652     3.9990     3.9990    -0.0000
 40 C      6.2045     6.0000    -0.2045     3.7526     3.7526    -0.0000
 41 C      5.7834     6.0000     0.2166     3.8741     3.8741    -0.0000
 42 C      5.7882     6.0000     0.2118     3.8329     3.8329    -0.0000
 43 C      6.0772     6.0000    -0.0772     3.9050     3.9050    -0.0000
 44 C      6.0926     6.0000    -0.0926     3.9830     3.9830     0.0000
 45 C      6.0383     6.0000    -0.0383     3.9965     3.9965    -0.0000
 46 C      5.8163     6.0000     0.1837     3.8201     3.8201     0.0000
 47 C      5.8832     6.0000     0.1168     3.8974     3.8974     0.0000
 48 C      6.0817     6.0000    -0.0817     3.8977     3.8977     0.0000
 49 C      5.7920     6.0000     0.2080     3.8626     3.8626     0.0000
 50 C      6.0676     6.0000    -0.0676     3.9904     3.9904    -0.0000
 51 C      6.1888     6.0000    -0.1888     3.7427     3.7427     0.0000
 52 H      0.9183     1.0000     0.0817     0.9821     0.9821    -0.0000
 53 H      1.0069     1.0000    -0.0069     1.0024     1.0024    -0.0000
 54 H      0.9333     1.0000     0.0667     1.0046     1.0046    -0.0000
 55 H      0.9199     1.0000     0.0801     0.9830     0.9830    -0.0000
 56 H      0.9156     1.0000     0.0844     0.9727     0.9727    -0.0000
 57 H      0.9241     1.0000     0.0759     0.9849     0.9849     0.0000
 58 H      0.9255     1.0000     0.0745     0.9867     0.9867     0.0000
 59 H      1.0289     1.0000    -0.0289     0.9962     0.9962     0.0000
 60 H      0.9328     1.0000     0.0672     1.0056     1.0056    -0.0000
 61 H      0.8228     1.0000     0.1772     1.0438     1.0438    -0.0000
 62 H      0.8322     1.0000     0.1678     1.0433     1.0433     0.0000
 63 H      0.9473     1.0000     0.0527     0.9863     0.9863    -0.0000
 64 H      1.0339     1.0000    -0.0339     0.9927     0.9927     0.0000
 65 H      0.9591     1.0000     0.0409     1.0077     1.0077    -0.0000
 66 H      0.9451     1.0000     0.0549     0.9847     0.9847    -0.0000
 67 H      0.9418     1.0000     0.0582     0.9716     0.9716     0.0000
 68 H      0.9440     1.0000     0.0560     0.9864     0.9864    -0.0000
 69 H      0.9410     1.0000     0.0590     0.9830     0.9830    -0.0000
 70 H      1.0136     1.0000    -0.0136     0.9982     0.9982    -0.0000
 71 H      0.9534     1.0000     0.0466     1.0077     1.0077    -0.0000
 72 H      0.9627     1.0000     0.0373     0.9860     0.9860     0.0000
 73 H      1.0196     1.0000    -0.0196     0.9962     0.9962    -0.0000
 74 H      0.9707     1.0000     0.0293     1.0090     1.0090     0.0000
 75 H      0.9639     1.0000     0.0361     0.9867     0.9867     0.0000
 76 H      0.9539     1.0000     0.0461     0.9702     0.9702     0.0000
 77 H      0.9540     1.0000     0.0460     0.9842     0.9842    -0.0000
 78 H      0.9548     1.0000     0.0452     0.9835     0.9835     0.0000
 79 H      1.0118     1.0000    -0.0118     1.0019     1.0019     0.0000
 80 H      0.9709     1.0000     0.0291     1.0062     1.0062    -0.0000
 81 H      0.9501     1.0000     0.0499     0.9853     0.9853     0.0000
 82 H      1.0229     1.0000    -0.0229     0.9952     0.9952    -0.0000
 83 H      0.9575     1.0000     0.0425     1.0107     1.0107    -0.0000
 84 H      0.9510     1.0000     0.0490     0.9864     0.9864     0.0000
 85 H      0.9460     1.0000     0.0540     0.9713     0.9713     0.0000
 86 H      0.9438     1.0000     0.0562     0.9841     0.9841     0.0000
 87 H      0.9458     1.0000     0.0542     0.9852     0.9852     0.0000
 88 H      1.0303     1.0000    -0.0303     0.9911     0.9911     0.0000
 89 H      0.9617     1.0000     0.0383     1.0059     1.0059     0.0000

  Mayer bond orders larger than 0.100000
B(  0-C ,  1-N ) :   1.1994 B(  0-C , 17-C ) :   1.5235 B(  0-C , 52-H ) :   0.9670 
B(  1-N ,  8-C ) :   1.1975 B(  1-N , 10-C ) :   0.9275 B(  2-C , 12-C ) :   1.5768 
B(  2-C , 16-C ) :   1.2772 B(  2-C , 53-H ) :   0.9792 B(  3-N , 14-C ) :   1.1762 
B(  3-N , 16-C ) :   1.2028 B(  3-N , 61-H ) :   0.8953 B(  4-C ,  6-C ) :   1.3502 
B(  4-C , 17-C ) :   1.3564 B(  4-C , 18-C ) :   1.0671 B(  5-N , 19-C ) :   1.3675 
B(  5-N , 27-C ) :   1.4461 B(  6-C ,  8-C ) :   1.5279 B(  6-C , 54-H ) :   0.9708 
B(  7-N , 30-C ) :   1.1848 B(  7-N , 38-C ) :   1.2149 B(  7-N , 62-H ) :   0.9013 
B(  8-C , 55-H ) :   0.9677 B(  9-N , 41-C ) :   1.4341 B(  9-N , 49-C ) :   1.3932 
B( 10-C , 56-H ) :   0.9766 B( 10-C , 57-H ) :   0.9807 B( 10-C , 58-H ) :   0.9817 
B( 11-N , 20-C ) :   1.0990 B( 11-N , 24-C ) :   1.1346 B( 11-N , 25-C ) :   0.9618 
B( 12-C , 14-C ) :   1.2773 B( 12-C , 59-H ) :   0.9767 B( 13-N , 31-C ) :   1.0837 
B( 13-N , 35-C ) :   1.0738 B( 13-N , 36-C ) :   0.9815 B( 14-C , 18-C ) :   1.2572 
B( 15-N , 42-C ) :   1.1254 B( 15-N , 46-C ) :   1.0898 B( 15-N , 47-C ) :   0.9664 
B( 16-C , 51-C ) :   1.2430 B( 17-C , 60-H ) :   0.9707 B( 18-C , 19-C ) :   1.3064 
B( 19-C , 21-C ) :   1.1640 B( 20-C , 28-C ) :   1.6280 B( 20-C , 63-H ) :   0.9709 
B( 21-C , 26-C ) :   1.6815 B( 21-C , 64-H ) :   0.9717 B( 22-C , 23-C ) :   1.2576 
B( 22-C , 28-C ) :   1.2801 B( 22-C , 29-C ) :   1.2549 B( 23-C , 24-C ) :   1.6332 
B( 23-C , 65-H ) :   0.9722 B( 24-C , 66-H ) :   0.9690 B( 25-C , 67-H ) :   0.9763 
B( 25-C , 68-H ) :   0.9833 B( 25-C , 69-H ) :   0.9819 B( 26-C , 27-C ) :   1.1733 
B( 26-C , 70-H ) :   0.9756 B( 27-C , 29-C ) :   1.2432 B( 28-C , 71-H ) :   0.9709 
B( 29-C , 30-C ) :   1.1754 B( 30-C , 32-C ) :   1.3505 B( 31-C , 39-C ) :   1.6825 
B( 31-C , 72-H ) :   0.9708 B( 32-C , 37-C ) :   1.5092 B( 32-C , 73-H ) :   0.9771 
B( 33-C , 34-C ) :   1.2342 B( 33-C , 39-C ) :   1.2267 B( 33-C , 40-C ) :   1.3534 
B( 34-C , 35-C ) :   1.6810 B( 34-C , 74-H ) :   0.9709 B( 35-C , 75-H ) :   0.9708 
B( 36-C , 76-H ) :   0.9755 B( 36-C , 77-H ) :   0.9826 B( 36-C , 78-H ) :   0.9838 
B( 37-C , 38-C ) :   1.3448 B( 37-C , 79-H ) :   0.9792 B( 38-C , 40-C ) :   1.1787 
B( 39-C , 80-H ) :   0.9721 B( 40-C , 41-C ) :   1.1711 B( 41-C , 43-C ) :   1.2534 
B( 42-C , 50-C ) :   1.6423 B( 42-C , 81-H ) :   0.9697 B( 43-C , 48-C ) :   1.5976 
B( 43-C , 82-H ) :   0.9755 B( 44-C , 45-C ) :   1.2803 B( 44-C , 50-C ) :   1.2493 
B( 44-C , 51-C ) :   1.2481 B( 45-C , 46-C ) :   1.6334 B( 45-C , 83-H ) :   0.9703 
B( 46-C , 84-H ) :   0.9709 B( 47-C , 85-H ) :   0.9759 B( 47-C , 86-H ) :   0.9826 
B( 47-C , 87-H ) :   0.9830 B( 48-C , 49-C ) :   1.2480 B( 48-C , 88-H ) :   0.9727 
B( 49-C , 51-C ) :   1.1927 B( 50-C , 89-H ) :   0.9722 

-------
TIMINGS
-------

Total SCF time: 0 days 0 hours 32 min 14 sec 

Total time                  ....    1934.752 sec
Sum of individual times     ....    1929.807 sec  ( 99.7%)

Fock matrix formation       ....    1901.179 sec  ( 98.3%)
Diagonalization             ....       7.377 sec  (  0.4%)
Density matrix formation    ....       0.606 sec  (  0.0%)
Population analysis         ....       0.587 sec  (  0.0%)
Initial guess               ....       2.511 sec  (  0.1%)
Orbital Transformation      ....       0.000 sec  (  0.0%)
Orbital Orthonormalization  ....       0.000 sec  (  0.0%)
DIIS solution               ....       3.290 sec  (  0.2%)
SOSCF solution              ....      12.957 sec  (  0.7%)

Maximum memory used throughout the entire SCF-calculation: 302.6 MB


           ************************************************************
           *        Program running with 16 parallel MPI-processes    *
           *              working on a common directory               *
           ************************************************************

------------------------------------------------------------------------------
                                ORCA  MP2 
------------------------------------------------------------------------------

Freezing NCore=104 chemical core electrons

----------
MP2 ENERGY (disk based algorithm)
----------

Dimension of the basis                    ...  918
Memory devoted to MP2                     ... 2000 MB   
Data format for buffers                   ... DOUBLE
Compression type for matrix containers    ... UNCOMPRESSED

-------------------------------
PARTIAL EXCHANGE TRANSFORMATION
-------------------------------

Transformation type                        ... one-operator
Generation of integrals (i,mue|j,nue)      ... ON
Generation of integrals (mue,kappa|nue,tau)... OFF
Generation of integrals (i,mue|a,nue)      ... OFF
Dimension of the basis                     ...  918
Number of internal MOs                     ...  127 (  52- 178)
Pair cutoff                                ... 2.500e-12 Eh
Number of AO pairs in the trafo            ... 421821
Total Number of distinct AO pairs          ... 421821
Memory devoted for trafo                   ... 2000.0 MB 
Max. Number of MO pairs treated together   ...  311      
Number Format for Storage                  ... Double (8 Byte)
Integral package used                      ... LIBINT

Starting integral evaluation:
    ... done with AO integral generation
Closing buffer AOK     (37.81 GB; CompressionRatio= 1.34)
Collecting buffer AOK 
Number of MO pairs included in the trafo   ... 8128
------------------------
SORTING OF (i,mue|j,nue)
------------------------

IBATCH = 1 of  2
IBATCH = 2 of  2
Closing buffer KAO     (51.03 GB; CompressionRatio= 1.00)
Collecting buffer KAO 
N(AO-Batches) Done                         ...  85571207 
N(AO-Batches) Skipped                      ...  81913353 
N(IJ)-pairs Skipped                        ...         0 
TOTAL TIME for half transformation         ...  2909.662 sec
AO-integral generation                     ...   209.196 sec
Half transformation                        ...   423.569 sec
K-integral sorting                         ...  2055.360 sec
Process 10:   Internal MO 132
Process 13:   Internal MO 156

Finished integral transformation - now doing MP2 part

Process  7:   Internal MO 108
Process  1:   Internal MO  60
Process  4:   Internal MO  84
OPERATOR COMBINATION   0   0: ij=( 52..178, 52..178)
Process  0:   Internal MO  54
Process  2:   Internal MO  69
Process  1:   Internal MO  63
Process  0:   Internal MO  57
Process  3:   Internal MO  78
Process  1:   Internal MO  66
Process  2:   Internal MO  72
Process  8:   Internal MO 117
Process 14:   Internal MO 165
Process 11:   Internal MO 141
Process  6:   Internal MO 102
Process  9:   Internal MO 126
Process  3:   Internal MO  81
Process  2:   Internal MO  75
Process  5:   Internal MO  93
Process 12:   Internal MO 150
Process  7:   Internal MO 111
Process 15:   Internal MO 174
Process 10:   Internal MO 135
Process  4:   Internal MO  87
Process  6:   Internal MO 105
Process  5:   Internal MO  96
Process  8:   Internal MO 120
Process  9:   Internal MO 129
Process  7:   Internal MO 114
Process  4:   Internal MO  90
Process 13:   Internal MO 159
Process 11:   Internal MO 144
Process  5:   Internal MO  99
Process 12:   Internal MO 153
Process 14:   Internal MO 168
Process 10:   Internal MO 138
Process  8:   Internal MO 123
Process 15:   Internal MO 177
Process 11:   Internal MO 147
Process 13:   Internal MO 162
Process 14:   Internal MO 171
-----------------------------------------------
 MP2 CORRELATION ENERGY   :     -7.264622888 Eh
-----------------------------------------------


-------
TIMINGS
-------
Total time                : 3245.124 sec
Integral trafo            : 2911.967 sec ( 89.7%)
K(i,j)                    :    6.288 sec (  0.2%)
T(i,j)                    :    0.076 sec (  0.0%)

---------------------------------------
MP2 TOTAL ENERGY:    -2130.875551647 Eh
---------------------------------------

Maximum memory used throughout the entire MP2-calculation: 2275.2 MB

-------------------------   --------------------
FINAL SINGLE POINT ENERGY     -2130.875551647393
-------------------------   --------------------


                            ***************************************
                            *     ORCA property calculations      *
                            ***************************************


  WARNING: The energy has been calculated at the MP2 level but the densities
           used in the property calculations are still SCF densities
           MP2 response densities have not been calculated 
           use %mp2 Density relaxed end
           or  %mp2 Density unrelaxed end

                                    ---------------------
                                    Active property flags
                                    ---------------------
   (+) Dipole Moment


------------------------------------------------------------------------------
                       ORCA ELECTRIC PROPERTIES CALCULATION
------------------------------------------------------------------------------

Dipole Moment Calculation                       ... on
Quadrupole Moment Calculation                   ... off
Polarizability Calculation                      ... off
GBWName                                         ... /scratch/allen/tmpyp4_amber_gaff2/conf1/conf1/Conf262.orca.gbw
Electron density                                ... /scratch/allen/tmpyp4_amber_gaff2/conf1/conf1/Conf262.orca.scfp
The origin for moment calculation is the CENTER OF MASS  = ( 0.000662, -0.003624 -0.001698)

-------------
DIPOLE MOMENT
-------------
                                X             Y             Z
Electronic contribution:     -4.44207       4.89449      -0.07390
Nuclear contribution   :      0.06162       0.23146       0.09769
                        -----------------------------------------
Total Dipole Moment    :     -4.38045       5.12595       0.02380
                        -----------------------------------------
Magnitude (a.u.)       :      6.74272
Magnitude (Debye)      :     17.13863



--------------------
Rotational spectrum 
--------------------
 
Rotational constants in cm-1:     0.001498     0.001472     0.000763 
Rotational constants in MHz :    44.911495    44.137902    22.865984 

 Dipole components along the rotational axes: 
x,y,z [a.u.] :    -5.997028     3.082097     0.024822 
x,y,z [Debye]:   -15.243235     7.834068     0.063092 

 

Timings for individual modules:

Sum of individual times         ...     5203.445 sec (=  86.724 min)
GTO integral calculation        ...        3.418 sec (=   0.057 min)   0.1 %
SCF iterations                  ...     1936.126 sec (=  32.269 min)  37.2 %
MP2 module                      ...     3263.901 sec (=  54.398 min)  62.7 %
                             ****ORCA TERMINATED NORMALLY****
TOTAL RUN TIME: 0 days 1 hours 26 minutes 46 seconds 932 msec
# of primitive gaussian functions

