
                                 *****************
                                 * O   R   C   A *
                                 *****************

                                            #,                                       
                                            ###                                      
                                            ####                                     
                                            #####                                    
                                            ######                                   
                                           ########,                                 
                                     ,,################,,,,,                         
                               ,,#################################,,                 
                          ,,##########################################,,             
                       ,#########################################, ''#####,          
                    ,#############################################,,   '####,        
                  ,##################################################,,,,####,       
                ,###########''''           ''''###############################       
              ,#####''   ,,,,##########,,,,          '''####'''          '####       
            ,##' ,,,,###########################,,,                        '##       
           ' ,,###''''                  '''############,,,                           
         ,,##''                                '''############,,,,        ,,,,,,###''
      ,#''                                            '''#######################'''  
     '                                                          ''''####''''         
             ,#######,   #######,   ,#######,      ##                                
            ,#'     '#,  ##    ##  ,#'     '#,    #''#        ######   ,####,        
            ##       ##  ##   ,#'  ##            #'  '#       #        #'  '#        
            ##       ##  #######   ##           ,######,      #####,   #    #        
            '#,     ,#'  ##    ##  '#,     ,#' ,#      #,         ##   #,  ,#        
             '#######'   ##     ##  '#######'  #'      '#     #####' # '####'        



                  #######################################################
                  #                        -***-                        #
                  #          Department of theory and spectroscopy      #
                  #    Directorship and core code : Frank Neese         #
                  #        Max Planck Institute fuer Kohlenforschung    #
                  #                Kaiser Wilhelm Platz 1               #
                  #                 D-45470 Muelheim/Ruhr               #
                  #                      Germany                        #
                  #                                                     #
                  #                  All rights reserved                #
                  #                        -***-                        #
                  #######################################################


                         Program Version 5.0.4 -  RELEASE  -


 With contributions from (in alphabetic order):
   Daniel Aravena         : Magnetic Suceptibility
   Michael Atanasov       : Ab Initio Ligand Field Theory (pilot matlab implementation)
   Alexander A. Auer      : GIAO ZORA, VPT2 properties, NMR spectrum
   Ute Becker             : Parallelization
   Giovanni Bistoni       : ED, misc. LED, open-shell LED, HFLD
   Martin Brehm           : Molecular dynamics
   Dmytro Bykov           : SCF Hessian
   Vijay G. Chilkuri      : MRCI spin determinant printing, contributions to CSF-ICE
   Dipayan Datta          : RHF DLPNO-CCSD density
   Achintya Kumar Dutta   : EOM-CC, STEOM-CC
   Dmitry Ganyushin       : Spin-Orbit,Spin-Spin,Magnetic field MRCI
   Miquel Garcia          : C-PCM and meta-GGA Hessian, CC/C-PCM, Gaussian charge scheme
   Yang Guo               : DLPNO-NEVPT2, F12-NEVPT2, CIM, IAO-localization
   Andreas Hansen         : Spin unrestricted coupled pair/coupled cluster methods
   Benjamin Helmich-Paris : MC-RPA, TRAH-SCF, COSX integrals
   Lee Huntington         : MR-EOM, pCC
   Robert Izsak           : Overlap fitted RIJCOSX, COSX-SCS-MP3, EOM
   Marcus Kettner         : VPT2
   Christian Kollmar      : KDIIS, OOCD, Brueckner-CCSD(T), CCSD density, CASPT2, CASPT2-K
   Simone Kossmann        : Meta GGA functionals, TD-DFT gradient, OOMP2, MP2 Hessian
   Martin Krupicka        : Initial AUTO-CI
   Lucas Lang             : DCDCAS
   Marvin Lechner         : AUTO-CI (C++ implementation), FIC-MRCC
   Dagmar Lenk            : GEPOL surface, SMD
   Dimitrios Liakos       : Extrapolation schemes; Compound Job, initial MDCI parallelization
   Dimitrios Manganas     : Further ROCIS development; embedding schemes
   Dimitrios Pantazis     : SARC Basis sets
   Anastasios Papadopoulos: AUTO-CI, single reference methods and gradients
   Taras Petrenko         : DFT Hessian,TD-DFT gradient, ASA, ECA, R-Raman, ABS, FL, XAS/XES, NRVS
   Peter Pinski           : DLPNO-MP2, DLPNO-MP2 Gradient
   Christoph Reimann      : Effective Core Potentials
   Marius Retegan         : Local ZFS, SOC
   Christoph Riplinger    : Optimizer, TS searches, QM/MM, DLPNO-CCSD(T), (RO)-DLPNO pert. Triples
   Tobias Risthaus        : Range-separated hybrids, TD-DFT gradient, RPA, STAB
   Michael Roemelt        : Original ROCIS implementation
   Masaaki Saitow         : Open-shell DLPNO-CCSD energy and density
   Barbara Sandhoefer     : DKH picture change effects
   Avijit Sen             : IP-ROCIS
   Kantharuban Sivalingam : CASSCF convergence, NEVPT2, FIC-MRCI
   Bernardo de Souza      : ESD, SOC TD-DFT
   Georgi Stoychev        : AutoAux, RI-MP2 NMR, DLPNO-MP2 response
   Willem Van den Heuvel  : Paramagnetic NMR
   Boris Wezisla          : Elementary symmetry handling
   Frank Wennmohs         : Technical directorship


 We gratefully acknowledge several colleagues who have allowed us to
 interface, adapt or use parts of their codes:
   Stefan Grimme, W. Hujo, H. Kruse, P. Pracht,  : VdW corrections, initial TS optimization,
                  C. Bannwarth, S. Ehlert          DFT functionals, gCP, sTDA/sTD-DF
   Ed Valeev, F. Pavosevic, A. Kumar             : LibInt (2-el integral package), F12 methods
   Garnet Chan, S. Sharma, J. Yang, R. Olivares  : DMRG
   Ulf Ekstrom                                   : XCFun DFT Library
   Mihaly Kallay                                 : mrcc  (arbitrary order and MRCC methods)
   Jiri Pittner, Ondrej Demel                    : Mk-CCSD
   Frank Weinhold                                : gennbo (NPA and NBO analysis)
   Christopher J. Cramer and Donald G. Truhlar   : smd solvation model
   Lars Goerigk                                  : TD-DFT with DH, B97 family of functionals
   V. Asgeirsson, H. Jonsson                     : NEB implementation
   FAccTs GmbH                                   : IRC, NEB, NEB-TS, DLPNO-Multilevel, CI-OPT
                                                   MM, QMMM, 2- and 3-layer-ONIOM, Crystal-QMMM,
                                                   LR-CPCM, SF, NACMEs, symmetry and pop. for TD-DFT,
                                                   nearIR, NL-DFT gradient (VV10), updates on ESD,
                                                   ML-optimized integration grids
   S Lehtola, MJT Oliveira, MAL Marques          : LibXC Library
   Liviu Ungur et al                             : ANISO software


 Your calculation uses the libint2 library for the computation of 2-el integrals
 For citations please refer to: http://libint.valeyev.net

 Your ORCA version has been built with support for libXC version: 5.1.0
 For citations please refer to: https://tddft.org/programs/libxc/

 This ORCA versions uses:
   CBLAS   interface :  Fast vector & matrix operations
   LAPACKE interface :  Fast linear algebra routines
   SCALAPACK package :  Parallel linear algebra routines
   Shared memory     :  Shared parallel matrices
   BLAS/LAPACK       :  OpenBLAS 0.3.15  USE64BITINT DYNAMIC_ARCH NO_AFFINITY Sandybridge SINGLE_THREADED
        Core in use  :  Sandybridge
   Copyright (c) 2011-2014, The OpenBLAS Project


================================================================================

----- Orbital basis set information -----
Your calculation utilizes the basis: cc-pVDZ 
       H, B-Ne : Obtained from the ccRepo (grant-hill.group.shef.ac.uk/ccrepo) Feb. 2017
                 T. H. Dunning, Jr., J. Chem. Phys. 90, 1007 (1989)
            He : Obtained from the ccRepo (grant-hill.group.shef.ac.uk/ccrepo) Feb. 2017
                 D. E. Woon, T. H. Dunning, Jr., J. Chem. Phys. 100, 2975 (1994)
  Li-Be, Na-Mg : Obtained from the ccRepo (grant-hill.group.shef.ac.uk/ccrepo) Feb. 2017
                 B. P. Prascher, D. E. Woon, K. A. Peterson, T. H. Dunning, Jr., A. K. Wilson, Theor. Chem. Acc. 128, 69 (2011)
         Al-Ar : Obtained from the ccRepo (grant-hill.group.shef.ac.uk/ccrepo) Feb. 2017
                 D. E. Woon, T. H. Dunning, Jr., J. Chem. Phys. 98, 1358 (1993)
            Ca : Obtained from the Peterson Research Group Website (tyr0.chem.wsu.edu/~kipeters) Feb. 2017
                 J. Koput, K. A. Peterson, J. Phys. Chem. 106, 9595 (2002)
         Sc-Zn : Obtained from the ccRepo (grant-hill.group.shef.ac.uk/ccrepo) Feb. 2017
                 N. B. Balabanov, K. A. Peterson, J. Chem. Phys. 123, 064107 (2005)
                 N. B. Balabanov, K. A. Peterson, J. Chem. Phys. 125, 074110 (2006)
         Ga-Kr : Obtained from the ccRepo (grant-hill.group.shef.ac.uk/ccrepo) Feb. 2017
                 A. K. Wilson, D. E. Woon, K. A. Peterson, T. H. Dunning, Jr., J. Chem. Phys. 110, 7667 (1999)

================================================================================
                                        WARNINGS
                       Please study these warnings very carefully!
================================================================================


WARNING: No MP2 level density has been requested!
         To caclulate MP2 level properties use
         %mp2 Density relaxed end
         or
         %mp2 Density unrelaxed end

WARNING: Post HF methods need fully converged wavefunctions
  ===> : Setting SCFConvForced true
         You can overwrite this default with %scf ConvForced false 


INFO   : the flag for use of the SHARK integral package has been found!

================================================================================
                                       INPUT FILE
================================================================================
NAME = /scratch/allen/tmpyp4_amber_gaff2/2.Mdgx/conf11/conf11/Conf30.orca
|  1> ! PAL2
|  2> ! mp2 cc-pvdz TightSCF  NoKeepInts
|  3> 
|  4> %scf
|  5>   MaxCore 2000
|  6> end
|  7> %mp2
|  8>   MaxCore 2000
|  9> end
| 10> * xyz 0 1
| 11>    C       -3.14500         6.43000        -0.44800
| 12>    C        1.47400         4.04100         0.05700
| 13>    C       -2.80200         4.09300         0.04900
| 14>    C       -4.08100         4.08100         0.62700
| 15>    C       -4.84400         5.23100         0.64600
| 16>    C       -5.23100         7.59000         0.11900
| 17>    C        0.13200         4.30700         0.06100
| 18>    C       -0.56900         3.05600         0.04700
| 19>    C        1.64900         2.61800         0.02300
| 20>    C       -2.34700         5.30300        -0.49600
| 21>    N       -4.37300         6.38400         0.11700
| 22>    N        0.38800         2.06700         0.02500
| 23>    N       -2.01000         0.39500        -0.07500
| 24>    N       -0.38800        -2.07400        -0.02700
| 25>    N        2.01000        -0.40100         0.06500
| 26>    C       -1.96000         2.86100         0.02400
| 27>    C       -2.62300         1.61500        -0.01800
| 28>    C       -5.57300        -4.32900         1.06600
| 29>    C       -4.07300         1.47100         0.05600
| 30>    C       -4.10600        -2.75600        -0.02600
| 31>    C       -4.99500        -2.75700        -1.11100
| 32>    C       -6.13200        -3.54200        -1.07600
| 33>    C       -7.65100        -5.11300         0.04000
| 34>    C       -4.32400         0.14100         0.03700
| 35>    C       -3.02500        -0.52000        -0.04800
| 36>    C       -4.42200        -3.56600         1.07500
| 37>    N       -6.40700        -4.31300         0.00100
| 38>    C       -2.86700        -1.92200        -0.04000
| 39>    C       -1.65000        -2.62400        -0.02700
| 40>    C        3.56800        -6.14200        -1.04000
| 41>    C       -1.47600        -4.04900        -0.03400
| 42>    C        2.80300        -4.09900        -0.00800
| 43>    C        3.65700        -4.38400         1.06900
| 44>    C        4.42700        -5.53000         1.05900
| 45>    C        5.24500        -7.58800         0.01400
| 46>    C       -0.13400        -4.31500        -0.02200
| 47>    C        0.56800        -3.06400        -0.02700
| 48>    C        2.77500        -5.01200        -1.07400
| 49>    N        4.37600        -6.39100         0.01700
| 50>    C        1.95900        -2.86900        -0.00900
| 51>    C        2.62100        -1.62200         0.00900
| 52>    C        5.54300         4.33900        -1.13000
| 53>    C        4.07000        -1.47900        -0.09400
| 54>    C        4.10400         2.75100        -0.02100
| 55>    C        5.02700         2.72900         1.03600
| 56>    C        6.16600         3.50900         0.97800
| 57>    C        7.61900         5.15300        -0.11500
| 58>    C        4.32100        -0.14800        -0.09200
| 59>    C        3.02500         0.51400         0.01500
| 60>    C        4.38700         3.58200        -1.11500
| 61>    C        2.86600         1.91600         0.01300
| 62>    N        6.41300         4.29600        -0.09500
| 63>    H       -2.83000         7.38700        -0.84500
| 64>    H        2.27400         4.76600         0.08100
| 65>    H       -4.49200         3.17500         1.05600
| 66>    H       -5.83800         5.26800         1.07200
| 67>    H       -5.87500         7.57000        -0.76300
| 68>    H       -5.83600         7.58800         1.02500
| 69>    H       -4.59400         8.47300         0.09700
| 70>    H       -0.33200         5.28200         0.06900
| 71>    H       -1.36300         5.38100        -0.94400
| 72>    H        0.18200         1.07200         0.00500
| 73>    H       -0.18300        -1.08000        -0.02100
| 74>    H       -5.86400        -4.96200         1.89500
| 75>    H       -4.79400         2.27200         0.13900
| 76>    H       -4.80000        -2.16000        -1.99400
| 77>    H       -6.84100        -3.58200        -1.89300
| 78>    H       -8.42800        -4.53600         0.54600
| 79>    H       -7.95600        -5.33700        -0.98100
| 80>    H       -7.45600        -6.03700         0.58400
| 81>    H       -5.28700        -0.34400         0.10000
| 82>    H       -3.78000        -3.60100         1.94700
| 83>    H        3.58700        -6.86800        -1.84300
| 84>    H       -2.27600        -4.77400        -0.05000
| 85>    H        3.71400        -3.72400         1.92600
| 86>    H        5.09200        -5.79500         1.87100
| 87>    H        6.20500        -7.32900        -0.43900
| 88>    H        5.39300        -7.91700         1.04200
| 89>    H        4.75900        -8.37300        -0.56400
| 90>    H        0.32900        -5.29000        -0.00800
| 91>    H        2.14600        -4.84200        -1.94000
| 92>    H        5.80800         4.98600        -1.95600
| 93>    H        4.78800        -2.28100        -0.18500
| 94>    H        4.86000         2.11400         1.91200
| 95>    H        6.90100         3.53100         1.77200
| 96>    H        7.38300         6.10900         0.35600
| 97>    H        8.41400         4.65200         0.43500
| 98>    H        7.92100         5.31000        -1.15000
| 99>    H        5.28300         0.33600        -0.17900
|100>    H        3.72000         3.63200        -1.96700
|101> *
|102> 
|103>                          ****END OF INPUT****
================================================================================

                       ****************************
                       * Single Point Calculation *
                       ****************************

---------------------------------
CARTESIAN COORDINATES (ANGSTROEM)
---------------------------------
  C     -3.145000    6.430000   -0.448000
  C      1.474000    4.041000    0.057000
  C     -2.802000    4.093000    0.049000
  C     -4.081000    4.081000    0.627000
  C     -4.844000    5.231000    0.646000
  C     -5.231000    7.590000    0.119000
  C      0.132000    4.307000    0.061000
  C     -0.569000    3.056000    0.047000
  C      1.649000    2.618000    0.023000
  C     -2.347000    5.303000   -0.496000
  N     -4.373000    6.384000    0.117000
  N      0.388000    2.067000    0.025000
  N     -2.010000    0.395000   -0.075000
  N     -0.388000   -2.074000   -0.027000
  N      2.010000   -0.401000    0.065000
  C     -1.960000    2.861000    0.024000
  C     -2.623000    1.615000   -0.018000
  C     -5.573000   -4.329000    1.066000
  C     -4.073000    1.471000    0.056000
  C     -4.106000   -2.756000   -0.026000
  C     -4.995000   -2.757000   -1.111000
  C     -6.132000   -3.542000   -1.076000
  C     -7.651000   -5.113000    0.040000
  C     -4.324000    0.141000    0.037000
  C     -3.025000   -0.520000   -0.048000
  C     -4.422000   -3.566000    1.075000
  N     -6.407000   -4.313000    0.001000
  C     -2.867000   -1.922000   -0.040000
  C     -1.650000   -2.624000   -0.027000
  C      3.568000   -6.142000   -1.040000
  C     -1.476000   -4.049000   -0.034000
  C      2.803000   -4.099000   -0.008000
  C      3.657000   -4.384000    1.069000
  C      4.427000   -5.530000    1.059000
  C      5.245000   -7.588000    0.014000
  C     -0.134000   -4.315000   -0.022000
  C      0.568000   -3.064000   -0.027000
  C      2.775000   -5.012000   -1.074000
  N      4.376000   -6.391000    0.017000
  C      1.959000   -2.869000   -0.009000
  C      2.621000   -1.622000    0.009000
  C      5.543000    4.339000   -1.130000
  C      4.070000   -1.479000   -0.094000
  C      4.104000    2.751000   -0.021000
  C      5.027000    2.729000    1.036000
  C      6.166000    3.509000    0.978000
  C      7.619000    5.153000   -0.115000
  C      4.321000   -0.148000   -0.092000
  C      3.025000    0.514000    0.015000
  C      4.387000    3.582000   -1.115000
  C      2.866000    1.916000    0.013000
  N      6.413000    4.296000   -0.095000
  H     -2.830000    7.387000   -0.845000
  H      2.274000    4.766000    0.081000
  H     -4.492000    3.175000    1.056000
  H     -5.838000    5.268000    1.072000
  H     -5.875000    7.570000   -0.763000
  H     -5.836000    7.588000    1.025000
  H     -4.594000    8.473000    0.097000
  H     -0.332000    5.282000    0.069000
  H     -1.363000    5.381000   -0.944000
  H      0.182000    1.072000    0.005000
  H     -0.183000   -1.080000   -0.021000
  H     -5.864000   -4.962000    1.895000
  H     -4.794000    2.272000    0.139000
  H     -4.800000   -2.160000   -1.994000
  H     -6.841000   -3.582000   -1.893000
  H     -8.428000   -4.536000    0.546000
  H     -7.956000   -5.337000   -0.981000
  H     -7.456000   -6.037000    0.584000
  H     -5.287000   -0.344000    0.100000
  H     -3.780000   -3.601000    1.947000
  H      3.587000   -6.868000   -1.843000
  H     -2.276000   -4.774000   -0.050000
  H      3.714000   -3.724000    1.926000
  H      5.092000   -5.795000    1.871000
  H      6.205000   -7.329000   -0.439000
  H      5.393000   -7.917000    1.042000
  H      4.759000   -8.373000   -0.564000
  H      0.329000   -5.290000   -0.008000
  H      2.146000   -4.842000   -1.940000
  H      5.808000    4.986000   -1.956000
  H      4.788000   -2.281000   -0.185000
  H      4.860000    2.114000    1.912000
  H      6.901000    3.531000    1.772000
  H      7.383000    6.109000    0.356000
  H      8.414000    4.652000    0.435000
  H      7.921000    5.310000   -1.150000
  H      5.283000    0.336000   -0.179000
  H      3.720000    3.632000   -1.967000

----------------------------
CARTESIAN COORDINATES (A.U.)
----------------------------
  NO LB      ZA    FRAG     MASS         X           Y           Z
   0 C     6.0000    0    12.011   -5.943189   12.150939   -0.846597
   1 C     6.0000    0    12.011    2.785456    7.636383    0.107714
   2 C     6.0000    0    12.011   -5.295013    7.734649    0.092597
   3 C     6.0000    0    12.011   -7.711972    7.711972    1.184858
   4 C     6.0000    0    12.011   -9.153833    9.885157    1.220763
   5 C     6.0000    0    12.011   -9.885157   14.343021    0.224877
   6 C     6.0000    0    12.011    0.249444    8.139050    0.115273
   7 C     6.0000    0    12.011   -1.075254    5.775003    0.088817
   8 C     6.0000    0    12.011    3.116158    4.947303    0.043464
   9 C     6.0000    0    12.011   -4.435187   10.021218   -0.937304
  10 N     7.0000    0    14.007   -8.263772   12.064012    0.221098
  11 N     7.0000    0    14.007    0.733214    3.906064    0.047243
  12 N     7.0000    0    14.007   -3.798350    0.746442   -0.141729
  13 N     7.0000    0    14.007   -0.733214   -3.919292   -0.051023
  14 N     7.0000    0    14.007    3.798350   -0.757780    0.122832
  15 C     6.0000    0    12.011   -3.703863    5.406506    0.045353
  16 C     6.0000    0    12.011   -4.956752    3.051908   -0.034015
  17 C     6.0000    0    12.011  -10.531444   -8.180624    2.014448
  18 C     6.0000    0    12.011   -7.696855    2.779787    0.105825
  19 C     6.0000    0    12.011   -7.759216   -5.208085   -0.049133
  20 C     6.0000    0    12.011   -9.439182   -5.209975   -2.099486
  21 C     6.0000    0    12.011  -11.587801   -6.693410   -2.033345
  22 C     6.0000    0    12.011  -14.458295   -9.662170    0.075589
  23 C     6.0000    0    12.011   -8.171176    0.266451    0.069920
  24 C     6.0000    0    12.011   -5.716422   -0.982658   -0.090707
  25 C     6.0000    0    12.011   -8.356369   -6.738763    2.031456
  26 N     7.0000    0    14.007  -12.107475   -8.150389    0.001890
  27 C     6.0000    0    12.011   -5.417845   -3.632054   -0.075589
  28 C     6.0000    0    12.011   -3.118048   -4.958641   -0.051023
  29 C     6.0000    0    12.011    6.742543  -11.606698   -1.965315
  30 C     6.0000    0    12.011   -2.789236   -7.651501   -0.064251
  31 C     6.0000    0    12.011    5.296902   -7.745987   -0.015118
  32 C     6.0000    0    12.011    6.910728   -8.284559    2.020117
  33 C     6.0000    0    12.011    8.365818  -10.450186    2.001220
  34 C     6.0000    0    12.011    9.911614  -14.339242    0.026456
  35 C     6.0000    0    12.011   -0.253223   -8.154168   -0.041574
  36 C     6.0000    0    12.011    1.073364   -5.790121   -0.051023
  37 C     6.0000    0    12.011    5.243990   -9.471307   -2.029566
  38 N     7.0000    0    14.007    8.269442  -12.077240    0.032125
  39 C     6.0000    0    12.011    3.701973   -5.421624   -0.017008
  40 C     6.0000    0    12.011    4.952972   -3.065136    0.017008
  41 C     6.0000    0    12.011   10.474752    8.199522   -2.135391
  42 C     6.0000    0    12.011    7.691185   -2.794905   -0.177634
  43 C     6.0000    0    12.011    7.755436    5.198637   -0.039684
  44 C     6.0000    0    12.011    9.499653    5.157063    1.957756
  45 C     6.0000    0    12.011   11.652051    6.631049    1.848152
  46 C     6.0000    0    12.011   14.397823    9.737759   -0.217319
  47 C     6.0000    0    12.011    8.165507   -0.279679   -0.173855
  48 C     6.0000    0    12.011    5.716422    0.971319    0.028346
  49 C     6.0000    0    12.011    8.290229    6.768999   -2.107045
  50 C     6.0000    0    12.011    5.415955    3.620715    0.024566
  51 N     7.0000    0    14.007   12.118814    8.118263   -0.179524
  52 H     1.0000    0     1.008   -5.347925   13.959407   -1.596819
  53 H     1.0000    0     1.008    4.297237    9.006435    0.153068
  54 H     1.0000    0     1.008   -8.488650    5.999880    1.995551
  55 H     1.0000    0     1.008  -11.032221    9.955077    2.025786
  56 H     1.0000    0     1.008  -11.102141   14.305227   -1.441861
  57 H     1.0000    0     1.008  -11.028442   14.339242    1.936969
  58 H     1.0000    0     1.008   -8.681402   16.011650    0.183303
  59 H     1.0000    0     1.008   -0.627389    9.981533    0.130391
  60 H     1.0000    0     1.008   -2.575697   10.168616   -1.783901
  61 H     1.0000    0     1.008    0.343930    2.025786    0.009449
  62 H     1.0000    0     1.008   -0.345820   -2.040904   -0.039684
  63 H     1.0000    0     1.008  -11.081354   -9.376821    3.581031
  64 H     1.0000    0     1.008   -9.059347    4.293458    0.262672
  65 H     1.0000    0     1.008   -9.070685   -4.081808   -3.768114
  66 H     1.0000    0     1.008  -12.927616   -6.768999   -3.577252
  67 H     1.0000    0     1.008  -15.926612   -8.571798    1.031790
  68 H     1.0000    0     1.008  -15.034661  -10.085468   -1.853821
  69 H     1.0000    0     1.008  -14.089798  -11.408277    1.103600
  70 H     1.0000    0     1.008   -9.990982   -0.650066    0.188973
  71 H     1.0000    0     1.008   -7.143165   -6.804904    3.679297
  72 H     1.0000    0     1.008    6.778448  -12.978639   -3.482765
  73 H     1.0000    0     1.008   -4.301017   -9.021553   -0.094486
  74 H     1.0000    0     1.008    7.018443   -7.037340    3.639613
  75 H     1.0000    0     1.008    9.622485  -10.950963    3.535678
  76 H     1.0000    0     1.008   11.725751  -13.849803   -0.829590
  77 H     1.0000    0     1.008   10.191293  -14.960962    1.969095
  78 H     1.0000    0     1.008    8.993207  -15.822677   -1.065806
  79 H     1.0000    0     1.008    0.621720   -9.996651   -0.015118
  80 H     1.0000    0     1.008    4.055352   -9.150054   -3.666069
  81 H     1.0000    0     1.008   10.975529    9.422175   -3.696304
  82 H     1.0000    0     1.008    9.048009   -4.310465   -0.349599
  83 H     1.0000    0     1.008    9.184069    3.994881    3.613156
  84 H     1.0000    0     1.008   13.041000    6.672623    3.348595
  85 H     1.0000    0     1.008   13.951848   11.544337    0.672743
  86 H     1.0000    0     1.008   15.900156    8.791006    0.822031
  87 H     1.0000    0     1.008   14.968521   10.034446   -2.173185
  88 H     1.0000    0     1.008    9.983423    0.634948   -0.338261
  89 H     1.0000    0     1.008    7.029781    6.863485   -3.717091

--------------------------------
INTERNAL COORDINATES (ANGSTROEM)
--------------------------------
 C      0   0   0     0.000000000000     0.00000000     0.00000000
 C      1   0   0     5.224701618274     0.00000000     0.00000000
 C      1   2   0     2.413757858610    53.96776762     0.00000000
 C      3   1   2     1.403591464779    87.91284995   156.38230076
 C      4   3   1     1.380228241995   120.15108579     0.14498453
 C      5   4   3     2.447933618381   152.54293304     1.64459188
 C      2   1   3     1.368114030335    17.09576341   351.66084677
 C      7   2   1     1.434084376876   108.05010202   159.58350054
 C      2   1   3     1.434123425651   124.00686223    16.07954725
 C      1   2   3     1.381751424823    28.33766631   334.63811051
 N      1   2   3     1.352525415658   138.30930211    37.06513169
 N      9   2   1     1.376127174356   106.58526707   351.88678153
 N     12   9   2     2.925062050624   168.53581413   171.12065651
 N     13  12   9     2.954513327098    91.55032014    11.12112580
 N     14  13  12     2.925371258490    88.43092389   359.84326247
 C      8   7   2     1.404790019896   127.24786865   181.11170171
 C     13  12   9     1.366535034311    81.72106996   188.00453233
 C     14  13  12     5.758810554272    80.56209567   166.76250791
 C     17  13  12     1.459010623676   111.08861209   183.82872609
 C     18  14  13     2.412235892279    27.27532823    36.33507194
 C     20  18  14     1.402692767501    87.95206320   148.94598259
 C     21  20  18     1.382106725257   120.14573887   359.70382047
 C     18  14  13     2.446510985056   144.15733107    82.80075377
 C     19  17  13     1.353610726908   106.29293361   359.75308708
 C     13  12   9     1.366813447402   172.21332906    33.46711076
 C     18  14  13     1.380960173213    15.08449437   309.23336894
 N     22  21  20     1.352773077792   120.73759875     0.27865223
 C     25  13  17     1.410897586645   125.60330303   182.37774668
 C     14  13  12     1.376642291955    80.24689249   177.85461986
 C     14  13  12     5.764089607215   164.51507311   312.20821879
 C     29  14  13     1.435600919476   106.58649366   178.76395472
 C     30  14  13     2.413316804732    27.10625047    82.12560436
 C     32  30  14     1.403734305344    87.90059683   149.76154742
 C     33  32  30     1.380694028378   120.14881443   359.74174632
 C     34  33  32     2.448777858443   152.49203239     2.45173620
 C     31  29  14     1.368160809262   108.16950133     0.70383075
 C     14  13  12     1.376239804685   169.26375223   353.09862627
 C     30  14  13     1.380907310430    14.68948582   353.70041132
 N     34  33  32     1.352658863128   120.85575621     0.19603406
 C     37  14  29     1.404717053360   126.01551127   180.90772073
 C     15  14  13     1.366491126938    81.61824056   183.09049352
 C      2   1   3     4.249062720177   141.95578900   155.25355926
 C     41  15  14     1.459677704153   111.05201287   175.08990246
 C     42   2   1     2.412953791518    41.78584867   189.22604772
 C     44  42   2     1.403446472082    87.95153797   233.97558675
 C     45  44  42     1.381696421071   120.11137308     0.19721020
 C     42   2   1     2.450019795838   135.97209175    99.54089682
 C     43  41  15     1.354461516618   106.26758155     0.30894352
 C     15  14  13     1.367461151185   171.87382904   332.35056460
 C     42   2   1     1.381886391857    32.59078432   238.08132691
 C      9   2   1     1.404988612053   126.98745415   172.89111906
 N     42   2   1     1.352765315936   113.57249190   127.27748602
 H      1   2   3     1.082904889637   100.50732113   190.22039408
 H      2   1   3     1.079907866440   110.49302025   189.95744741
 H      4   3   1     1.083419586310   121.05697017   179.55885018
 H      5   4   3     1.082072548400   122.80095600   179.43451345
 H      6   5   4     1.092272859683   104.44230716   100.09300076
 H      6   5   4     1.089433338943    84.66319937   209.53112593
 H      6   5   4     1.089009641831   133.88762978   322.38072416
 H      7   2   1     1.079807853278   126.66122480   339.82191432
 H     10   1   2     1.083994464931   118.68020314   317.54773299
 H     12   9   2     1.016297692608   125.29023241   180.00180175
 H     14  13  12     1.014936943854    44.97226959   359.42596618
 H     18  14  13     1.082871645210   128.03556573   234.20482432
 H     19  17  13     1.080893611786   126.41830519   178.11313280
 H     21  20  18     1.083569563987   121.05669627   180.67006309
 H     22  21  20     1.082483256222   122.73097286   180.59748951
 H     23  18  14     1.092105306278   103.92715769   234.93429879
 H     23  18  14     1.088871893291   134.19244188    12.25587044
 H     23  18  14     1.089833473518    84.85857450   125.45241208
 H     24  19  17     1.080075460327   127.28078426   178.44613241
 H     26  18  14     1.083408048706   118.76995697   244.94906660
 H     30  14  13     1.082703098730   127.99711412   279.66882698
 H     31  29  14     1.079759695488   125.22293469   180.92530585
 H     33  32  30     1.083188810873   121.01964473   180.74284758
 H     34  33  32     1.082494341787   122.70821597   180.59516895
 H     35  34  33     1.092652735319   105.73575241    97.19771933
 H     35  34  33     1.089462711615    84.05943581   206.43036958
 H     35  34  33     1.089268102902   133.08365142   318.50306270
 H     36  31  29     1.079439669458   126.61599965   178.98859863
 H     38  30  73     1.083742127999   118.77264435   359.90091293
 H     42   2   1     1.082178358682   119.31790784   343.90901647
 H     43  41  15     1.080281907652   126.36969097   182.06329380
 H     45  44  42     1.083277434455   121.10105945   179.58025624
 H     46  45  44     1.082194529648   122.72144639   179.46906377
 H     47  42   2     1.091546151109   106.65128841   315.16475048
 H     47  42   2     1.088818625851   132.46019523    94.52397119
 H     47  42   2     1.089531091801    83.63838232   206.04504406
 H     48  43  41     1.080402239909   127.23657387   181.62955349
 H     50  42   2     1.083186502870   118.77001737    94.71359229

---------------------------
INTERNAL COORDINATES (A.U.)
---------------------------
 C      0   0   0     0.000000000000     0.00000000     0.00000000
 C      1   0   0     9.873255189994     0.00000000     0.00000000
 C      1   2   0     4.561341306373    53.96776762     0.00000000
 C      3   1   2     2.652403472341    87.91284995   156.38230076
 C      4   3   1     2.608253379674   120.15108579     0.14498453
 C      5   4   3     4.625924132759   152.54293304     1.64459188
 C      2   1   3     2.585360837309    17.09576341   351.66084677
 C      7   2   1     2.710026725231   108.05010202   159.58350054
 C      2   1   3     2.710100516721   124.00686223    16.07954725
 C      1   2   3     2.611131778071    28.33766631   334.63811051
 N      1   2   3     2.555902624761   138.30930211    37.06513169
 N      9   2   1     2.600503484979   106.58526707   351.88678153
 N     12   9   2     5.527566200405   168.53581413   171.12065651
 N     13  12   9     5.583221047236    91.55032014    11.12112580
 N     14  13  12     5.528150518591    88.43092389   359.84326247
 C      8   7   2     2.654668413270   127.24786865   181.11170171
 C     13  12   9     2.582376967257    81.72106996   188.00453233
 C     14  13  12    10.882574804710    80.56209567   166.76250791
 C     17  13  12     2.757130505230   111.08861209   183.82872609
 C     18  14  13     4.558465206823    27.27532823    36.33507194
 C     20  18  14     2.650705180609    87.95206320   148.94598259
 C     21  20  18     2.611803198586   120.14573887   359.70382047
 C     18  14  13     4.623235745386   144.15733107    82.80075377
 C     19  17  13     2.557953565794   106.29293361   359.75308708
 C     13  12   9     2.582903091751   172.21332906    33.46711076
 C     18  14  13     2.609636529225    15.08449437   309.23336894
 N     22  21  20     2.556370638369   120.73759875     0.27865223
 C     25  13  17     2.666210041769   125.60330303   182.37774668
 C     14  13  12     2.601476916169    80.24689249   177.85461986
 C     14  13  12    10.892550769017   164.51507311   312.20821879
 C     29  14  13     2.712892575415   106.58649366   178.76395472
 C     30  14  13     4.560507835333    27.10625047    82.12560436
 C     32  30  14     2.652673401891    87.90059683   149.76154742
 C     33  32  30     2.609133588376   120.14881443   359.74174632
 C     34  33  32     4.627519515267   152.49203239     2.45173620
 C     31  29  14     2.585449236669   108.16950133     0.70383075
 C     14  13  12     2.600716325456   169.26375223   353.09862627
 C     30  14  13     2.609536633043    14.68948582   353.70041132
 N     34  33  32     2.556154803934   120.85575621     0.19603406
 C     37  14  29     2.654530526499   126.01551127   180.90772073
 C     15  14  13     2.582293994346    81.61824056   183.09049352
 C      2   1   3     8.029564866989   141.95578900   155.25355926
 C     41  15  14     2.758391104639   111.05201287   175.08990246
 C     42   2   1     4.559821839776    41.78584867   189.22604772
 C     44  42   2     2.652129475853    87.95153797   233.97558675
 C     45  44  42     2.611027836043   120.11137308     0.19721020
 C     42   2   1     4.629866436820   135.97209175    99.54089682
 C     43  41  15     2.559561325344   106.26758155     0.30894352
 C     15  14  13     2.584127074516   171.87382904   332.35056460
 C     42   2   1     2.611386828803    32.59078432   238.08132691
 C      9   2   1     2.655043698059   126.98745415   172.89111906
 N     42   2   1     2.556355970587   113.57249190   127.27748602
 H      1   2   3     2.046393670498   100.50732113   190.22039408
 H      2   1   3     2.040730117440   110.49302025   189.95744741
 H      4   3   1     2.047366306252   121.05697017   179.55885018
 H      5   4   3     2.044820773509   122.80095600   179.43451345
 H      6   5   4     2.064096568316   104.44230716   100.09300076
 H      6   5   4     2.058730651765    84.66319937   209.53112593
 H      6   5   4     2.057929980259   133.88762978   322.38072416
 H      7   2   1     2.040541119952   126.66122480   339.82191432
 H     10   1   2     2.048452669405   118.68020314   317.54773299
 H     12   9   2     1.920524309565   125.29023241   180.00180175
 H     14  13  12     1.917952867083    44.97226959   359.42596618
 H     18  14  13     2.046330847636   128.03556573   234.20482432
 H     19  17  13     2.042592906181   126.41830519   178.11313280
 H     21  20  18     2.047649722989   121.05669627   180.67006309
 H     22  21  20     2.045596898814   122.73097286   180.59748951
 H     23  18  14     2.063779938267   103.92715769   234.93429879
 H     23  18  14     2.057669673245   134.19244188    12.25587044
 H     23  18  14     2.059486796529    84.85857450   125.45241208
 H     24  19  17     2.041046823986   127.28078426   178.44613241
 H     26  18  14     2.047344503340   118.76995697   244.94906660
 H     30  14  13     2.046012340948   127.99711412   279.66882698
 H     31  29  14     2.040450114918   125.22293469   180.92530585
 H     33  32  30     2.046930203877   121.01964473   180.74284758
 H     34  33  32     2.045617847496   122.70821597   180.59516895
 H     35  34  33     2.064814429233   105.73575241    97.19771933
 H     35  34  33     2.058786158072    84.05943581   206.43036958
 H     35  34  33     2.058418400901   133.08365142   318.50306270
 H     36  31  29     2.039845353366   126.61599965   178.98859863
 H     38  30  73     2.047975821711   118.77264435   359.90091293
 H     42   2   1     2.045020725966   119.31790784   343.90901647
 H     43  41  15     2.041436952892   126.36969097   182.06329380
 H     45  44  42     2.047097678177   121.10105945   179.58025624
 H     46  45  44     2.045051284662   122.72144639   179.46906377
 H     47  42   2     2.062723288131   106.65128841   315.16475048
 H     47  42   2     2.057569012371   132.46019523    94.52397119
 H     47  42   2     2.058915377895    83.63838232   206.04504406
 H     48  43  41     2.041664347903   127.23657387   181.62955349
 H     50  42   2     2.046925842384   118.77001737    94.71359229

---------------------
BASIS SET INFORMATION
---------------------
There are 3 groups of distinct atoms

 Group   1 Type C   : 17s4p1d contracted to 3s2p1d pattern {881/31/1}
 Group   2 Type N   : 17s4p1d contracted to 3s2p1d pattern {881/31/1}
 Group   3 Type H   : 4s1p contracted to 2s1p pattern {31/1}

Atom   0C    basis set group =>   1
Atom   1N    basis set group =>   2
Atom   2C    basis set group =>   1
Atom   3N    basis set group =>   2
Atom   4C    basis set group =>   1
Atom   5N    basis set group =>   2
Atom   6C    basis set group =>   1
Atom   7N    basis set group =>   2
Atom   8C    basis set group =>   1
Atom   9N    basis set group =>   2
Atom  10C    basis set group =>   1
Atom  11N    basis set group =>   2
Atom  12C    basis set group =>   1
Atom  13N    basis set group =>   2
Atom  14C    basis set group =>   1
Atom  15N    basis set group =>   2
Atom  16C    basis set group =>   1
Atom  17C    basis set group =>   1
Atom  18C    basis set group =>   1
Atom  19C    basis set group =>   1
Atom  20C    basis set group =>   1
Atom  21C    basis set group =>   1
Atom  22C    basis set group =>   1
Atom  23C    basis set group =>   1
Atom  24C    basis set group =>   1
Atom  25C    basis set group =>   1
Atom  26C    basis set group =>   1
Atom  27C    basis set group =>   1
Atom  28C    basis set group =>   1
Atom  29C    basis set group =>   1
Atom  30C    basis set group =>   1
Atom  31C    basis set group =>   1
Atom  32C    basis set group =>   1
Atom  33C    basis set group =>   1
Atom  34C    basis set group =>   1
Atom  35C    basis set group =>   1
Atom  36C    basis set group =>   1
Atom  37C    basis set group =>   1
Atom  38C    basis set group =>   1
Atom  39C    basis set group =>   1
Atom  40C    basis set group =>   1
Atom  41C    basis set group =>   1
Atom  42C    basis set group =>   1
Atom  43C    basis set group =>   1
Atom  44C    basis set group =>   1
Atom  45C    basis set group =>   1
Atom  46C    basis set group =>   1
Atom  47C    basis set group =>   1
Atom  48C    basis set group =>   1
Atom  49C    basis set group =>   1
Atom  50C    basis set group =>   1
Atom  51C    basis set group =>   1
Atom  52H    basis set group =>   3
Atom  53H    basis set group =>   3
Atom  54H    basis set group =>   3
Atom  55H    basis set group =>   3
Atom  56H    basis set group =>   3
Atom  57H    basis set group =>   3
Atom  58H    basis set group =>   3
Atom  59H    basis set group =>   3
Atom  60H    basis set group =>   3
Atom  61H    basis set group =>   3
Atom  62H    basis set group =>   3
Atom  63H    basis set group =>   3
Atom  64H    basis set group =>   3
Atom  65H    basis set group =>   3
Atom  66H    basis set group =>   3
Atom  67H    basis set group =>   3
Atom  68H    basis set group =>   3
Atom  69H    basis set group =>   3
Atom  70H    basis set group =>   3
Atom  71H    basis set group =>   3
Atom  72H    basis set group =>   3
Atom  73H    basis set group =>   3
Atom  74H    basis set group =>   3
Atom  75H    basis set group =>   3
Atom  76H    basis set group =>   3
Atom  77H    basis set group =>   3
Atom  78H    basis set group =>   3
Atom  79H    basis set group =>   3
Atom  80H    basis set group =>   3
Atom  81H    basis set group =>   3
Atom  82H    basis set group =>   3
Atom  83H    basis set group =>   3
Atom  84H    basis set group =>   3
Atom  85H    basis set group =>   3
Atom  86H    basis set group =>   3
Atom  87H    basis set group =>   3
Atom  88H    basis set group =>   3
Atom  89H    basis set group =>   3


           ************************************************************
           *        Program running with 16 parallel MPI-processes    *
           *              working on a common directory               *
           ************************************************************
------------------------------------------------------------------------------
                           ORCA GTO INTEGRAL CALCULATION
------------------------------------------------------------------------------
------------------------------------------------------------------------------
                   ___                                                        
                  /   \      - P O W E R E D   B Y -                         
                 /     \                                                     
                 |  |  |   _    _      __       _____    __    __             
                 |  |  |  | |  | |    /  \     |  _  \  |  |  /  |          
                  \  \/   | |  | |   /    \    | | | |  |  | /  /          
                 / \  \   | |__| |  /  /\  \   | |_| |  |  |/  /          
                |  |  |   |  __  | /  /__\  \  |    /   |      \           
                |  |  |   | |  | | |   __   |  |    \   |  |\   \          
                \     /   | |  | | |  |  |  |  | |\  \  |  | \   \       
                 \___/    |_|  |_| |__|  |__|  |_| \__\ |__|  \__/        
                                                                              
                      - O R C A' S   B I G   F R I E N D -                    
                                      &                                       
                       - I N T E G R A L  F E E D E R -                       
                                                                              
 v1 FN, 2020, v2 2021                                                         
------------------------------------------------------------------------------


Reading SHARK input file /scratch/allen/tmpyp4_amber_gaff2/conf1/conf1/Conf30.orca.SHARKINP.tmp ... ok
----------------------
SHARK INTEGRAL PACKAGE
----------------------

Number of atoms                             ...     90
Number of basis functions                   ...   1230
Number of shells                            ...    738
Maximum angular momentum                    ...      2
Integral batch strategy                     ... SHARK/LIBINT Hybrid
RI-J (if used) integral strategy            ... SPLIT-RIJ (Revised 2003 algorithm where possible)
Printlevel                                  ...      1
Contraction scheme used                     ... PARTIAL GENERAL contraction
Coulomb Range Separation                    ... NOT USED
Exchange Range Separation                   ... NOT USED
Finite Nucleus Model                        ... NOT USED
Auxiliary Coulomb fitting basis             ... NOT available
Auxiliary J/K fitting basis                 ... NOT available
Auxiliary Correlation fitting basis         ... NOT available
Auxiliary 'external' fitting basis          ... NOT available
Integral threshold                          ...     2.500000e-11
Primitive cut-off                           ...     2.500000e-12
Primitive pair pre-selection threshold      ...     2.500000e-12

Calculating pre-screening integrals         ... done (  0.1 sec) Dimension = 738
Calculating pre-screening integrals (ORCA)  ... done (  0.3 sec) Dimension = 426
Organizing shell pair data                  ... done (  0.5 sec)
Shell pair information
Total number of shell pairs                 ...    272691
Shell pairs after pre-screening             ...     71675
Total number of primitive shell pairs       ...    422091
Primitive shell pairs kept                  ...     92543
          la=0 lb=0:  29428 shell pairs
          la=1 lb=0:  26010 shell pairs
          la=1 lb=1:   4703 shell pairs
          la=2 lb=0:   7883 shell pairs
          la=2 lb=1:   3122 shell pairs
          la=2 lb=2:    529 shell pairs

Calculating one electron integrals          ... done (  0.2 sec)
Calculating Nuclear repulsion               ... done (  0.0 sec) ENN=   6231.980850255328 Eh

SHARK setup successfully completed in   1.7 seconds

Maximum memory used throughout the entire GTOINT-calculation: 99.0 MB


           ************************************************************
           *        Program running with 16 parallel MPI-processes    *
           *              working on a common directory               *
           ************************************************************
-------------------------------------------------------------------------------
                                 ORCA SCF
-------------------------------------------------------------------------------

------------
SCF SETTINGS
------------
Hamiltonian:
 Ab initio Hamiltonian  Method          .... Hartree-Fock(GTOs)


General Settings:
 Integral files         IntName         .... /scratch/allen/tmpyp4_amber_gaff2/conf1/conf1/Conf30.orca
 Hartree-Fock type      HFTyp           .... RHF
 Total Charge           Charge          ....    0
 Multiplicity           Mult            ....    1
 Number of Electrons    NEL             ....  358
 Basis Dimension        Dim             ....  918
 Nuclear Repulsion      ENuc            ....   6231.9808502553 Eh

Convergence Acceleration:
 DIIS                   CNVDIIS         .... on
   Start iteration      DIISMaxIt       ....    12
   Startup error        DIISStart       ....  0.200000
   # of expansion vecs  DIISMaxEq       ....     5
   Bias factor          DIISBfac        ....   1.050
   Max. coefficient     DIISMaxC        ....  10.000
 Trust-Rad. Augm. Hess. CNVTRAH         .... auto
   Auto Start mean grad. ratio tolernc. ....  1.125000
   Auto Start start iteration           ....    20
   Auto Start num. interpolation iter.  ....    10
   Max. Number of Micro iterations      ....    16
   Max. Number of Macro iterations      .... Maxiter - #DIIS iter
   Number of Davidson start vectors     ....     2
   Converg. threshold I  (grad. norm)   ....   1.000e-05
   Converg. threshold II (energy diff.) ....   1.000e-08
   Grad. Scal. Fac. for Micro threshold ....   0.100
   Minimum threshold for Micro iter.    ....   0.010
   NR start threshold (gradient norm)   ....   0.001
   Initial trust radius                 ....   0.400
   Minimum AH scaling param. (alpha)    ....   1.000
   Maximum AH scaling param. (alpha)    .... 1000.000
   Orbital update algorithm             .... Taylor
   White noise on init. David. guess    .... on
   Maximum white noise                  ....   0.010
   Quad. conv. algorithm                .... NR
 SOSCF                  CNVSOSCF        .... on
   Start iteration      SOSCFMaxIt      ....   150
   Startup grad/error   SOSCFStart      ....  0.003300
 Level Shifting         CNVShift        .... on
   Level shift para.    LevelShift      ....    0.2500
   Turn off err/grad.   ShiftErr        ....    0.0010
 Zerner damping         CNVZerner       .... off
 Static damping         CNVDamp         .... on
   Fraction old density DampFac         ....    0.7000
   Max. Damping (<1)    DampMax         ....    0.9800
   Min. Damping (>=0)   DampMin         ....    0.0000
   Turn off err/grad.   DampErr         ....    0.1000
 Fernandez-Rico         CNVRico         .... off

SCF Procedure:
 Maximum # iterations   MaxIter         ....   125
 SCF integral mode      SCFMode         .... Direct
   Integral package                     .... SHARK and LIBINT hybrid scheme
 Reset frequency        DirectResetFreq ....    20
 Integral Threshold     Thresh          ....  2.500e-11 Eh
 Primitive CutOff       TCut            ....  2.500e-12 Eh

Convergence Tolerance:
 Convergence Check Mode ConvCheckMode   .... Total+1el-Energy
 Convergence forced     ConvForced      .... 1
 Energy Change          TolE            ....  1.000e-08 Eh
 1-El. energy change                    ....  1.000e-05 Eh
 Orbital Gradient       TolG            ....  1.000e-05
 Orbital Rotation angle TolX            ....  1.000e-05
 DIIS Error             TolErr          ....  5.000e-07


Diagonalization of the overlap matrix:
Smallest eigenvalue                        ... 2.168e-04
Time for diagonalization                   ...    0.399 sec
Threshold for overlap eigenvalues          ... 1.000e-08
Number of eigenvalues below threshold      ... 0
Time for construction of square roots      ...    0.191 sec
Total time needed                          ...    0.595 sec

Time for model grid setup =    1.018 sec

------------------------------
INITIAL GUESS: MODEL POTENTIAL
------------------------------
Loading Hartree-Fock densities                     ... done
Calculating cut-offs                               ... done
Initializing the effective Hamiltonian             ... done
Setting up the integral package (SHARK)            ... done
Starting the Coulomb interaction                   ... done (   1.1 sec)
Reading the grid                                   ... done
Mapping shells                                     ... done
Starting the XC term evaluation                    ... done (   0.2 sec)
Transforming the Hamiltonian                       ... done (   0.2 sec)
Diagonalizing the Hamiltonian                      ... done (   0.3 sec)
Back transforming the eigenvectors                 ... done (   0.1 sec)
Now organizing SCF variables                       ... done
                      ------------------
                      INITIAL GUESS DONE (   3.0 sec)
                      ------------------
--------------
SCF ITERATIONS
--------------
ITER       Energy         Delta-E        Max-DP      RMS-DP      [F,P]     Damp
               ***  Starting incremental Fock matrix formation  ***
  0  -2121.6742798908   0.000000000000 0.07369749  0.00122538  0.2319297 0.7000
  1  -2122.3263555703  -0.652075679514 0.05572515  0.00099727  0.1437298 0.7000
                               ***Turning on DIIS***
  2  -2122.7320347733  -0.405679202959 0.13034054  0.00226220  0.0802497 0.0000
  3  -2117.9515800945   4.780454678750 0.04339919  0.00067949  0.0437847 0.0000
  4  -2123.4107565117  -5.459176417236 0.01307063  0.00022654  0.0084525 0.0000
  5  -2123.5641485751  -0.153392063406 0.00629010  0.00013279  0.0049340 0.0000
  6  -2123.5482897209   0.015858854282 0.00372532  0.00008529  0.0020659 0.0000
  7  -2123.6446970612  -0.096407340367 0.00304347  0.00006724  0.0015794 0.0000
  8  -2123.6549718214  -0.010274760192 0.00322683  0.00006374  0.0014744 0.0000
  9  -2123.6252941706   0.029677650809 0.00257800  0.00004470  0.0011808 0.0000
 10  -2123.6344417757  -0.009147605128 0.00517004  0.00009294  0.0009157 0.0000
                      *** Initiating the SOSCF procedure ***
                           *** Shutting down DIIS ***
                      *** Re-Reading the Fockian *** 
                      *** Removing any level shift *** 
ITER      Energy       Delta-E        Grad      Rot      Max-DP    RMS-DP
 11  -2123.52554579   0.1088959896  0.000186  0.000186  0.000238  0.000005
               *** Restarting incremental Fock matrix formation ***
 12  -2123.59195955  -0.0664137646  0.000878  0.006009  0.001369  0.000034
 13  -2123.59206407  -0.0001045201  0.001090  0.030209  0.006335  0.000134
 14  -2123.59224388  -0.0001798068  0.000346  0.001876  0.000663  0.000012
 15  -2123.59225959  -0.0000157153  0.000182  0.002724  0.000697  0.000017
 16  -2123.59226886  -0.0000092650  0.000154  0.002728  0.000449  0.000010
 17  -2123.59227195  -0.0000030904  0.000142  0.001896  0.000330  0.000007
 18  -2123.59227365  -0.0000016972  0.000071  0.000995  0.000286  0.000005
 19  -2123.59227448  -0.0000008318  0.000045  0.000987  0.000195  0.000004
 20  -2123.59227482  -0.0000003455  0.000027  0.000686  0.000112  0.000003
 21  -2123.59227502  -0.0000001945  0.000024  0.000837  0.000142  0.000003
 22  -2123.59227518  -0.0000001624  0.000022  0.000733  0.000124  0.000002
 23  -2123.59227528  -0.0000000962  0.000014  0.000472  0.000080  0.000002
 24  -2123.59227533  -0.0000000509  0.000009  0.000344  0.000051  0.000001
 25  -2123.59227536  -0.0000000331  0.000009  0.000195  0.000037  0.000001
 26  -2123.59227538  -0.0000000163  0.000007  0.000156  0.000033  0.000001
 27  -2123.59227538  -0.0000000068  0.000004  0.000111  0.000023  0.000000
                  ***Gradient check signals convergence***
              ***Rediagonalizing the Fockian in SOSCF/NRSCF***

               *****************************************************
               *                     SUCCESS                       *
               *           SCF CONVERGED AFTER  28 CYCLES          *
               *****************************************************


----------------
TOTAL SCF ENERGY
----------------

Total Energy       :        -2123.59227538 Eh          -57785.88359 eV

Components:
Nuclear Repulsion  :         6231.98085026 Eh          169580.82026 eV
Electronic Energy  :        -8355.57312564 Eh         -227366.70385 eV
One Electron Energy:       -15304.69363884 Eh         -416461.88643 eV
Two Electron Energy:         6949.12051321 Eh          189095.18258 eV

Virial components:
Potential Energy   :        -4245.83468109 Eh         -115535.03536 eV
Kinetic Energy     :         2122.24240571 Eh           57749.15177 eV
Virial Ratio       :            2.00063606


---------------
SCF CONVERGENCE
---------------

  Last Energy change         ...    9.7134e-10  Tolerance :   1.0000e-08
  Last MAX-Density change    ...    1.2257e-05  Tolerance :   1.0000e-07
  Last RMS-Density change    ...    2.5185e-07  Tolerance :   5.0000e-09
  Last Orbital Gradient      ...    2.3169e-06  Tolerance :   1.0000e-05
  Last Orbital Rotation      ...    6.2789e-05  Tolerance :   1.0000e-05

             **** THE GBW FILE WAS UPDATED (/scratch/allen/tmpyp4_amber_gaff2/conf1/conf1/Conf30.orca.gbw) ****
             **** DENSITY /scratch/allen/tmpyp4_amber_gaff2/conf1/conf1/Conf30.orca.scfp WAS UPDATED ****
             **** ENERGY FILE WAS UPDATED (/scratch/allen/tmpyp4_amber_gaff2/conf1/conf1/Conf30.orca.en.tmp) ****
             **** THE GBW FILE WAS UPDATED (/scratch/allen/tmpyp4_amber_gaff2/conf1/conf1/Conf30.orca.gbw) ****
             **** DENSITY /scratch/allen/tmpyp4_amber_gaff2/conf1/conf1/Conf30.orca.scfp WAS UPDATED ****
----------------
ORBITAL ENERGIES
----------------

  NO   OCC          E(Eh)            E(eV) 
   0   2.0000     -15.674037      -426.5122 
   1   2.0000     -15.634214      -425.4286 
   2   2.0000     -15.631324      -425.3500 
   3   2.0000     -15.591178      -424.2575 
   4   2.0000     -15.524590      -422.4456 
   5   2.0000     -15.516173      -422.2165 
   6   2.0000     -15.452740      -420.4904 
   7   2.0000     -15.441065      -420.1727 
   8   2.0000     -11.324739      -308.1618 
   9   2.0000     -11.324384      -308.1522 
  10   2.0000     -11.323436      -308.1264 
  11   2.0000     -11.299478      -307.4744 
  12   2.0000     -11.298017      -307.4347 
  13   2.0000     -11.292919      -307.2959 
  14   2.0000     -11.290421      -307.2280 
  15   2.0000     -11.287075      -307.1369 
  16   2.0000     -11.286426      -307.1193 
  17   2.0000     -11.276659      -306.8535 
  18   2.0000     -11.272951      -306.7526 
  19   2.0000     -11.259361      -306.3828 
  20   2.0000     -11.258395      -306.3565 
  21   2.0000     -11.256413      -306.3026 
  22   2.0000     -11.253899      -306.2342 
  23   2.0000     -11.237900      -305.7988 
  24   2.0000     -11.236087      -305.7495 
  25   2.0000     -11.231371      -305.6211 
  26   2.0000     -11.230561      -305.5991 
  27   2.0000     -11.229370      -305.5667 
  28   2.0000     -11.229268      -305.5639 
  29   2.0000     -11.209716      -305.0319 
  30   2.0000     -11.208488      -304.9985 
  31   2.0000     -11.199626      -304.7573 
  32   2.0000     -11.191773      -304.5436 
  33   2.0000     -11.190459      -304.5079 
  34   2.0000     -11.189216      -304.4741 
  35   2.0000     -11.189058      -304.4697 
  36   2.0000     -11.188899      -304.4654 
  37   2.0000     -11.186292      -304.3945 
  38   2.0000     -11.185122      -304.3626 
  39   2.0000     -11.172630      -304.0227 
  40   2.0000     -11.172274      -304.0130 
  41   2.0000     -11.170460      -303.9637 
  42   2.0000     -11.167169      -303.8741 
  43   2.0000     -11.161026      -303.7070 
  44   2.0000     -11.159506      -303.6656 
  45   2.0000     -11.158640      -303.6420 
  46   2.0000     -11.157111      -303.6004 
  47   2.0000     -11.154800      -303.5375 
  48   2.0000     -11.148207      -303.3581 
  49   2.0000     -11.139432      -303.1194 
  50   2.0000     -11.131843      -302.9129 
  51   2.0000     -11.121738      -302.6379 
  52   2.0000      -1.355495       -36.8849 
  53   2.0000      -1.321434       -35.9580 
  54   2.0000      -1.319166       -35.8963 
  55   2.0000      -1.284805       -34.9613 
  56   2.0000      -1.225197       -33.3393 
  57   2.0000      -1.210649       -32.9434 
  58   2.0000      -1.171799       -31.8863 
  59   2.0000      -1.151843       -31.3432 
  60   2.0000      -1.139577       -31.0095 
  61   2.0000      -1.110396       -30.2154 
  62   2.0000      -1.108588       -30.1662 
  63   2.0000      -1.080760       -29.4090 
  64   2.0000      -1.077548       -29.3216 
  65   2.0000      -1.045608       -28.4524 
  66   2.0000      -1.043862       -28.4049 
  67   2.0000      -1.038396       -28.2562 
  68   2.0000      -1.014448       -27.6045 
  69   2.0000      -1.014011       -27.5926 
  70   2.0000      -1.009692       -27.4751 
  71   2.0000      -0.992663       -27.0117 
  72   2.0000      -0.986869       -26.8541 
  73   2.0000      -0.979888       -26.6641 
  74   2.0000      -0.972412       -26.4607 
  75   2.0000      -0.961028       -26.1509 
  76   2.0000      -0.953357       -25.9422 
  77   2.0000      -0.946424       -25.7535 
  78   2.0000      -0.935141       -25.4465 
  79   2.0000      -0.919189       -25.0124 
  80   2.0000      -0.906471       -24.6663 
  81   2.0000      -0.893967       -24.3261 
  82   2.0000      -0.874631       -23.7999 
  83   2.0000      -0.871793       -23.7227 
  84   2.0000      -0.869089       -23.6491 
  85   2.0000      -0.856997       -23.3201 
  86   2.0000      -0.841548       -22.8997 
  87   2.0000      -0.835904       -22.7461 
  88   2.0000      -0.824348       -22.4317 
  89   2.0000      -0.797784       -21.7088 
  90   2.0000      -0.791627       -21.5413 
  91   2.0000      -0.750584       -20.4244 
  92   2.0000      -0.743329       -20.2270 
  93   2.0000      -0.732751       -19.9392 
  94   2.0000      -0.724231       -19.7073 
  95   2.0000      -0.721827       -19.6419 
  96   2.0000      -0.715929       -19.4814 
  97   2.0000      -0.711483       -19.3604 
  98   2.0000      -0.707295       -19.2465 
  99   2.0000      -0.696650       -18.9568 
 100   2.0000      -0.696185       -18.9442 
 101   2.0000      -0.684812       -18.6347 
 102   2.0000      -0.680692       -18.5226 
 103   2.0000      -0.680178       -18.5086 
 104   2.0000      -0.678185       -18.4544 
 105   2.0000      -0.673395       -18.3240 
 106   2.0000      -0.669555       -18.2195 
 107   2.0000      -0.660718       -17.9791 
 108   2.0000      -0.656371       -17.8608 
 109   2.0000      -0.653282       -17.7767 
 110   2.0000      -0.650998       -17.7145 
 111   2.0000      -0.643361       -17.5067 
 112   2.0000      -0.641985       -17.4693 
 113   2.0000      -0.639953       -17.4140 
 114   2.0000      -0.637732       -17.3536 
 115   2.0000      -0.627723       -17.0812 
 116   2.0000      -0.624542       -16.9946 
 117   2.0000      -0.619274       -16.8513 
 118   2.0000      -0.612690       -16.6721 
 119   2.0000      -0.612250       -16.6602 
 120   2.0000      -0.611071       -16.6281 
 121   2.0000      -0.607720       -16.5369 
 122   2.0000      -0.600595       -16.3430 
 123   2.0000      -0.586584       -15.9618 
 124   2.0000      -0.581912       -15.8346 
 125   2.0000      -0.580529       -15.7970 
 126   2.0000      -0.579522       -15.7696 
 127   2.0000      -0.575035       -15.6475 
 128   2.0000      -0.567431       -15.4406 
 129   2.0000      -0.559261       -15.2183 
 130   2.0000      -0.551349       -15.0030 
 131   2.0000      -0.547663       -14.9027 
 132   2.0000      -0.542295       -14.7566 
 133   2.0000      -0.540844       -14.7171 
 134   2.0000      -0.538152       -14.6439 
 135   2.0000      -0.535722       -14.5777 
 136   2.0000      -0.528328       -14.3765 
 137   2.0000      -0.522473       -14.2172 
 138   2.0000      -0.516698       -14.0601 
 139   2.0000      -0.513846       -13.9825 
 140   2.0000      -0.512683       -13.9508 
 141   2.0000      -0.511427       -13.9166 
 142   2.0000      -0.509032       -13.8515 
 143   2.0000      -0.504004       -13.7147 
 144   2.0000      -0.501760       -13.6536 
 145   2.0000      -0.496963       -13.5230 
 146   2.0000      -0.492653       -13.4058 
 147   2.0000      -0.483684       -13.1617 
 148   2.0000      -0.479836       -13.0570 
 149   2.0000      -0.466629       -12.6976 
 150   2.0000      -0.466219       -12.6865 
 151   2.0000      -0.457228       -12.4418 
 152   2.0000      -0.450648       -12.2628 
 153   2.0000      -0.445170       -12.1137 
 154   2.0000      -0.441406       -12.0113 
 155   2.0000      -0.430352       -11.7105 
 156   2.0000      -0.428283       -11.6542 
 157   2.0000      -0.413104       -11.2411 
 158   2.0000      -0.404565       -11.0088 
 159   2.0000      -0.388383       -10.5684 
 160   2.0000      -0.383907       -10.4466 
 161   2.0000      -0.378414       -10.2972 
 162   2.0000      -0.370075       -10.0703 
 163   2.0000      -0.356798        -9.7090 
 164   2.0000      -0.355503        -9.6737 
 165   2.0000      -0.340681        -9.2704 
 166   2.0000      -0.337505        -9.1840 
 167   2.0000      -0.325952        -8.8696 
 168   2.0000      -0.324517        -8.8305 
 169   2.0000      -0.304069        -8.2741 
 170   2.0000      -0.299726        -8.1559 
 171   2.0000      -0.285918        -7.7802 
 172   2.0000      -0.281681        -7.6649 
 173   2.0000      -0.262896        -7.1538 
 174   2.0000      -0.242614        -6.6019 
 175   2.0000      -0.189858        -5.1663 
 176   2.0000      -0.180279        -4.9056 
 177   2.0000      -0.076013        -2.0684 
 178   2.0000      -0.058518        -1.5924 
 179   0.0000       0.028493         0.7753 
 180   0.0000       0.066274         1.8034 
 181   0.0000       0.091153         2.4804 
 182   0.0000       0.109889         2.9902 
 183   0.0000       0.110503         3.0069 
 184   0.0000       0.136896         3.7251 
 185   0.0000       0.139649         3.8001 
 186   0.0000       0.143924         3.9164 
 187   0.0000       0.163384         4.4459 
 188   0.0000       0.164966         4.4890 
 189   0.0000       0.165954         4.5158 
 190   0.0000       0.169584         4.6146 
 191   0.0000       0.183392         4.9904 
 192   0.0000       0.186792         5.0829 
 193   0.0000       0.186830         5.0839 
 194   0.0000       0.204771         5.5721 
 195   0.0000       0.205867         5.6019 
 196   0.0000       0.208102         5.6628 
 197   0.0000       0.208892         5.6842 
 198   0.0000       0.219326         5.9682 
 199   0.0000       0.226756         6.1703 
 200   0.0000       0.231172         6.2905 
 201   0.0000       0.236499         6.4355 
 202   0.0000       0.239126         6.5070 
 203   0.0000       0.240028         6.5315 
 204   0.0000       0.248119         6.7517 
 205   0.0000       0.256511         6.9800 
 206   0.0000       0.256930         6.9914 
 207   0.0000       0.257431         7.0051 
 208   0.0000       0.258667         7.0387 
 209   0.0000       0.261959         7.1283 
 210   0.0000       0.262806         7.1513 
 211   0.0000       0.268032         7.2935 
 212   0.0000       0.270834         7.3698 
 213   0.0000       0.272209         7.4072 
 214   0.0000       0.272789         7.4230 
 215   0.0000       0.275860         7.5065 
 216   0.0000       0.278151         7.5689 
 217   0.0000       0.282259         7.6806 
 218   0.0000       0.286199         7.7879 
 219   0.0000       0.287973         7.8361 
 220   0.0000       0.289935         7.8895 
 221   0.0000       0.292304         7.9540 
 222   0.0000       0.295248         8.0341 
 223   0.0000       0.296263         8.0617 
 224   0.0000       0.297470         8.0946 
 225   0.0000       0.298754         8.1295 
 226   0.0000       0.305734         8.3194 
 227   0.0000       0.308264         8.3883 
 228   0.0000       0.309918         8.4333 
 229   0.0000       0.324722         8.8361 
 230   0.0000       0.326846         8.8939 
 231   0.0000       0.330686         8.9984 
 232   0.0000       0.337027         9.1710 
 233   0.0000       0.341872         9.3028 
 234   0.0000       0.353094         9.6082 
 235   0.0000       0.356122         9.6906 
 236   0.0000       0.375716        10.2237 
 237   0.0000       0.379546        10.3280 
 238   0.0000       0.393652        10.7118 
 239   0.0000       0.396679        10.7942 
 240   0.0000       0.400553        10.8996 
 241   0.0000       0.410709        11.1760 
 242   0.0000       0.414690        11.2843 
 243   0.0000       0.419731        11.4215 
 244   0.0000       0.429267        11.6809 
 245   0.0000       0.433928        11.8078 
 246   0.0000       0.436328        11.8731 
 247   0.0000       0.441239        12.0067 
 248   0.0000       0.441673        12.0185 
 249   0.0000       0.448896        12.2151 
 250   0.0000       0.456450        12.4206 
 251   0.0000       0.460699        12.5363 
 252   0.0000       0.468742        12.7551 
 253   0.0000       0.470095        12.7919 
 254   0.0000       0.472225        12.8499 
 255   0.0000       0.473166        12.8755 
 256   0.0000       0.477733        12.9998 
 257   0.0000       0.481257        13.0957 
 258   0.0000       0.486718        13.2443 
 259   0.0000       0.497519        13.5382 
 260   0.0000       0.504081        13.7167 
 261   0.0000       0.504941        13.7401 
 262   0.0000       0.506845        13.7920 
 263   0.0000       0.508778        13.8446 
 264   0.0000       0.514489        14.0000 
 265   0.0000       0.519412        14.1339 
 266   0.0000       0.524622        14.2757 
 267   0.0000       0.530576        14.4377 
 268   0.0000       0.532051        14.4778 
 269   0.0000       0.536990        14.6122 
 270   0.0000       0.540458        14.7066 
 271   0.0000       0.546386        14.8679 
 272   0.0000       0.554519        15.0892 
 273   0.0000       0.559274        15.2186 
 274   0.0000       0.561709        15.2849 
 275   0.0000       0.564896        15.3716 
 276   0.0000       0.570571        15.5260 
 277   0.0000       0.572267        15.5722 
 278   0.0000       0.577487        15.7142 
 279   0.0000       0.586741        15.9660 
 280   0.0000       0.589631        16.0447 
 281   0.0000       0.592994        16.1362 
 282   0.0000       0.594434        16.1754 
 283   0.0000       0.594950        16.1894 
 284   0.0000       0.597912        16.2700 
 285   0.0000       0.600141        16.3307 
 286   0.0000       0.607424        16.5288 
 287   0.0000       0.612354        16.6630 
 288   0.0000       0.616230        16.7685 
 289   0.0000       0.622433        16.9373 
 290   0.0000       0.626856        17.0576 
 291   0.0000       0.629220        17.1219 
 292   0.0000       0.634308        17.2604 
 293   0.0000       0.639039        17.3891 
 294   0.0000       0.645535        17.5659 
 295   0.0000       0.647711        17.6251 
 296   0.0000       0.653461        17.7816 
 297   0.0000       0.656004        17.8508 
 298   0.0000       0.662894        18.0383 
 299   0.0000       0.667771        18.1710 
 300   0.0000       0.671520        18.2730 
 301   0.0000       0.675550        18.3826 
 302   0.0000       0.676458        18.4074 
 303   0.0000       0.679773        18.4976 
 304   0.0000       0.680487        18.5170 
 305   0.0000       0.685427        18.6514 
 306   0.0000       0.688037        18.7224 
 307   0.0000       0.690702        18.7950 
 308   0.0000       0.695589        18.9279 
 309   0.0000       0.697939        18.9919 
 310   0.0000       0.702709        19.1217 
 311   0.0000       0.703830        19.1522 
 312   0.0000       0.707962        19.2646 
 313   0.0000       0.710648        19.3377 
 314   0.0000       0.711503        19.3610 
 315   0.0000       0.715606        19.4726 
 316   0.0000       0.717091        19.5130 
 317   0.0000       0.718770        19.5587 
 318   0.0000       0.720760        19.6129 
 319   0.0000       0.723303        19.6821 
 320   0.0000       0.726022        19.7561 
 321   0.0000       0.731023        19.8921 
 322   0.0000       0.733089        19.9484 
 323   0.0000       0.733794        19.9675 
 324   0.0000       0.734696        19.9921 
 325   0.0000       0.740074        20.1384 
 326   0.0000       0.743718        20.2376 
 327   0.0000       0.748480        20.3672 
 328   0.0000       0.750603        20.4249 
 329   0.0000       0.751494        20.4492 
 330   0.0000       0.753850        20.5133 
 331   0.0000       0.758177        20.6310 
 332   0.0000       0.760344        20.6900 
 333   0.0000       0.765441        20.8287 
 334   0.0000       0.767480        20.8842 
 335   0.0000       0.772365        21.0171 
 336   0.0000       0.774160        21.0660 
 337   0.0000       0.780898        21.2493 
 338   0.0000       0.782357        21.2890 
 339   0.0000       0.788818        21.4648 
 340   0.0000       0.792808        21.5734 
 341   0.0000       0.795008        21.6333 
 342   0.0000       0.795396        21.6438 
 343   0.0000       0.803250        21.8575 
 344   0.0000       0.805136        21.9089 
 345   0.0000       0.807828        21.9821 
 346   0.0000       0.808573        22.0024 
 347   0.0000       0.812537        22.1103 
 348   0.0000       0.815395        22.1880 
 349   0.0000       0.818345        22.2683 
 350   0.0000       0.819096        22.2887 
 351   0.0000       0.822217        22.3737 
 352   0.0000       0.824958        22.4483 
 353   0.0000       0.826361        22.4864 
 354   0.0000       0.826510        22.4905 
 355   0.0000       0.831870        22.6363 
 356   0.0000       0.833103        22.6699 
 357   0.0000       0.836457        22.7611 
 358   0.0000       0.837222        22.7820 
 359   0.0000       0.839246        22.8371 
 360   0.0000       0.839307        22.8387 
 361   0.0000       0.842952        22.9379 
 362   0.0000       0.844357        22.9761 
 363   0.0000       0.847952        23.0740 
 364   0.0000       0.848682        23.0938 
 365   0.0000       0.854206        23.2441 
 366   0.0000       0.857120        23.3234 
 367   0.0000       0.860482        23.4149 
 368   0.0000       0.864263        23.5178 
 369   0.0000       0.867132        23.5959 
 370   0.0000       0.870664        23.6920 
 371   0.0000       0.872355        23.7380 
 372   0.0000       0.873586        23.7715 
 373   0.0000       0.875908        23.8347 
 374   0.0000       0.879259        23.9259 
 375   0.0000       0.884221        24.0609 
 376   0.0000       0.886067        24.1111 
 377   0.0000       0.889079        24.1931 
 378   0.0000       0.890101        24.2209 
 379   0.0000       0.892340        24.2818 
 380   0.0000       0.897050        24.4100 
 381   0.0000       0.899438        24.4750 
 382   0.0000       0.900292        24.4982 
 383   0.0000       0.901176        24.5222 
 384   0.0000       0.904348        24.6086 
 385   0.0000       0.905151        24.6304 
 386   0.0000       0.907903        24.7053 
 387   0.0000       0.908756        24.7285 
 388   0.0000       0.911516        24.8036 
 389   0.0000       0.916415        24.9369 
 390   0.0000       0.920985        25.0613 
 391   0.0000       0.924231        25.1496 
 392   0.0000       0.925752        25.1910 
 393   0.0000       0.927307        25.2333 
 394   0.0000       0.927852        25.2481 
 395   0.0000       0.929924        25.3045 
 396   0.0000       0.934443        25.4275 
 397   0.0000       0.939313        25.5600 
 398   0.0000       0.941379        25.6162 
 399   0.0000       0.943799        25.6821 
 400   0.0000       0.944503        25.7012 
 401   0.0000       0.949937        25.8491 
 402   0.0000       0.953216        25.9383 
 403   0.0000       0.956204        26.0196 
 404   0.0000       0.959902        26.1203 
 405   0.0000       0.963403        26.2155 
 406   0.0000       0.965795        26.2806 
 407   0.0000       0.970721        26.4147 
 408   0.0000       0.974261        26.5110 
 409   0.0000       0.979414        26.6512 
 410   0.0000       0.982656        26.7394 
 411   0.0000       0.986492        26.8438 
 412   0.0000       0.990241        26.9458 
 413   0.0000       0.997836        27.1525 
 414   0.0000       1.001039        27.2397 
 415   0.0000       1.002427        27.2774 
 416   0.0000       1.008108        27.4320 
 417   0.0000       1.012098        27.5406 
 418   0.0000       1.022465        27.8227 
 419   0.0000       1.025972        27.9181 
 420   0.0000       1.030168        28.0323 
 421   0.0000       1.032176        28.0869 
 422   0.0000       1.037257        28.2252 
 423   0.0000       1.045165        28.4404 
 424   0.0000       1.052212        28.6321 
 425   0.0000       1.056988        28.7621 
 426   0.0000       1.058407        28.8007 
 427   0.0000       1.065696        28.9991 
 428   0.0000       1.076573        29.2950 
 429   0.0000       1.082364        29.4526 
 430   0.0000       1.082981        29.4694 
 431   0.0000       1.086243        29.5582 
 432   0.0000       1.089475        29.6461 
 433   0.0000       1.093862        29.7655 
 434   0.0000       1.100874        29.9563 
 435   0.0000       1.101649        29.9774 
 436   0.0000       1.106679        30.1143 
 437   0.0000       1.110656        30.2225 
 438   0.0000       1.115375        30.3509 
 439   0.0000       1.118876        30.4462 
 440   0.0000       1.120603        30.4932 
 441   0.0000       1.122640        30.5486 
 442   0.0000       1.124545        30.6004 
 443   0.0000       1.127797        30.6889 
 444   0.0000       1.134135        30.8614 
 445   0.0000       1.136286        30.9199 
 446   0.0000       1.140202        31.0265 
 447   0.0000       1.145058        31.1586 
 448   0.0000       1.146579        31.2000 
 449   0.0000       1.149647        31.2835 
 450   0.0000       1.152631        31.3647 
 451   0.0000       1.159230        31.5442 
 452   0.0000       1.162406        31.6307 
 453   0.0000       1.166051        31.7299 
 454   0.0000       1.169426        31.8217 
 455   0.0000       1.170891        31.8616 
 456   0.0000       1.172949        31.9176 
 457   0.0000       1.177148        32.0318 
 458   0.0000       1.184318        32.2269 
 459   0.0000       1.187279        32.3075 
 460   0.0000       1.195558        32.5328 
 461   0.0000       1.198245        32.6059 
 462   0.0000       1.199722        32.6461 
 463   0.0000       1.205560        32.8049 
 464   0.0000       1.208472        32.8842 
 465   0.0000       1.211116        32.9561 
 466   0.0000       1.217291        33.1242 
 467   0.0000       1.218416        33.1548 
 468   0.0000       1.222621        33.2692 
 469   0.0000       1.225951        33.3598 
 470   0.0000       1.228452        33.4279 
 471   0.0000       1.231286        33.5050 
 472   0.0000       1.234874        33.6026 
 473   0.0000       1.235978        33.6327 
 474   0.0000       1.243198        33.8291 
 475   0.0000       1.243269        33.8311 
 476   0.0000       1.249293        33.9950 
 477   0.0000       1.250539        34.0289 
 478   0.0000       1.251874        34.0652 
 479   0.0000       1.255350        34.1598 
 480   0.0000       1.257962        34.2309 
 481   0.0000       1.264007        34.3954 
 482   0.0000       1.264514        34.4092 
 483   0.0000       1.270667        34.5766 
 484   0.0000       1.274388        34.6779 
 485   0.0000       1.278788        34.7976 
 486   0.0000       1.282475        34.8979 
 487   0.0000       1.285005        34.9668 
 488   0.0000       1.288026        35.0490 
 489   0.0000       1.291221        35.1359 
 490   0.0000       1.295131        35.2423 
 491   0.0000       1.297316        35.3018 
 492   0.0000       1.300443        35.3869 
 493   0.0000       1.309994        35.6468 
 494   0.0000       1.311192        35.6794 
 495   0.0000       1.317557        35.8526 
 496   0.0000       1.320684        35.9376 
 497   0.0000       1.322410        35.9846 
 498   0.0000       1.326674        36.1006 
 499   0.0000       1.328188        36.1418 
 500   0.0000       1.333390        36.2834 
 501   0.0000       1.336906        36.3791 
 502   0.0000       1.339769        36.4570 
 503   0.0000       1.343278        36.5524 
 504   0.0000       1.346352        36.6361 
 505   0.0000       1.351414        36.7738 
 506   0.0000       1.352167        36.7943 
 507   0.0000       1.355656        36.8893 
 508   0.0000       1.358635        36.9703 
 509   0.0000       1.361232        37.0410 
[...]
      pz      :     0.022100  p :     0.079752
      px      :     0.043570
      py      :     0.014082
 77 H s       :     0.885137  s :     0.885137
      pz      :     0.047931  p :     0.079237
      px      :     0.015022
      py      :     0.016285
 78 H s       :     0.885486  s :     0.885486
      pz      :     0.025859  p :     0.079203
      px      :     0.020469
      py      :     0.032875
 79 H s       :     0.910506  s :     0.910506
      pz      :     0.021838  p :     0.086360
      px      :     0.021674
      py      :     0.042848
 80 H s       :     0.865265  s :     0.865265
      pz      :     0.039321  p :     0.084729
      px      :     0.030231
      py      :     0.015176
 81 H s       :     0.886902  s :     0.886902
      pz      :     0.037810  p :     0.084098
      px      :     0.016180
      py      :     0.030107
 82 H s       :     0.915853  s :     0.915853
      pz      :     0.021966  p :     0.086744
      px      :     0.031617
      py      :     0.033161
 83 H s       :     0.873275  s :     0.873275
      pz      :     0.039279  p :     0.084082
      px      :     0.015271
      py      :     0.029532
 84 H s       :     0.886693  s :     0.886693
      pz      :     0.035776  p :     0.083475
      px      :     0.031701
      py      :     0.015997
 85 H s       :     0.892901  s :     0.892901
      pz      :     0.022493  p :     0.079785
      px      :     0.014071
      py      :     0.043222
 86 H s       :     0.890944  s :     0.890944
      pz      :     0.024731  p :     0.078834
      px      :     0.032983
      py      :     0.021121
 87 H s       :     0.889914  s :     0.889914
      pz      :     0.048006  p :     0.078735
      px      :     0.015590
      py      :     0.015139
 88 H s       :     0.910914  s :     0.910914
      pz      :     0.021661  p :     0.087005
      px      :     0.042896
      py      :     0.022448
 89 H s       :     0.871529  s :     0.871529
      pz      :     0.037935  p :     0.083832
      px      :     0.030474
      py      :     0.015422


                      *****************************
                      * MAYER POPULATION ANALYSIS *
                      *****************************

  NA   - Mulliken gross atomic population
  ZA   - Total nuclear charge
  QA   - Mulliken gross atomic charge
  VA   - Mayer's total valence
  BVA  - Mayer's bonded valence
  FA   - Mayer's free valence

  ATOM       NA         ZA         QA         VA         BVA        FA
  0 C      5.7900     6.0000     0.2100     3.8421     3.8421     0.0000
  1 N      7.4553     7.0000    -0.4553     3.3335     3.3335     0.0000
  2 C      6.0664     6.0000    -0.0664     3.9206     3.9206    -0.0000
  3 N      7.3375     7.0000    -0.3375     3.4571     3.4571    -0.0000
  4 C      6.0478     6.0000    -0.0478     4.0327     4.0327     0.0000
  5 N      7.5647     7.0000    -0.5647     3.0943     3.0943    -0.0000
  6 C      6.1097     6.0000    -0.1097     3.9842     3.9842     0.0000
  7 N      7.3403     7.0000    -0.3403     3.4342     3.4342     0.0000
  8 C      5.7929     6.0000     0.2071     3.8421     3.8421    -0.0000
  9 N      7.5623     7.0000    -0.5623     3.0778     3.0778    -0.0000
 10 C      5.8807     6.0000     0.1193     3.9086     3.9086     0.0000
 11 N      7.4384     7.0000    -0.4384     3.3783     3.3783    -0.0000
 12 C      6.0809     6.0000    -0.0809     3.8956     3.8956     0.0000
 13 N      7.4308     7.0000    -0.4308     3.4220     3.4220     0.0000
 14 C      5.7676     6.0000     0.2324     3.7855     3.7855    -0.0000
 15 N      7.4410     7.0000    -0.4410     3.3721     3.3721     0.0000
 16 C      5.7717     6.0000     0.2283     3.7788     3.7788    -0.0000
 17 C      6.1210     6.0000    -0.1210     3.9934     3.9934     0.0000
 18 C      6.1940     6.0000    -0.1940     3.7667     3.7667     0.0000
 19 C      5.7751     6.0000     0.2249     3.8627     3.8627     0.0000
 20 C      5.7873     6.0000     0.2127     3.8289     3.8289     0.0000
 21 C      6.0912     6.0000    -0.0912     3.8784     3.8784    -0.0000
 22 C      6.0911     6.0000    -0.0911     3.9828     3.9828     0.0000
 23 C      6.0404     6.0000    -0.0404     3.9925     3.9925    -0.0000
 24 C      5.8053     6.0000     0.1947     3.8216     3.8216    -0.0000
 25 C      5.8854     6.0000     0.1146     3.8915     3.8915    -0.0000
 26 C      6.0827     6.0000    -0.0827     3.9099     3.9099    -0.0000
 27 C      5.7867     6.0000     0.2133     3.8637     3.8637    -0.0000
 28 C      6.0608     6.0000    -0.0608     3.9887     3.9887     0.0000
 29 C      6.1806     6.0000    -0.1806     3.7447     3.7447     0.0000
 30 C      5.7549     6.0000     0.2451     3.7999     3.7999    -0.0000
 31 C      5.7722     6.0000     0.2278     3.8186     3.8186    -0.0000
 32 C      6.0622     6.0000    -0.0622     3.9225     3.9225    -0.0000
 33 C      6.0630     6.0000    -0.0630     3.9736     3.9736    -0.0000
 34 C      6.0510     6.0000    -0.0510     3.9847     3.9847    -0.0000
 35 C      5.7747     6.0000     0.2253     3.8178     3.8178    -0.0000
 36 C      5.8910     6.0000     0.1090     3.8769     3.8769     0.0000
 37 C      6.0646     6.0000    -0.0646     3.9177     3.9177    -0.0000
 38 C      5.7682     6.0000     0.2318     3.8002     3.8002    -0.0000
 39 C      6.0581     6.0000    -0.0581     3.9842     3.9842     0.0000
 40 C      6.1822     6.0000    -0.1822     3.7290     3.7290    -0.0000
 41 C      5.7745     6.0000     0.2255     3.8862     3.8862    -0.0000
 42 C      5.8021     6.0000     0.1979     3.8260     3.8260    -0.0000
 43 C      6.0724     6.0000    -0.0724     3.9003     3.9003    -0.0000
 44 C      6.0896     6.0000    -0.0896     3.9849     3.9849    -0.0000
 45 C      6.0604     6.0000    -0.0604     3.9923     3.9923     0.0000
 46 C      5.7893     6.0000     0.2107     3.8282     3.8282     0.0000
 47 C      5.8846     6.0000     0.1154     3.8930     3.8930     0.0000
 48 C      6.0677     6.0000    -0.0677     3.9091     3.9091    -0.0000
 49 C      5.7624     6.0000     0.2376     3.8927     3.8927    -0.0000
 50 C      6.0472     6.0000    -0.0472     3.9905     3.9905     0.0000
 51 C      6.1917     6.0000    -0.1917     3.7361     3.7361    -0.0000
 52 H      0.9606     1.0000     0.0394     0.9859     0.9859     0.0000
 53 H      1.0168     1.0000    -0.0168     0.9983     0.9983    -0.0000
 54 H      0.9473     1.0000     0.0527     1.0166     1.0166    -0.0000
 55 H      0.9617     1.0000     0.0383     0.9868     0.9868    -0.0000
 56 H      0.9503     1.0000     0.0497     0.9696     0.9696    -0.0000
 57 H      0.9518     1.0000     0.0482     0.9829     0.9829    -0.0000
 58 H      0.9525     1.0000     0.0475     0.9848     0.9848    -0.0000
 59 H      0.9990     1.0000     0.0010     1.0028     1.0028     0.0000
 60 H      0.9519     1.0000     0.0481     1.0149     1.0149     0.0000
 61 H      0.8287     1.0000     0.1713     1.0421     1.0421     0.0000
 62 H      0.8248     1.0000     0.1752     1.0435     1.0435     0.0000
 63 H      0.9448     1.0000     0.0552     0.9853     0.9853     0.0000
 64 H      1.0093     1.0000    -0.0093     0.9963     0.9963     0.0000
 65 H      0.9527     1.0000     0.0473     1.0096     1.0096    -0.0000
 66 H      0.9442     1.0000     0.0558     0.9854     0.9854     0.0000
 67 H      0.9377     1.0000     0.0623     0.9719     0.9719     0.0000
 68 H      0.9427     1.0000     0.0573     0.9868     0.9868     0.0000
 69 H      0.9435     1.0000     0.0565     0.9828     0.9828     0.0000
 70 H      1.0294     1.0000    -0.0294     0.9936     0.9936    -0.0000
 71 H      0.9552     1.0000     0.0448     1.0060     1.0060     0.0000
 72 H      0.9304     1.0000     0.0696     0.9837     0.9837     0.0000
 73 H      1.0085     1.0000    -0.0085     1.0007     1.0007     0.0000
 74 H      0.9412     1.0000     0.0588     1.0100     1.0100    -0.0000
 75 H      0.9311     1.0000     0.0689     0.9841     0.9841     0.0000
 76 H      0.9266     1.0000     0.0734     0.9721     0.9721    -0.0000
 77 H      0.9332     1.0000     0.0668     0.9854     0.9854     0.0000
 78 H      0.9339     1.0000     0.0661     0.9853     0.9853     0.0000
 79 H      1.0162     1.0000    -0.0162     0.9977     0.9977    -0.0000
 80 H      0.9404     1.0000     0.0596     1.0072     1.0072     0.0000
 81 H      0.9459     1.0000     0.0541     0.9856     0.9856     0.0000
 82 H      1.0246     1.0000    -0.0246     0.9935     0.9935     0.0000
 83 H      0.9579     1.0000     0.0421     1.0083     1.0083     0.0000
 84 H      0.9459     1.0000     0.0541     0.9852     0.9852    -0.0000
 85 H      0.9393     1.0000     0.0607     0.9716     0.9716     0.0000
 86 H      0.9444     1.0000     0.0556     0.9839     0.9839     0.0000
 87 H      0.9429     1.0000     0.0571     0.9856     0.9856     0.0000
 88 H      1.0151     1.0000    -0.0151     0.9965     0.9965    -0.0000
 89 H      0.9539     1.0000     0.0461     1.0075     1.0075     0.0000

  Mayer bond orders larger than 0.100000
B(  0-C ,  1-N ) :   1.0951 B(  0-C , 17-C ) :   1.7005 B(  0-C , 52-H ) :   0.9669 
B(  1-N ,  8-C ) :   1.0875 B(  1-N , 10-C ) :   0.9769 B(  2-C , 12-C ) :   1.5065 
B(  2-C , 16-C ) :   1.3566 B(  2-C , 53-H ) :   0.9750 B(  3-N , 14-C ) :   1.2189 
B(  3-N , 16-C ) :   1.1890 B(  3-N , 61-H ) :   0.8990 B(  4-C ,  6-C ) :   1.2125 
B(  4-C , 17-C ) :   1.2146 B(  4-C , 18-C ) :   1.4363 B(  5-N , 19-C ) :   1.4514 
B(  5-N , 27-C ) :   1.3791 B(  6-C ,  8-C ) :   1.7085 B(  6-C , 54-H ) :   0.9482 
B(  7-N , 30-C ) :   1.1958 B(  7-N , 38-C ) :   1.1911 B(  7-N , 62-H ) :   0.8970 
B(  8-C , 55-H ) :   0.9667 B(  9-N , 41-C ) :   1.3955 B(  9-N , 49-C ) :   1.4245 
B( 10-C , 56-H ) :   0.9771 B( 10-C , 57-H ) :   0.9822 B( 10-C , 58-H ) :   0.9843 
B( 11-N , 20-C ) :   1.1300 B( 11-N , 24-C ) :   1.1081 B( 11-N , 25-C ) :   0.9602 
B( 12-C , 14-C ) :   1.3553 B( 12-C , 59-H ) :   0.9717 B( 13-N , 31-C ) :   1.1566 
B( 13-N , 35-C ) :   1.1545 B( 13-N , 36-C ) :   0.9436 B( 14-C , 18-C ) :   1.1309 
B( 15-N , 42-C ) :   1.1085 B( 15-N , 46-C ) :   1.1230 B( 15-N , 47-C ) :   0.9614 
B( 16-C , 51-C ) :   1.1723 B( 17-C , 60-H ) :   0.9544 B( 18-C , 19-C ) :   1.1350 
B( 19-C , 21-C ) :   1.2460 B( 20-C , 28-C ) :   1.6285 B( 20-C , 63-H ) :   0.9703 
B( 21-C , 26-C ) :   1.6036 B( 21-C , 64-H ) :   0.9644 B( 22-C , 23-C ) :   1.2886 
B( 22-C , 28-C ) :   1.2646 B( 22-C , 29-C ) :   1.2248 B( 23-C , 24-C ) :   1.6203 
B( 23-C , 65-H ) :   0.9704 B( 24-C , 66-H ) :   0.9695 B( 25-C , 67-H ) :   0.9760 
B( 25-C , 68-H ) :   0.9828 B( 25-C , 69-H ) :   0.9823 B( 26-C , 27-C ) :   1.2439 
B( 26-C , 70-H ) :   0.9704 B( 27-C , 29-C ) :   1.2121 B( 28-C , 71-H ) :   0.9719 
B( 29-C , 30-C ) :   1.2407 B( 30-C , 32-C ) :   1.2839 B( 31-C , 39-C ) :   1.5932 
B( 31-C , 72-H ) :   0.9683 B( 32-C , 37-C ) :   1.5748 B( 32-C , 73-H ) :   0.9785 
B( 33-C , 34-C ) :   1.3032 B( 33-C , 39-C ) :   1.2995 B( 33-C , 40-C ) :   1.1850 
B( 34-C , 35-C ) :   1.5906 B( 34-C , 74-H ) :   0.9697 B( 35-C , 75-H ) :   0.9683 
B( 36-C , 76-H ) :   0.9767 B( 36-C , 77-H ) :   0.9816 B( 36-C , 78-H ) :   0.9824 
B( 37-C , 38-C ) :   1.2890 B( 37-C , 79-H ) :   0.9766 B( 38-C , 40-C ) :   1.2301 
B( 39-C , 80-H ) :   0.9706 B( 40-C , 41-C ) :   1.2473 B( 41-C , 43-C ) :   1.1876 
B( 42-C , 50-C ) :   1.6332 B( 42-C , 81-H ) :   0.9697 B( 43-C , 48-C ) :   1.6650 
B( 43-C , 82-H ) :   0.9723 B( 44-C , 45-C ) :   1.2643 B( 44-C , 50-C ) :   1.2717 
B( 44-C , 51-C ) :   1.2599 B( 45-C , 46-C ) :   1.6346 B( 45-C , 83-H ) :   0.9718 
B( 46-C , 84-H ) :   0.9700 B( 47-C , 85-H ) :   0.9762 B( 47-C , 86-H ) :   0.9829 
B( 47-C , 87-H ) :   0.9825 B( 48-C , 49-C ) :   1.1909 B( 48-C , 88-H ) :   0.9747 
B( 49-C , 51-C ) :   1.2408 B( 50-C , 89-H ) :   0.9710 

-------
TIMINGS
-------

Total SCF time: 0 days 0 hours 22 min 38 sec 

Total time                  ....    1358.230 sec
Sum of individual times     ....    1354.480 sec  ( 99.7%)

Fock matrix formation       ....    1333.989 sec  ( 98.2%)
Diagonalization             ....       6.609 sec  (  0.5%)
Density matrix formation    ....       0.382 sec  (  0.0%)
Population analysis         ....       0.428 sec  (  0.0%)
Initial guess               ....       1.938 sec  (  0.1%)
Orbital Transformation      ....       0.000 sec  (  0.0%)
Orbital Orthonormalization  ....       0.000 sec  (  0.0%)
DIIS solution               ....       2.870 sec  (  0.2%)
SOSCF solution              ....       7.246 sec  (  0.5%)

Maximum memory used throughout the entire SCF-calculation: 302.6 MB


           ************************************************************
           *        Program running with 16 parallel MPI-processes    *
           *              working on a common directory               *
           ************************************************************

------------------------------------------------------------------------------
                                ORCA  MP2 
------------------------------------------------------------------------------

Freezing NCore=104 chemical core electrons

----------
MP2 ENERGY (disk based algorithm)
----------

Dimension of the basis                    ...  918
Memory devoted to MP2                     ... 2000 MB   
Data format for buffers                   ... DOUBLE
Compression type for matrix containers    ... UNCOMPRESSED

-------------------------------
PARTIAL EXCHANGE TRANSFORMATION
-------------------------------

Transformation type                        ... one-operator
Generation of integrals (i,mue|j,nue)      ... ON
Generation of integrals (mue,kappa|nue,tau)... OFF
Generation of integrals (i,mue|a,nue)      ... OFF
Dimension of the basis                     ...  918
Number of internal MOs                     ...  127 (  52- 178)
Pair cutoff                                ... 2.500e-12 Eh
Number of AO pairs in the trafo            ... 421821
Total Number of distinct AO pairs          ... 421821
Memory devoted for trafo                   ... 2000.0 MB 
Max. Number of MO pairs treated together   ...  311      
Number Format for Storage                  ... Double (8 Byte)
Integral package used                      ... LIBINT

Starting integral evaluation:
    ... done with AO integral generation
Closing buffer AOK     (38.29 GB; CompressionRatio= 1.32)
Collecting buffer AOK 
Number of MO pairs included in the trafo   ... 8128
------------------------
SORTING OF (i,mue|j,nue)
------------------------

IBATCH = 1 of  2
IBATCH = 2 of  2
Closing buffer KAO     (51.03 GB; CompressionRatio= 1.00)
Collecting buffer KAO 
N(AO-Batches) Done                         ...  85981486 
N(AO-Batches) Skipped                      ...  82345504 
N(IJ)-pairs Skipped                        ...         0 
TOTAL TIME for half transformation         ...  2584.354 sec
AO-integral generation                     ...   177.555 sec
Half transformation                        ...   315.952 sec
K-integral sorting                         ...  1945.761 sec
Process 10:   Internal MO 132
Process 13:   Internal MO 156
Process  7:   Internal MO 108
Process  1:   Internal MO  60

Finished integral transformation - now doing MP2 part

OPERATOR COMBINATION   0   0: ij=( 52..178, 52..178)
Process  4:   Internal MO  84
Process  0:   Internal MO  54
Process  0:   Internal MO  57
Process  1:   Internal MO  63
Process  8:   Internal MO 117
Process  2:   Internal MO  69
Process  1:   Internal MO  66
Process  6:   Internal MO 102
Process  4:   Internal MO  87
Process 14:   Internal MO 165
Process  3:   Internal MO  78
Process  5:   Internal MO  93
Process 11:   Internal MO 141
Process  2:   Internal MO  72
Process  9:   Internal MO 126
Process  7:   Internal MO 111
Process 12:   Internal MO 150
Process  4:   Internal MO  90
Process  3:   Internal MO  81
Process  2:   Internal MO  75
Process 10:   Internal MO 135
Process  5:   Internal MO  96
Process  6:   Internal MO 105
Process 15:   Internal MO 174
Process  8:   Internal MO 120
Process  7:   Internal MO 114
Process  9:   Internal MO 129
Process  5:   Internal MO  99
Process 13:   Internal MO 159
Process 11:   Internal MO 144
Process 14:   Internal MO 168
Process 10:   Internal MO 138
Process 12:   Internal MO 153
Process  8:   Internal MO 123
Process 15:   Internal MO 177
Process 11:   Internal MO 147
Process 13:   Internal MO 162
Process 14:   Internal MO 171
-----------------------------------------------
 MP2 CORRELATION ENERGY   :     -7.283871315 Eh
-----------------------------------------------


-------
TIMINGS
-------
Total time                : 2876.974 sec
Integral trafo            : 2586.268 sec ( 89.9%)
K(i,j)                    :    4.946 sec (  0.2%)
T(i,j)                    :    0.094 sec (  0.0%)

---------------------------------------
MP2 TOTAL ENERGY:    -2130.876146697 Eh
---------------------------------------

Maximum memory used throughout the entire MP2-calculation: 2275.3 MB

-------------------------   --------------------
FINAL SINGLE POINT ENERGY     -2130.876146697341
-------------------------   --------------------


                            ***************************************
                            *     ORCA property calculations      *
                            ***************************************


  WARNING: The energy has been calculated at the MP2 level but the densities
           used in the property calculations are still SCF densities
           MP2 response densities have not been calculated 
           use %mp2 Density relaxed end
           or  %mp2 Density unrelaxed end

                                    ---------------------
                                    Active property flags
                                    ---------------------
   (+) Dipole Moment


------------------------------------------------------------------------------
                       ORCA ELECTRIC PROPERTIES CALCULATION
------------------------------------------------------------------------------

Dipole Moment Calculation                       ... on
Quadrupole Moment Calculation                   ... off
Polarizability Calculation                      ... off
GBWName                                         ... /scratch/allen/tmpyp4_amber_gaff2/conf1/conf1/Conf30.orca.gbw
Electron density                                ... /scratch/allen/tmpyp4_amber_gaff2/conf1/conf1/Conf30.orca.scfp
The origin for moment calculation is the CENTER OF MASS  = (-0.000637, -0.004551  0.003314)

-------------
DIPOLE MOMENT
-------------
                                X             Y             Z
Electronic contribution:      2.49857      -3.83965      -0.11219
Nuclear contribution   :     -0.04984       0.15330       0.13270
                        -----------------------------------------
Total Dipole Moment    :      2.44872      -3.68635       0.02051
                        -----------------------------------------
Magnitude (a.u.)       :      4.42559
Magnitude (Debye)      :     11.24895



--------------------
Rotational spectrum 
--------------------
 
Rotational constants in cm-1:     0.001502     0.001477     0.000761 
Rotational constants in MHz :    45.029252    44.273233    22.799238 

 Dipole components along the rotational axes: 
x,y,z [a.u.] :     3.192543     3.064783     0.024397 
x,y,z [Debye]:     8.114800     7.790058     0.062011 

 

Timings for individual modules:

Sum of individual times         ...     4256.730 sec (=  70.945 min)
GTO integral calculation        ...        2.641 sec (=   0.044 min)   0.1 %
SCF iterations                  ...     1359.140 sec (=  22.652 min)  31.9 %
MP2 module                      ...     2894.949 sec (=  48.249 min)  68.0 %
                             ****ORCA TERMINATED NORMALLY****
TOTAL RUN TIME: 0 days 1 hours 11 minutes 0 seconds 22 msec
# of primitive gaussian functions

