
                                 *****************
                                 * O   R   C   A *
                                 *****************

                                            #,                                       
                                            ###                                      
                                            ####                                     
                                            #####                                    
                                            ######                                   
                                           ########,                                 
                                     ,,################,,,,,                         
                               ,,#################################,,                 
                          ,,##########################################,,             
                       ,#########################################, ''#####,          
                    ,#############################################,,   '####,        
                  ,##################################################,,,,####,       
                ,###########''''           ''''###############################       
              ,#####''   ,,,,##########,,,,          '''####'''          '####       
            ,##' ,,,,###########################,,,                        '##       
           ' ,,###''''                  '''############,,,                           
         ,,##''                                '''############,,,,        ,,,,,,###''
      ,#''                                            '''#######################'''  
     '                                                          ''''####''''         
             ,#######,   #######,   ,#######,      ##                                
            ,#'     '#,  ##    ##  ,#'     '#,    #''#        ######   ,####,        
            ##       ##  ##   ,#'  ##            #'  '#       #        #'  '#        
            ##       ##  #######   ##           ,######,      #####,   #    #        
            '#,     ,#'  ##    ##  '#,     ,#' ,#      #,         ##   #,  ,#        
             '#######'   ##     ##  '#######'  #'      '#     #####' # '####'        



                  #######################################################
                  #                        -***-                        #
                  #          Department of theory and spectroscopy      #
                  #    Directorship and core code : Frank Neese         #
                  #        Max Planck Institute fuer Kohlenforschung    #
                  #                Kaiser Wilhelm Platz 1               #
                  #                 D-45470 Muelheim/Ruhr               #
                  #                      Germany                        #
                  #                                                     #
                  #                  All rights reserved                #
                  #                        -***-                        #
                  #######################################################


                         Program Version 5.0.4 -  RELEASE  -


 With contributions from (in alphabetic order):
   Daniel Aravena         : Magnetic Suceptibility
   Michael Atanasov       : Ab Initio Ligand Field Theory (pilot matlab implementation)
   Alexander A. Auer      : GIAO ZORA, VPT2 properties, NMR spectrum
   Ute Becker             : Parallelization
   Giovanni Bistoni       : ED, misc. LED, open-shell LED, HFLD
   Martin Brehm           : Molecular dynamics
   Dmytro Bykov           : SCF Hessian
   Vijay G. Chilkuri      : MRCI spin determinant printing, contributions to CSF-ICE
   Dipayan Datta          : RHF DLPNO-CCSD density
   Achintya Kumar Dutta   : EOM-CC, STEOM-CC
   Dmitry Ganyushin       : Spin-Orbit,Spin-Spin,Magnetic field MRCI
   Miquel Garcia          : C-PCM and meta-GGA Hessian, CC/C-PCM, Gaussian charge scheme
   Yang Guo               : DLPNO-NEVPT2, F12-NEVPT2, CIM, IAO-localization
   Andreas Hansen         : Spin unrestricted coupled pair/coupled cluster methods
   Benjamin Helmich-Paris : MC-RPA, TRAH-SCF, COSX integrals
   Lee Huntington         : MR-EOM, pCC
   Robert Izsak           : Overlap fitted RIJCOSX, COSX-SCS-MP3, EOM
   Marcus Kettner         : VPT2
   Christian Kollmar      : KDIIS, OOCD, Brueckner-CCSD(T), CCSD density, CASPT2, CASPT2-K
   Simone Kossmann        : Meta GGA functionals, TD-DFT gradient, OOMP2, MP2 Hessian
   Martin Krupicka        : Initial AUTO-CI
   Lucas Lang             : DCDCAS
   Marvin Lechner         : AUTO-CI (C++ implementation), FIC-MRCC
   Dagmar Lenk            : GEPOL surface, SMD
   Dimitrios Liakos       : Extrapolation schemes; Compound Job, initial MDCI parallelization
   Dimitrios Manganas     : Further ROCIS development; embedding schemes
   Dimitrios Pantazis     : SARC Basis sets
   Anastasios Papadopoulos: AUTO-CI, single reference methods and gradients
   Taras Petrenko         : DFT Hessian,TD-DFT gradient, ASA, ECA, R-Raman, ABS, FL, XAS/XES, NRVS
   Peter Pinski           : DLPNO-MP2, DLPNO-MP2 Gradient
   Christoph Reimann      : Effective Core Potentials
   Marius Retegan         : Local ZFS, SOC
   Christoph Riplinger    : Optimizer, TS searches, QM/MM, DLPNO-CCSD(T), (RO)-DLPNO pert. Triples
   Tobias Risthaus        : Range-separated hybrids, TD-DFT gradient, RPA, STAB
   Michael Roemelt        : Original ROCIS implementation
   Masaaki Saitow         : Open-shell DLPNO-CCSD energy and density
   Barbara Sandhoefer     : DKH picture change effects
   Avijit Sen             : IP-ROCIS
   Kantharuban Sivalingam : CASSCF convergence, NEVPT2, FIC-MRCI
   Bernardo de Souza      : ESD, SOC TD-DFT
   Georgi Stoychev        : AutoAux, RI-MP2 NMR, DLPNO-MP2 response
   Willem Van den Heuvel  : Paramagnetic NMR
   Boris Wezisla          : Elementary symmetry handling
   Frank Wennmohs         : Technical directorship


 We gratefully acknowledge several colleagues who have allowed us to
 interface, adapt or use parts of their codes:
   Stefan Grimme, W. Hujo, H. Kruse, P. Pracht,  : VdW corrections, initial TS optimization,
                  C. Bannwarth, S. Ehlert          DFT functionals, gCP, sTDA/sTD-DF
   Ed Valeev, F. Pavosevic, A. Kumar             : LibInt (2-el integral package), F12 methods
   Garnet Chan, S. Sharma, J. Yang, R. Olivares  : DMRG
   Ulf Ekstrom                                   : XCFun DFT Library
   Mihaly Kallay                                 : mrcc  (arbitrary order and MRCC methods)
   Jiri Pittner, Ondrej Demel                    : Mk-CCSD
   Frank Weinhold                                : gennbo (NPA and NBO analysis)
   Christopher J. Cramer and Donald G. Truhlar   : smd solvation model
   Lars Goerigk                                  : TD-DFT with DH, B97 family of functionals
   V. Asgeirsson, H. Jonsson                     : NEB implementation
   FAccTs GmbH                                   : IRC, NEB, NEB-TS, DLPNO-Multilevel, CI-OPT
                                                   MM, QMMM, 2- and 3-layer-ONIOM, Crystal-QMMM,
                                                   LR-CPCM, SF, NACMEs, symmetry and pop. for TD-DFT,
                                                   nearIR, NL-DFT gradient (VV10), updates on ESD,
                                                   ML-optimized integration grids
   S Lehtola, MJT Oliveira, MAL Marques          : LibXC Library
   Liviu Ungur et al                             : ANISO software


 Your calculation uses the libint2 library for the computation of 2-el integrals
 For citations please refer to: http://libint.valeyev.net

 Your ORCA version has been built with support for libXC version: 5.1.0
 For citations please refer to: https://tddft.org/programs/libxc/

 This ORCA versions uses:
   CBLAS   interface :  Fast vector & matrix operations
   LAPACKE interface :  Fast linear algebra routines
   SCALAPACK package :  Parallel linear algebra routines
   Shared memory     :  Shared parallel matrices
   BLAS/LAPACK       :  OpenBLAS 0.3.15  USE64BITINT DYNAMIC_ARCH NO_AFFINITY Sandybridge SINGLE_THREADED
        Core in use  :  Sandybridge
   Copyright (c) 2011-2014, The OpenBLAS Project


================================================================================

----- Orbital basis set information -----
Your calculation utilizes the basis: cc-pVDZ 
       H, B-Ne : Obtained from the ccRepo (grant-hill.group.shef.ac.uk/ccrepo) Feb. 2017
                 T. H. Dunning, Jr., J. Chem. Phys. 90, 1007 (1989)
            He : Obtained from the ccRepo (grant-hill.group.shef.ac.uk/ccrepo) Feb. 2017
                 D. E. Woon, T. H. Dunning, Jr., J. Chem. Phys. 100, 2975 (1994)
  Li-Be, Na-Mg : Obtained from the ccRepo (grant-hill.group.shef.ac.uk/ccrepo) Feb. 2017
                 B. P. Prascher, D. E. Woon, K. A. Peterson, T. H. Dunning, Jr., A. K. Wilson, Theor. Chem. Acc. 128, 69 (2011)
         Al-Ar : Obtained from the ccRepo (grant-hill.group.shef.ac.uk/ccrepo) Feb. 2017
                 D. E. Woon, T. H. Dunning, Jr., J. Chem. Phys. 98, 1358 (1993)
            Ca : Obtained from the Peterson Research Group Website (tyr0.chem.wsu.edu/~kipeters) Feb. 2017
                 J. Koput, K. A. Peterson, J. Phys. Chem. 106, 9595 (2002)
         Sc-Zn : Obtained from the ccRepo (grant-hill.group.shef.ac.uk/ccrepo) Feb. 2017
                 N. B. Balabanov, K. A. Peterson, J. Chem. Phys. 123, 064107 (2005)
                 N. B. Balabanov, K. A. Peterson, J. Chem. Phys. 125, 074110 (2006)
         Ga-Kr : Obtained from the ccRepo (grant-hill.group.shef.ac.uk/ccrepo) Feb. 2017
                 A. K. Wilson, D. E. Woon, K. A. Peterson, T. H. Dunning, Jr., J. Chem. Phys. 110, 7667 (1999)

================================================================================
                                        WARNINGS
                       Please study these warnings very carefully!
================================================================================


WARNING: No MP2 level density has been requested!
         To caclulate MP2 level properties use
         %mp2 Density relaxed end
         or
         %mp2 Density unrelaxed end

WARNING: Post HF methods need fully converged wavefunctions
  ===> : Setting SCFConvForced true
         You can overwrite this default with %scf ConvForced false 


INFO   : the flag for use of the SHARK integral package has been found!

================================================================================
                                       INPUT FILE
================================================================================
NAME = /scratch/allen/tmpyp4_amber_gaff2/2.Mdgx/conf11/conf11/Conf231.orca
|  1> ! PAL2
|  2> ! mp2 cc-pvdz TightSCF  NoKeepInts
|  3> 
|  4> %scf
|  5>   MaxCore 2000
|  6> end
|  7> %mp2
|  8>   MaxCore 2000
|  9> end
| 10> * xyz 0 1
| 11>    C       -4.62000         5.39300         0.95900
| 12>    C        1.47400         4.04100         0.05700
| 13>    C       -2.80200         4.09300         0.04900
| 14>    C       -2.57200         5.14200        -0.85500
| 15>    C       -3.36400         6.27200        -0.82100
| 16>    C       -5.17900         7.62500         0.11000
| 17>    C        0.13200         4.30700         0.06100
| 18>    C       -0.56900         3.05600         0.04700
| 19>    C        1.64900         2.61800         0.02300
| 20>    C       -3.85200         4.24500         0.96800
| 21>    N       -4.37300         6.38500         0.07400
| 22>    N        0.38800         2.06700         0.02500
| 23>    N       -2.01000         0.39500        -0.07500
| 24>    N       -0.38800        -2.07400        -0.02700
| 25>    N        2.01000        -0.40100         0.06500
| 26>    C       -1.96000         2.86100         0.02400
| 27>    C       -2.62300         1.61500        -0.01800
| 28>    C       -5.57300        -4.32900         1.06600
| 29>    C       -4.07300         1.47100         0.05600
| 30>    C       -4.10600        -2.75600        -0.02600
| 31>    C       -4.99500        -2.75700        -1.11100
| 32>    C       -6.13200        -3.54200        -1.07600
| 33>    C       -7.65100        -5.11300         0.04000
| 34>    C       -4.32400         0.14100         0.03700
| 35>    C       -3.02500        -0.52000        -0.04800
| 36>    C       -4.42200        -3.56600         1.07500
| 37>    N       -6.40700        -4.31300         0.00100
| 38>    C       -2.86700        -1.92200        -0.04000
| 39>    C       -1.65000        -2.62400        -0.02700
| 40>    C        3.56800        -6.14200        -1.04000
| 41>    C       -1.47600        -4.04900        -0.03400
| 42>    C        2.80300        -4.09900        -0.00800
| 43>    C        3.65700        -4.38400         1.06900
| 44>    C        4.42700        -5.53000         1.05900
| 45>    C        5.24500        -7.58800         0.01400
| 46>    C       -0.13400        -4.31500        -0.02200
| 47>    C        0.56800        -3.06400        -0.02700
| 48>    C        2.77500        -5.01200        -1.07400
| 49>    N        4.37600        -6.39100         0.01700
| 50>    C        1.95900        -2.86900        -0.00900
| 51>    C        2.62100        -1.62200         0.00900
| 52>    C        5.54300         4.33900        -1.13000
| 53>    C        4.07000        -1.47900        -0.09400
| 54>    C        4.10400         2.75100        -0.02100
| 55>    C        5.02700         2.72900         1.03600
| 56>    C        6.16600         3.50900         0.97800
| 57>    C        7.61900         5.15300        -0.11500
| 58>    C        4.32100        -0.14800        -0.09200
| 59>    C        3.02500         0.51400         0.01500
| 60>    C        4.38700         3.58200        -1.11500
| 61>    C        2.86600         1.91600         0.01300
| 62>    N        6.41300         4.29600        -0.09500
| 63>    H       -5.44700         5.54800         1.64100
| 64>    H        2.27400         4.76600         0.08100
| 65>    H       -1.77100         5.08800        -1.58200
| 66>    H       -3.22000         7.11000        -1.49100
| 67>    H       -4.67500         8.35900         0.74300
| 68>    H       -5.27700         8.01000        -0.90500
| 69>    H       -6.16200         7.39200         0.51700
| 70>    H       -0.33200         5.28200         0.06900
| 71>    H       -4.08800         3.46500         1.68200
| 72>    H        0.18200         1.07200         0.00500
| 73>    H       -0.18300        -1.08000        -0.02100
| 74>    H       -5.86400        -4.96200         1.89500
| 75>    H       -4.79400         2.27200         0.13900
| 76>    H       -4.80000        -2.16000        -1.99400
| 77>    H       -6.84100        -3.58200        -1.89300
| 78>    H       -8.42800        -4.53600         0.54600
| 79>    H       -7.95600        -5.33700        -0.98100
| 80>    H       -7.45600        -6.03700         0.58400
| 81>    H       -5.28700        -0.34400         0.10000
| 82>    H       -3.78000        -3.60100         1.94700
| 83>    H        3.58700        -6.86800        -1.84300
| 84>    H       -2.27600        -4.77400        -0.05000
| 85>    H        3.71400        -3.72400         1.92600
| 86>    H        5.09200        -5.79500         1.87100
| 87>    H        6.20500        -7.32900        -0.43900
| 88>    H        5.39300        -7.91700         1.04200
| 89>    H        4.75900        -8.37300        -0.56400
| 90>    H        0.32900        -5.29000        -0.00800
| 91>    H        2.14600        -4.84200        -1.94000
| 92>    H        5.80800         4.98600        -1.95600
| 93>    H        4.78800        -2.28100        -0.18500
| 94>    H        4.86000         2.11400         1.91200
| 95>    H        6.90100         3.53100         1.77200
| 96>    H        7.38300         6.10900         0.35600
| 97>    H        8.41400         4.65200         0.43500
| 98>    H        7.92100         5.31000        -1.15000
| 99>    H        5.28300         0.33600        -0.17900
|100>    H        3.72000         3.63200        -1.96700
|101> *
|102> 
|103>                          ****END OF INPUT****
================================================================================

                       ****************************
                       * Single Point Calculation *
                       ****************************

---------------------------------
CARTESIAN COORDINATES (ANGSTROEM)
---------------------------------
  C     -4.620000    5.393000    0.959000
  C      1.474000    4.041000    0.057000
  C     -2.802000    4.093000    0.049000
  C     -2.572000    5.142000   -0.855000
  C     -3.364000    6.272000   -0.821000
  C     -5.179000    7.625000    0.110000
  C      0.132000    4.307000    0.061000
  C     -0.569000    3.056000    0.047000
  C      1.649000    2.618000    0.023000
  C     -3.852000    4.245000    0.968000
  N     -4.373000    6.385000    0.074000
  N      0.388000    2.067000    0.025000
  N     -2.010000    0.395000   -0.075000
  N     -0.388000   -2.074000   -0.027000
  N      2.010000   -0.401000    0.065000
  C     -1.960000    2.861000    0.024000
  C     -2.623000    1.615000   -0.018000
  C     -5.573000   -4.329000    1.066000
  C     -4.073000    1.471000    0.056000
  C     -4.106000   -2.756000   -0.026000
  C     -4.995000   -2.757000   -1.111000
  C     -6.132000   -3.542000   -1.076000
  C     -7.651000   -5.113000    0.040000
  C     -4.324000    0.141000    0.037000
  C     -3.025000   -0.520000   -0.048000
  C     -4.422000   -3.566000    1.075000
  N     -6.407000   -4.313000    0.001000
  C     -2.867000   -1.922000   -0.040000
  C     -1.650000   -2.624000   -0.027000
  C      3.568000   -6.142000   -1.040000
  C     -1.476000   -4.049000   -0.034000
  C      2.803000   -4.099000   -0.008000
  C      3.657000   -4.384000    1.069000
  C      4.427000   -5.530000    1.059000
  C      5.245000   -7.588000    0.014000
  C     -0.134000   -4.315000   -0.022000
  C      0.568000   -3.064000   -0.027000
  C      2.775000   -5.012000   -1.074000
  N      4.376000   -6.391000    0.017000
  C      1.959000   -2.869000   -0.009000
  C      2.621000   -1.622000    0.009000
  C      5.543000    4.339000   -1.130000
  C      4.070000   -1.479000   -0.094000
  C      4.104000    2.751000   -0.021000
  C      5.027000    2.729000    1.036000
  C      6.166000    3.509000    0.978000
  C      7.619000    5.153000   -0.115000
  C      4.321000   -0.148000   -0.092000
  C      3.025000    0.514000    0.015000
  C      4.387000    3.582000   -1.115000
  C      2.866000    1.916000    0.013000
  N      6.413000    4.296000   -0.095000
  H     -5.447000    5.548000    1.641000
  H      2.274000    4.766000    0.081000
  H     -1.771000    5.088000   -1.582000
  H     -3.220000    7.110000   -1.491000
  H     -4.675000    8.359000    0.743000
  H     -5.277000    8.010000   -0.905000
  H     -6.162000    7.392000    0.517000
  H     -0.332000    5.282000    0.069000
  H     -4.088000    3.465000    1.682000
  H      0.182000    1.072000    0.005000
  H     -0.183000   -1.080000   -0.021000
  H     -5.864000   -4.962000    1.895000
  H     -4.794000    2.272000    0.139000
  H     -4.800000   -2.160000   -1.994000
  H     -6.841000   -3.582000   -1.893000
  H     -8.428000   -4.536000    0.546000
  H     -7.956000   -5.337000   -0.981000
  H     -7.456000   -6.037000    0.584000
  H     -5.287000   -0.344000    0.100000
  H     -3.780000   -3.601000    1.947000
  H      3.587000   -6.868000   -1.843000
  H     -2.276000   -4.774000   -0.050000
  H      3.714000   -3.724000    1.926000
  H      5.092000   -5.795000    1.871000
  H      6.205000   -7.329000   -0.439000
  H      5.393000   -7.917000    1.042000
  H      4.759000   -8.373000   -0.564000
  H      0.329000   -5.290000   -0.008000
  H      2.146000   -4.842000   -1.940000
  H      5.808000    4.986000   -1.956000
  H      4.788000   -2.281000   -0.185000
  H      4.860000    2.114000    1.912000
  H      6.901000    3.531000    1.772000
  H      7.383000    6.109000    0.356000
  H      8.414000    4.652000    0.435000
  H      7.921000    5.310000   -1.150000
  H      5.283000    0.336000   -0.179000
  H      3.720000    3.632000   -1.967000

----------------------------
CARTESIAN COORDINATES (A.U.)
----------------------------
  NO LB      ZA    FRAG     MASS         X           Y           Z
   0 C     6.0000    0    12.011   -8.730535   10.191293    1.812247
   1 C     6.0000    0    12.011    2.785456    7.636383    0.107714
   2 C     6.0000    0    12.011   -5.295013    7.734649    0.092597
   3 C     6.0000    0    12.011   -4.860376    9.716972   -1.615716
   4 C     6.0000    0    12.011   -6.357039   11.852362   -1.551465
   5 C     6.0000    0    12.011   -9.786892   14.409162    0.207870
   6 C     6.0000    0    12.011    0.249444    8.139050    0.115273
   7 C     6.0000    0    12.011   -1.075254    5.775003    0.088817
   8 C     6.0000    0    12.011    3.116158    4.947303    0.043464
   9 C     6.0000    0    12.011   -7.279225    8.021887    1.829255
  10 N     7.0000    0    14.007   -8.263772   12.065901    0.139840
  11 N     7.0000    0    14.007    0.733214    3.906064    0.047243
  12 N     7.0000    0    14.007   -3.798350    0.746442   -0.141729
  13 N     7.0000    0    14.007   -0.733214   -3.919292   -0.051023
  14 N     7.0000    0    14.007    3.798350   -0.757780    0.122832
  15 C     6.0000    0    12.011   -3.703863    5.406506    0.045353
  16 C     6.0000    0    12.011   -4.956752    3.051908   -0.034015
  17 C     6.0000    0    12.011  -10.531444   -8.180624    2.014448
  18 C     6.0000    0    12.011   -7.696855    2.779787    0.105825
  19 C     6.0000    0    12.011   -7.759216   -5.208085   -0.049133
  20 C     6.0000    0    12.011   -9.439182   -5.209975   -2.099486
  21 C     6.0000    0    12.011  -11.587801   -6.693410   -2.033345
  22 C     6.0000    0    12.011  -14.458295   -9.662170    0.075589
  23 C     6.0000    0    12.011   -8.171176    0.266451    0.069920
  24 C     6.0000    0    12.011   -5.716422   -0.982658   -0.090707
  25 C     6.0000    0    12.011   -8.356369   -6.738763    2.031456
  26 N     7.0000    0    14.007  -12.107475   -8.150389    0.001890
  27 C     6.0000    0    12.011   -5.417845   -3.632054   -0.075589
  28 C     6.0000    0    12.011   -3.118048   -4.958641   -0.051023
  29 C     6.0000    0    12.011    6.742543  -11.606698   -1.965315
  30 C     6.0000    0    12.011   -2.789236   -7.651501   -0.064251
  31 C     6.0000    0    12.011    5.296902   -7.745987   -0.015118
  32 C     6.0000    0    12.011    6.910728   -8.284559    2.020117
  33 C     6.0000    0    12.011    8.365818  -10.450186    2.001220
  34 C     6.0000    0    12.011    9.911614  -14.339242    0.026456
  35 C     6.0000    0    12.011   -0.253223   -8.154168   -0.041574
  36 C     6.0000    0    12.011    1.073364   -5.790121   -0.051023
  37 C     6.0000    0    12.011    5.243990   -9.471307   -2.029566
  38 N     7.0000    0    14.007    8.269442  -12.077240    0.032125
  39 C     6.0000    0    12.011    3.701973   -5.421624   -0.017008
  40 C     6.0000    0    12.011    4.952972   -3.065136    0.017008
  41 C     6.0000    0    12.011   10.474752    8.199522   -2.135391
  42 C     6.0000    0    12.011    7.691185   -2.794905   -0.177634
  43 C     6.0000    0    12.011    7.755436    5.198637   -0.039684
  44 C     6.0000    0    12.011    9.499653    5.157063    1.957756
  45 C     6.0000    0    12.011   11.652051    6.631049    1.848152
  46 C     6.0000    0    12.011   14.397823    9.737759   -0.217319
  47 C     6.0000    0    12.011    8.165507   -0.279679   -0.173855
  48 C     6.0000    0    12.011    5.716422    0.971319    0.028346
  49 C     6.0000    0    12.011    8.290229    6.768999   -2.107045
  50 C     6.0000    0    12.011    5.415955    3.620715    0.024566
  51 N     7.0000    0    14.007   12.118814    8.118263   -0.179524
  52 H     1.0000    0     1.008  -10.293338   10.484201    3.101041
  53 H     1.0000    0     1.008    4.297237    9.006435    0.153068
  54 H     1.0000    0     1.008   -3.346705    9.614927   -2.989547
  55 H     1.0000    0     1.008   -6.084918   13.435953   -2.817582
  56 H     1.0000    0     1.008   -8.834470   15.796221    1.404067
  57 H     1.0000    0     1.008   -9.972085   15.136706   -1.710202
  58 H     1.0000    0     1.008  -11.644492   13.968856    0.976988
  59 H     1.0000    0     1.008   -0.627389    9.981533    0.130391
  60 H     1.0000    0     1.008   -7.725200    6.547901    3.178519
  61 H     1.0000    0     1.008    0.343930    2.025786    0.009449
  62 H     1.0000    0     1.008   -0.345820   -2.040904   -0.039684
  63 H     1.0000    0     1.008  -11.081354   -9.376821    3.581031
  64 H     1.0000    0     1.008   -9.059347    4.293458    0.262672
  65 H     1.0000    0     1.008   -9.070685   -4.081808   -3.768114
  66 H     1.0000    0     1.008  -12.927616   -6.768999   -3.577252
  67 H     1.0000    0     1.008  -15.926612   -8.571798    1.031790
  68 H     1.0000    0     1.008  -15.034661  -10.085468   -1.853821
  69 H     1.0000    0     1.008  -14.089798  -11.408277    1.103600
  70 H     1.0000    0     1.008   -9.990982   -0.650066    0.188973
  71 H     1.0000    0     1.008   -7.143165   -6.804904    3.679297
  72 H     1.0000    0     1.008    6.778448  -12.978639   -3.482765
  73 H     1.0000    0     1.008   -4.301017   -9.021553   -0.094486
  74 H     1.0000    0     1.008    7.018443   -7.037340    3.639613
  75 H     1.0000    0     1.008    9.622485  -10.950963    3.535678
  76 H     1.0000    0     1.008   11.725751  -13.849803   -0.829590
  77 H     1.0000    0     1.008   10.191293  -14.960962    1.969095
  78 H     1.0000    0     1.008    8.993207  -15.822677   -1.065806
  79 H     1.0000    0     1.008    0.621720   -9.996651   -0.015118
  80 H     1.0000    0     1.008    4.055352   -9.150054   -3.666069
  81 H     1.0000    0     1.008   10.975529    9.422175   -3.696304
  82 H     1.0000    0     1.008    9.048009   -4.310465   -0.349599
  83 H     1.0000    0     1.008    9.184069    3.994881    3.613156
  84 H     1.0000    0     1.008   13.041000    6.672623    3.348595
  85 H     1.0000    0     1.008   13.951848   11.544337    0.672743
  86 H     1.0000    0     1.008   15.900156    8.791006    0.822031
  87 H     1.0000    0     1.008   14.968521   10.034446   -2.173185
  88 H     1.0000    0     1.008    9.983423    0.634948   -0.338261
  89 H     1.0000    0     1.008    7.029781    6.863485   -3.717091

--------------------------------
INTERNAL COORDINATES (ANGSTROEM)
--------------------------------
 C      0   0   0     0.000000000000     0.00000000     0.00000000
 C      1   0   0     6.307007531310     0.00000000     0.00000000
 C      1   2   0     2.413135719349    26.18857143     0.00000000
 C      3   1   2     1.403751046304    87.92045320   286.16470347
 C      4   3   1     1.380333293085   120.12476824     0.12514290
 C      5   4   3     2.447773478082   152.53829778     1.65934125
 C      2   1   3     1.368114030335     8.15797465    46.09987965
 C      7   2   3     1.434084376876   108.05010202     0.84668783
 C      2   1   3     1.434123425651   109.51157125   323.80423714
 C      1   2   7     1.381234592674    44.39932328    89.84905784
 N      1   2   7     1.352145702208    83.52090928   301.29566153
 N      9   2   1     1.376127174356   106.58526707     7.75120224
 N     12   9   2     2.925062050624   168.53581413   171.12065651
 N     13  12   9     2.954513327098    91.55032014    11.12112580
 N     14  13  12     2.925371258490    88.43092389   359.84326247
 C      8   7   2     1.404790019896   127.24786865   181.11170171
 C     13  12   9     1.366535034311    81.72106996   188.00453233
 C     14  13  12     5.758810554272    80.56209567   166.76250791
 C     17  13  12     1.459010623676   111.08861209   183.82872609
 C     18  14  13     2.412235892279    27.27532823    36.33507194
 C     20  18  14     1.402692767501    87.95206320   148.94598259
 C     21  20  18     1.382106725257   120.14573887   359.70382047
 C     18  14  13     2.446510985056   144.15733107    82.80075377
 C     19  17  13     1.353610726908   106.29293361   359.75308708
 C     13  12   9     1.366813447402   172.21332906    33.46711076
 C     18  14  13     1.380960173213    15.08449437   309.23336894
 N     22  21  20     1.352773077792   120.73759875     0.27865223
 C     25  13  17     1.410897586645   125.60330303   182.37774668
 C     14  13  12     1.376642291955    80.24689249   177.85461986
 C     14  13  12     5.764089607215   164.51507311   312.20821879
 C     29  14  13     1.435600919476   106.58649366   178.76395472
 C     30  14  13     2.413316804732    27.10625047    82.12560436
 C     32  30  14     1.403734305344    87.90059683   149.76154742
 C     33  32  30     1.380694028378   120.14881443   359.74174632
 C     34  33  32     2.448777858443   152.49203239     2.45173620
 C     31  29  14     1.368160809262   108.16950133     0.70383075
 C     14  13  12     1.376239804685   169.26375223   353.09862627
 C     30  14  13     1.380907310430    14.68948582   353.70041132
 N     34  33  32     1.352658863128   120.85575621     0.19603406
 C     37  14  29     1.404717053360   126.01551127   180.90772073
 C     15  14  13     1.366491126938    81.61824056   183.09049352
 C      2   1   3     4.249062720177   161.84170559   117.56385510
 C     41  15  14     1.459677704153   111.05201287   175.08990246
 C     42   2   1     2.412953791518    41.78584867   181.02338243
 C     44  42   2     1.403446472082    87.95153797   233.97558675
 C     45  44  42     1.381696421071   120.11137308     0.19721020
 C     42   2   1     2.450019795838   135.97209175    91.33823154
 C     43  41  15     1.354461516618   106.26758155     0.30894352
 C     15  14  13     1.367461151185   171.87382904   332.35056460
 C     42   2   1     1.381886391857    32.59078432   229.87866163
 C      9   2   1     1.404988612053   126.98745415   188.75553977
 N     42   2   1     1.352765315936   113.57249190   119.07482073
 H      1   2   7     1.083087254103   149.14881693   167.94881550
 H      2   1   3     1.079907866440   124.65904634   152.59007833
 H      4   3   1     1.083072481416   121.07682003   179.54941604
 H      5   4   3     1.082534064129   122.83012481   179.44042899
 H      6   5   4     1.092456406453   104.45856052   100.06590416
 H      6   5   4     1.089978898878    84.70553645   209.49244611
 H      6   5   4     1.089140486806   133.87689144   322.31856010
 H      7   2  54     1.079807853278   126.66122480     1.30600390
 H     10   1   2     1.083462966603   118.78539377   143.73740344
 H     12   9   2     1.016297692608   125.29023241   180.00180175
 H     14  13  12     1.014936943854    44.97226959   359.42596618
 H     18  14  13     1.082871645210   128.03556573   234.20482432
 H     19  17  13     1.080893611786   126.41830519   178.11313280
 H     21  20  18     1.083569563987   121.05669627   180.67006309
 H     22  21  20     1.082483256222   122.73097286   180.59748951
 H     23  18  14     1.092105306278   103.92715769   234.93429879
 H     23  18  14     1.088871893291   134.19244188    12.25587044
 H     23  18  14     1.089833473518    84.85857450   125.45241208
 H     24  19  17     1.080075460327   127.28078426   178.44613241
 H     26  18  14     1.083408048706   118.76995697   244.94906660
 H     30  14  13     1.082703098730   127.99711412   279.66882698
 H     31  29  14     1.079759695488   125.22293469   180.92530585
 H     33  32  30     1.083188810873   121.01964473   180.74284758
 H     34  33  32     1.082494341787   122.70821597   180.59516895
 H     35  34  33     1.092652735319   105.73575241    97.19771933
 H     35  34  33     1.089462711615    84.05943581   206.43036958
 H     35  34  33     1.089268102902   133.08365142   318.50306270
 H     36  31  29     1.079439669458   126.61599965   178.98859863
 H     38  30  73     1.083742127999   118.77264435   359.90091293
 H     42   2   1     1.082178358682   119.31790784   335.70635118
 H     43  41  15     1.080281907652   126.36969097   182.06329380
 H     45  44  42     1.083277434455   121.10105945   179.58025624
 H     46  45  44     1.082194529648   122.72144639   179.46906377
 H     47  42   2     1.091546151109   106.65128841   315.16475048
 H     47  42   2     1.088818625851   132.46019523    94.52397119
 H     47  42   2     1.089531091801    83.63838232   206.04504406
 H     48  43  41     1.080402239909   127.23657387   181.62955349
 H     50  42   2     1.083186502870   118.77001737    94.71359229

---------------------------
INTERNAL COORDINATES (A.U.)
---------------------------
 C      0   0   0     0.000000000000     0.00000000     0.00000000
 C      1   0   0    11.918516958755     0.00000000     0.00000000
 C      1   2   0     4.560165633553    26.18857143     0.00000000
 C      3   1   2     2.652705037720    87.92045320   286.16470347
 C      4   3   1     2.608451897465   120.12476824     0.12514290
 C      5   4   3     4.625621511450   152.53829778     1.65934125
 C      2   1   3     2.585360837309     8.15797465    46.09987965
 C      7   2   3     2.710026725231   108.05010202     0.84668783
 C      2   1   3     2.710100516721   109.51157125   323.80423714
 C      1   2   7     2.610155106853    44.39932328    89.84905784
 N      1   2   7     2.555185070332    83.52090928   301.29566153
 N      9   2   1     2.600503484979   106.58526707     7.75120224
 N     12   9   2     5.527566200405   168.53581413   171.12065651
 N     13  12   9     5.583221047236    91.55032014    11.12112580
 N     14  13  12     5.528150518591    88.43092389   359.84326247
 C      8   7   2     2.654668413270   127.24786865   181.11170171
 C     13  12   9     2.582376967257    81.72106996   188.00453233
 C     14  13  12    10.882574804710    80.56209567   166.76250791
 C     17  13  12     2.757130505230   111.08861209   183.82872609
 C     18  14  13     4.558465206823    27.27532823    36.33507194
 C     20  18  14     2.650705180609    87.95206320   148.94598259
 C     21  20  18     2.611803198586   120.14573887   359.70382047
 C     18  14  13     4.623235745386   144.15733107    82.80075377
 C     19  17  13     2.557953565794   106.29293361   359.75308708
 C     13  12   9     2.582903091751   172.21332906    33.46711076
 C     18  14  13     2.609636529225    15.08449437   309.23336894
 N     22  21  20     2.556370638369   120.73759875     0.27865223
 C     25  13  17     2.666210041769   125.60330303   182.37774668
 C     14  13  12     2.601476916169    80.24689249   177.85461986
 C     14  13  12    10.892550769017   164.51507311   312.20821879
 C     29  14  13     2.712892575415   106.58649366   178.76395472
 C     30  14  13     4.560507835333    27.10625047    82.12560436
 C     32  30  14     2.652673401891    87.90059683   149.76154742
 C     33  32  30     2.609133588376   120.14881443   359.74174632
 C     34  33  32     4.627519515267   152.49203239     2.45173620
 C     31  29  14     2.585449236669   108.16950133     0.70383075
 C     14  13  12     2.600716325456   169.26375223   353.09862627
 C     30  14  13     2.609536633043    14.68948582   353.70041132
 N     34  33  32     2.556154803934   120.85575621     0.19603406
 C     37  14  29     2.654530526499   126.01551127   180.90772073
 C     15  14  13     2.582293994346    81.61824056   183.09049352
 C      2   1   3     8.029564866989   161.84170559   117.56385510
 C     41  15  14     2.758391104639   111.05201287   175.08990246
 C     42   2   1     4.559821839776    41.78584867   181.02338243
 C     44  42   2     2.652129475853    87.95153797   233.97558675
 C     45  44  42     2.611027836043   120.11137308     0.19721020
 C     42   2   1     4.629866436820   135.97209175    91.33823154
 C     43  41  15     2.559561325344   106.26758155     0.30894352
 C     15  14  13     2.584127074516   171.87382904   332.35056460
 C     42   2   1     2.611386828803    32.59078432   229.87866163
 C      9   2   1     2.655043698059   126.98745415   188.75553977
 N     42   2   1     2.556355970587   113.57249190   119.07482073
 H      1   2   7     2.046738289395   149.14881693   167.94881550
 H      2   1   3     2.040730117440   124.65904634   152.59007833
 H      4   3   1     2.046710373062   121.07682003   179.54941604
 H      5   4   3     2.045692911845   122.83012481   179.44042899
 H      6   5   4     2.064443421444   104.45856052   100.06590416
 H      6   5   4     2.059761610633    84.70553645   209.49244611
 H      6   5   4     2.058177241429   133.87689144   322.31856010
 H      7   2  54     2.040541119952   126.66122480     1.30600390
 H     10   1   2     2.047448283125   118.78539377   143.73740344
 H     12   9   2     1.920524309565   125.29023241   180.00180175
 H     14  13  12     1.917952867083    44.97226959   359.42596618
 H     18  14  13     2.046330847636   128.03556573   234.20482432
 H     19  17  13     2.042592906181   126.41830519   178.11313280
 H     21  20  18     2.047649722989   121.05669627   180.67006309
 H     22  21  20     2.045596898814   122.73097286   180.59748951
 H     23  18  14     2.063779938267   103.92715769   234.93429879
 H     23  18  14     2.057669673245   134.19244188    12.25587044
 H     23  18  14     2.059486796529    84.85857450   125.45241208
 H     24  19  17     2.041046823986   127.28078426   178.44613241
 H     26  18  14     2.047344503340   118.76995697   244.94906660
 H     30  14  13     2.046012340948   127.99711412   279.66882698
 H     31  29  14     2.040450114918   125.22293469   180.92530585
 H     33  32  30     2.046930203877   121.01964473   180.74284758
 H     34  33  32     2.045617847496   122.70821597   180.59516895
 H     35  34  33     2.064814429233   105.73575241    97.19771933
 H     35  34  33     2.058786158072    84.05943581   206.43036958
 H     35  34  33     2.058418400901   133.08365142   318.50306270
 H     36  31  29     2.039845353366   126.61599965   178.98859863
 H     38  30  73     2.047975821711   118.77264435   359.90091293
 H     42   2   1     2.045020725966   119.31790784   335.70635118
 H     43  41  15     2.041436952892   126.36969097   182.06329380
 H     45  44  42     2.047097678177   121.10105945   179.58025624
 H     46  45  44     2.045051284662   122.72144639   179.46906377
 H     47  42   2     2.062723288131   106.65128841   315.16475048
 H     47  42   2     2.057569012371   132.46019523    94.52397119
 H     47  42   2     2.058915377895    83.63838232   206.04504406
 H     48  43  41     2.041664347903   127.23657387   181.62955349
 H     50  42   2     2.046925842384   118.77001737    94.71359229

---------------------
BASIS SET INFORMATION
---------------------
There are 3 groups of distinct atoms

 Group   1 Type C   : 17s4p1d contracted to 3s2p1d pattern {881/31/1}
 Group   2 Type N   : 17s4p1d contracted to 3s2p1d pattern {881/31/1}
 Group   3 Type H   : 4s1p contracted to 2s1p pattern {31/1}

Atom   0C    basis set group =>   1
Atom   1N    basis set group =>   2
Atom   2C    basis set group =>   1
Atom   3N    basis set group =>   2
Atom   4C    basis set group =>   1
Atom   5N    basis set group =>   2
Atom   6C    basis set group =>   1
Atom   7N    basis set group =>   2
Atom   8C    basis set group =>   1
Atom   9N    basis set group =>   2
Atom  10C    basis set group =>   1
Atom  11N    basis set group =>   2
Atom  12C    basis set group =>   1
Atom  13N    basis set group =>   2
Atom  14C    basis set group =>   1
Atom  15N    basis set group =>   2
Atom  16C    basis set group =>   1
Atom  17C    basis set group =>   1
Atom  18C    basis set group =>   1
Atom  19C    basis set group =>   1
Atom  20C    basis set group =>   1
Atom  21C    basis set group =>   1
Atom  22C    basis set group =>   1
Atom  23C    basis set group =>   1
Atom  24C    basis set group =>   1
Atom  25C    basis set group =>   1
Atom  26C    basis set group =>   1
Atom  27C    basis set group =>   1
Atom  28C    basis set group =>   1
Atom  29C    basis set group =>   1
Atom  30C    basis set group =>   1
Atom  31C    basis set group =>   1
Atom  32C    basis set group =>   1
Atom  33C    basis set group =>   1
Atom  34C    basis set group =>   1
Atom  35C    basis set group =>   1
Atom  36C    basis set group =>   1
Atom  37C    basis set group =>   1
Atom  38C    basis set group =>   1
Atom  39C    basis set group =>   1
Atom  40C    basis set group =>   1
Atom  41C    basis set group =>   1
Atom  42C    basis set group =>   1
Atom  43C    basis set group =>   1
Atom  44C    basis set group =>   1
Atom  45C    basis set group =>   1
Atom  46C    basis set group =>   1
Atom  47C    basis set group =>   1
Atom  48C    basis set group =>   1
Atom  49C    basis set group =>   1
Atom  50C    basis set group =>   1
Atom  51C    basis set group =>   1
Atom  52H    basis set group =>   3
Atom  53H    basis set group =>   3
Atom  54H    basis set group =>   3
Atom  55H    basis set group =>   3
Atom  56H    basis set group =>   3
Atom  57H    basis set group =>   3
Atom  58H    basis set group =>   3
Atom  59H    basis set group =>   3
Atom  60H    basis set group =>   3
Atom  61H    basis set group =>   3
Atom  62H    basis set group =>   3
Atom  63H    basis set group =>   3
Atom  64H    basis set group =>   3
Atom  65H    basis set group =>   3
Atom  66H    basis set group =>   3
Atom  67H    basis set group =>   3
Atom  68H    basis set group =>   3
Atom  69H    basis set group =>   3
Atom  70H    basis set group =>   3
Atom  71H    basis set group =>   3
Atom  72H    basis set group =>   3
Atom  73H    basis set group =>   3
Atom  74H    basis set group =>   3
Atom  75H    basis set group =>   3
Atom  76H    basis set group =>   3
Atom  77H    basis set group =>   3
Atom  78H    basis set group =>   3
Atom  79H    basis set group =>   3
Atom  80H    basis set group =>   3
Atom  81H    basis set group =>   3
Atom  82H    basis set group =>   3
Atom  83H    basis set group =>   3
Atom  84H    basis set group =>   3
Atom  85H    basis set group =>   3
Atom  86H    basis set group =>   3
Atom  87H    basis set group =>   3
Atom  88H    basis set group =>   3
Atom  89H    basis set group =>   3


           ************************************************************
           *        Program running with 16 parallel MPI-processes    *
           *              working on a common directory               *
           ************************************************************
------------------------------------------------------------------------------
                           ORCA GTO INTEGRAL CALCULATION
------------------------------------------------------------------------------
------------------------------------------------------------------------------
                   ___                                                        
                  /   \      - P O W E R E D   B Y -                         
                 /     \                                                     
                 |  |  |   _    _      __       _____    __    __             
                 |  |  |  | |  | |    /  \     |  _  \  |  |  /  |          
                  \  \/   | |  | |   /    \    | | | |  |  | /  /          
                 / \  \   | |__| |  /  /\  \   | |_| |  |  |/  /          
                |  |  |   |  __  | /  /__\  \  |    /   |      \           
                |  |  |   | |  | | |   __   |  |    \   |  |\   \          
                \     /   | |  | | |  |  |  |  | |\  \  |  | \   \       
                 \___/    |_|  |_| |__|  |__|  |_| \__\ |__|  \__/        
                                                                              
                      - O R C A' S   B I G   F R I E N D -                    
                                      &                                       
                       - I N T E G R A L  F E E D E R -                       
                                                                              
 v1 FN, 2020, v2 2021                                                         
------------------------------------------------------------------------------


Reading SHARK input file /scratch/allen/tmpyp4_amber_gaff2/conf1/conf1/Conf231.orca.SHARKINP.tmp ... ok
----------------------
SHARK INTEGRAL PACKAGE
----------------------

Number of atoms                             ...     90
Number of basis functions                   ...   1230
Number of shells                            ...    738
Maximum angular momentum                    ...      2
Integral batch strategy                     ... SHARK/LIBINT Hybrid
RI-J (if used) integral strategy            ... SPLIT-RIJ (Revised 2003 algorithm where possible)
Printlevel                                  ...      1
Contraction scheme used                     ... PARTIAL GENERAL contraction
Coulomb Range Separation                    ... NOT USED
Exchange Range Separation                   ... NOT USED
Finite Nucleus Model                        ... NOT USED
Auxiliary Coulomb fitting basis             ... NOT available
Auxiliary J/K fitting basis                 ... NOT available
Auxiliary Correlation fitting basis         ... NOT available
Auxiliary 'external' fitting basis          ... NOT available
Integral threshold                          ...     2.500000e-11
Primitive cut-off                           ...     2.500000e-12
Primitive pair pre-selection threshold      ...     2.500000e-12

Calculating pre-screening integrals         ... done (  0.1 sec) Dimension = 738
Calculating pre-screening integrals (ORCA)  ... done (  0.3 sec) Dimension = 426
Organizing shell pair data                  ... done (  0.7 sec)
Shell pair information
Total number of shell pairs                 ...    272691
Shell pairs after pre-screening             ...     71622
Total number of primitive shell pairs       ...    422091
Primitive shell pairs kept                  ...     92408
          la=0 lb=0:  29420 shell pairs
          la=1 lb=0:  25974 shell pairs
          la=1 lb=1:   4705 shell pairs
          la=2 lb=0:   7869 shell pairs
          la=2 lb=1:   3124 shell pairs
          la=2 lb=2:    530 shell pairs

Calculating one electron integrals          ... done (  0.2 sec)
Calculating Nuclear repulsion               ... done (  0.0 sec) ENN=   6226.929385240851 Eh

SHARK setup successfully completed in   2.3 seconds

Maximum memory used throughout the entire GTOINT-calculation: 99.0 MB


           ************************************************************
           *        Program running with 16 parallel MPI-processes    *
           *              working on a common directory               *
           ************************************************************
-------------------------------------------------------------------------------
                                 ORCA SCF
-------------------------------------------------------------------------------

------------
SCF SETTINGS
------------
Hamiltonian:
 Ab initio Hamiltonian  Method          .... Hartree-Fock(GTOs)


General Settings:
 Integral files         IntName         .... /scratch/allen/tmpyp4_amber_gaff2/conf1/conf1/Conf231.orca
 Hartree-Fock type      HFTyp           .... RHF
 Total Charge           Charge          ....    0
 Multiplicity           Mult            ....    1
 Number of Electrons    NEL             ....  358
 Basis Dimension        Dim             ....  918
 Nuclear Repulsion      ENuc            ....   6226.9293852409 Eh

Convergence Acceleration:
 DIIS                   CNVDIIS         .... on
   Start iteration      DIISMaxIt       ....    12
   Startup error        DIISStart       ....  0.200000
   # of expansion vecs  DIISMaxEq       ....     5
   Bias factor          DIISBfac        ....   1.050
   Max. coefficient     DIISMaxC        ....  10.000
 Trust-Rad. Augm. Hess. CNVTRAH         .... auto
   Auto Start mean grad. ratio tolernc. ....  1.125000
   Auto Start start iteration           ....    20
   Auto Start num. interpolation iter.  ....    10
   Max. Number of Micro iterations      ....    16
   Max. Number of Macro iterations      .... Maxiter - #DIIS iter
   Number of Davidson start vectors     ....     2
   Converg. threshold I  (grad. norm)   ....   1.000e-05
   Converg. threshold II (energy diff.) ....   1.000e-08
   Grad. Scal. Fac. for Micro threshold ....   0.100
   Minimum threshold for Micro iter.    ....   0.010
   NR start threshold (gradient norm)   ....   0.001
   Initial trust radius                 ....   0.400
   Minimum AH scaling param. (alpha)    ....   1.000
   Maximum AH scaling param. (alpha)    .... 1000.000
   Orbital update algorithm             .... Taylor
   White noise on init. David. guess    .... on
   Maximum white noise                  ....   0.010
   Quad. conv. algorithm                .... NR
 SOSCF                  CNVSOSCF        .... on
   Start iteration      SOSCFMaxIt      ....   150
   Startup grad/error   SOSCFStart      ....  0.003300
 Level Shifting         CNVShift        .... on
   Level shift para.    LevelShift      ....    0.2500
   Turn off err/grad.   ShiftErr        ....    0.0010
 Zerner damping         CNVZerner       .... off
 Static damping         CNVDamp         .... on
   Fraction old density DampFac         ....    0.7000
   Max. Damping (<1)    DampMax         ....    0.9800
   Min. Damping (>=0)   DampMin         ....    0.0000
   Turn off err/grad.   DampErr         ....    0.1000
 Fernandez-Rico         CNVRico         .... off

SCF Procedure:
 Maximum # iterations   MaxIter         ....   125
 SCF integral mode      SCFMode         .... Direct
   Integral package                     .... SHARK and LIBINT hybrid scheme
 Reset frequency        DirectResetFreq ....    20
 Integral Threshold     Thresh          ....  2.500e-11 Eh
 Primitive CutOff       TCut            ....  2.500e-12 Eh

Convergence Tolerance:
 Convergence Check Mode ConvCheckMode   .... Total+1el-Energy
 Convergence forced     ConvForced      .... 1
 Energy Change          TolE            ....  1.000e-08 Eh
 1-El. energy change                    ....  1.000e-05 Eh
 Orbital Gradient       TolG            ....  1.000e-05
 Orbital Rotation angle TolX            ....  1.000e-05
 DIIS Error             TolErr          ....  5.000e-07


Diagonalization of the overlap matrix:
Smallest eigenvalue                        ... 2.240e-04
Time for diagonalization                   ...    0.483 sec
Threshold for overlap eigenvalues          ... 1.000e-08
Number of eigenvalues below threshold      ... 0
Time for construction of square roots      ...    0.268 sec
Total time needed                          ...    0.758 sec

Time for model grid setup =    1.294 sec

------------------------------
INITIAL GUESS: MODEL POTENTIAL
------------------------------
Loading Hartree-Fock densities                     ... done
Calculating cut-offs                               ... done
Initializing the effective Hamiltonian             ... done
Setting up the integral package (SHARK)            ... done
Starting the Coulomb interaction                   ... done (   1.4 sec)
Reading the grid                                   ... done
Mapping shells                                     ... done
Starting the XC term evaluation                    ... done (   0.2 sec)
Transforming the Hamiltonian                       ... done (   0.3 sec)
Diagonalizing the Hamiltonian                      ... done (   0.4 sec)
Back transforming the eigenvectors                 ... done (   0.1 sec)
Now organizing SCF variables                       ... done
                      ------------------
                      INITIAL GUESS DONE (   3.8 sec)
                      ------------------
--------------
SCF ITERATIONS
--------------
ITER       Energy         Delta-E        Max-DP      RMS-DP      [F,P]     Damp
               ***  Starting incremental Fock matrix formation  ***
  0  -2121.6799537584   0.000000000000 0.06889516  0.00121141  0.2328281 0.7000
  1  -2122.3427601575  -0.662806399177 0.05224705  0.00098411  0.1440862 0.7000
                               ***Turning on DIIS***
  2  -2122.7544001697  -0.411640012164 0.11596740  0.00223011  0.0802400 0.0000
  3  -2117.7774442874   4.976955882275 0.03056492  0.00068212  0.0441853 0.0000
  4  -2123.4172529966  -5.639808709153 0.00931738  0.00022849  0.0070645 0.0000
  5  -2123.5925700363  -0.175317039695 0.00521286  0.00013502  0.0049385 0.0000
  6  -2123.5758081770   0.016761859266 0.00344366  0.00008730  0.0019702 0.0000
  7  -2123.6795759171  -0.103767740113 0.00290541  0.00006877  0.0015177 0.0000
  8  -2123.6962390502  -0.016663133027 0.00291428  0.00006448  0.0014156 0.0000
  9  -2123.6615117683   0.034727281893 0.00233243  0.00004396  0.0011218 0.0000
 10  -2123.6746554448  -0.013143676570 0.00476672  0.00008691  0.0008581 0.0000
                      *** Initiating the SOSCF procedure ***
                           *** Shutting down DIIS ***
                      *** Re-Reading the Fockian *** 
                      *** Removing any level shift *** 
ITER      Energy       Delta-E        Grad      Rot      Max-DP    RMS-DP
 11  -2123.55933866   0.1153167837  0.000294  0.000294  0.000280  0.000006
               *** Restarting incremental Fock matrix formation ***
 12  -2123.62451174  -0.0651730810  0.000935  0.006327  0.001139  0.000028
 13  -2123.62458214  -0.0000703955  0.001016  0.027115  0.004812  0.000098
 14  -2123.62467992  -0.0000977861  0.000447  0.002077  0.000548  0.000011
 15  -2123.62469297  -0.0000130455  0.000162  0.002663  0.000820  0.000013
 16  -2123.62469972  -0.0000067501  0.000123  0.003955  0.000741  0.000015
 17  -2123.62470385  -0.0000041346  0.000137  0.003068  0.000491  0.000011
 18  -2123.62470597  -0.0000021200  0.000067  0.001663  0.000246  0.000006
 19  -2123.62470713  -0.0000011565  0.000062  0.000637  0.000181  0.000004
 20  -2123.62470752  -0.0000003902  0.000030  0.000549  0.000142  0.000002
 21  -2123.62470769  -0.0000001668  0.000023  0.000275  0.000069  0.000001
 22  -2123.62470779  -0.0000000985  0.000018  0.000460  0.000113  0.000002
 23  -2123.62470786  -0.0000000769  0.000011  0.000211  0.000053  0.000001
 24  -2123.62470789  -0.0000000225  0.000006  0.000152  0.000035  0.000001
 25  -2123.62470790  -0.0000000157  0.000005  0.000089  0.000024  0.000000
 26  -2123.62470791  -0.0000000090  0.000003  0.000073  0.000018  0.000000
                  ***Gradient check signals convergence***
              ***Rediagonalizing the Fockian in SOSCF/NRSCF***

               *****************************************************
               *                     SUCCESS                       *
               *           SCF CONVERGED AFTER  27 CYCLES          *
               *****************************************************


----------------
TOTAL SCF ENERGY
----------------

Total Energy       :        -2123.62470791 Eh          -57786.76612 eV

Components:
Nuclear Repulsion  :         6226.92938524 Eh          169443.36291 eV
Electronic Energy  :        -8350.55409316 Eh         -227230.12903 eV
One Electron Energy:       -15294.87471147 Eh         -416194.69983 eV
Two Electron Energy:         6944.32061832 Eh          188964.57080 eV

Virial components:
Potential Energy   :        -4245.65920516 Eh         -115530.26042 eV
Kinetic Energy     :         2122.03449724 Eh           57743.49429 eV
Virial Ratio       :            2.00074938


---------------
SCF CONVERGENCE
---------------

  Last Energy change         ...   -4.3983e-09  Tolerance :   1.0000e-08
  Last MAX-Density change    ...    1.7001e-05  Tolerance :   1.0000e-07
  Last RMS-Density change    ...    3.1918e-07  Tolerance :   5.0000e-09
  Last Orbital Gradient      ...    2.3962e-06  Tolerance :   1.0000e-05
  Last Orbital Rotation      ...    8.6870e-05  Tolerance :   1.0000e-05

             **** THE GBW FILE WAS UPDATED (/scratch/allen/tmpyp4_amber_gaff2/conf1/conf1/Conf231.orca.gbw) ****
             **** DENSITY /scratch/allen/tmpyp4_amber_gaff2/conf1/conf1/Conf231.orca.scfp WAS UPDATED ****
             **** ENERGY FILE WAS UPDATED (/scratch/allen/tmpyp4_amber_gaff2/conf1/conf1/Conf231.orca.en.tmp) ****
             **** THE GBW FILE WAS UPDATED (/scratch/allen/tmpyp4_amber_gaff2/conf1/conf1/Conf231.orca.gbw) ****
             **** DENSITY /scratch/allen/tmpyp4_amber_gaff2/conf1/conf1/Conf231.orca.scfp WAS UPDATED ****
----------------
ORBITAL ENERGIES
----------------

  NO   OCC          E(Eh)            E(eV) 
   0   2.0000     -15.651469      -425.8981 
   1   2.0000     -15.637828      -425.5269 
   2   2.0000     -15.629511      -425.3006 
   3   2.0000     -15.611195      -424.8022 
   4   2.0000     -15.521165      -422.3524 
   5   2.0000     -15.516332      -422.2208 
   6   2.0000     -15.447176      -420.3390 
   7   2.0000     -15.443353      -420.2350 
   8   2.0000     -11.310382      -307.7711 
   9   2.0000     -11.306150      -307.6560 
  10   2.0000     -11.304001      -307.5975 
  11   2.0000     -11.301670      -307.5341 
  12   2.0000     -11.296655      -307.3976 
  13   2.0000     -11.294540      -307.3401 
  14   2.0000     -11.291521      -307.2579 
  15   2.0000     -11.287350      -307.1444 
  16   2.0000     -11.285920      -307.1055 
  17   2.0000     -11.285795      -307.1021 
  18   2.0000     -11.273074      -306.7559 
  19   2.0000     -11.272134      -306.7304 
  20   2.0000     -11.255313      -306.2726 
  21   2.0000     -11.243267      -305.9449 
  22   2.0000     -11.242368      -305.9204 
  23   2.0000     -11.241191      -305.8884 
  24   2.0000     -11.234078      -305.6948 
  25   2.0000     -11.233686      -305.6841 
  26   2.0000     -11.232906      -305.6629 
  27   2.0000     -11.227654      -305.5200 
  28   2.0000     -11.227505      -305.5159 
  29   2.0000     -11.219488      -305.2978 
  30   2.0000     -11.214306      -305.1568 
  31   2.0000     -11.212710      -305.1133 
  32   2.0000     -11.203705      -304.8683 
  33   2.0000     -11.203088      -304.8515 
  34   2.0000     -11.192806      -304.5717 
  35   2.0000     -11.192303      -304.5580 
  36   2.0000     -11.178201      -304.1743 
  37   2.0000     -11.176755      -304.1350 
  38   2.0000     -11.176429      -304.1261 
  39   2.0000     -11.172363      -304.0155 
  40   2.0000     -11.168151      -303.9008 
  41   2.0000     -11.167603      -303.8859 
  42   2.0000     -11.166211      -303.8481 
  43   2.0000     -11.164019      -303.7884 
  44   2.0000     -11.163936      -303.7862 
  45   2.0000     -11.161947      -303.7320 
  46   2.0000     -11.151296      -303.4422 
  47   2.0000     -11.149136      -303.3834 
  48   2.0000     -11.148176      -303.3573 
  49   2.0000     -11.146345      -303.3075 
  50   2.0000     -11.139518      -303.1217 
  51   2.0000     -11.134942      -302.9972 
  52   2.0000      -1.336235       -36.3608 
  53   2.0000      -1.324482       -36.0410 
  54   2.0000      -1.317410       -35.8486 
  55   2.0000      -1.302651       -35.4469 
  56   2.0000      -1.220379       -33.2082 
  57   2.0000      -1.212150       -32.9843 
  58   2.0000      -1.164515       -31.6881 
  59   2.0000      -1.156277       -31.4639 
  60   2.0000      -1.123196       -30.5637 
  61   2.0000      -1.112685       -30.2777 
  62   2.0000      -1.106721       -30.1154 
  63   2.0000      -1.094808       -29.7912 
  64   2.0000      -1.059595       -28.8331 
  65   2.0000      -1.048397       -28.5283 
  66   2.0000      -1.042076       -28.3563 
  67   2.0000      -1.029243       -28.0071 
  68   2.0000      -1.029006       -28.0007 
  69   2.0000      -1.011666       -27.5288 
  70   2.0000      -1.009644       -27.4738 
  71   2.0000      -0.995625       -27.0923 
  72   2.0000      -0.984679       -26.7945 
  73   2.0000      -0.974912       -26.5287 
  74   2.0000      -0.971960       -26.4484 
  75   2.0000      -0.959433       -26.1075 
  76   2.0000      -0.951690       -25.8968 
  77   2.0000      -0.946226       -25.7481 
  78   2.0000      -0.938786       -25.5457 
  79   2.0000      -0.922997       -25.1160 
  80   2.0000      -0.895280       -24.3618 
  81   2.0000      -0.884759       -24.0755 
  82   2.0000      -0.875452       -23.8222 
  83   2.0000      -0.869530       -23.6611 
  84   2.0000      -0.862435       -23.4680 
  85   2.0000      -0.856336       -23.3021 
  86   2.0000      -0.848911       -23.1000 
  87   2.0000      -0.841354       -22.8944 
  88   2.0000      -0.822024       -22.3684 
  89   2.0000      -0.798741       -21.7349 
  90   2.0000      -0.797037       -21.6885 
  91   2.0000      -0.740860       -20.1598 
  92   2.0000      -0.733538       -19.9606 
  93   2.0000      -0.730040       -19.8654 
  94   2.0000      -0.721681       -19.6379 
  95   2.0000      -0.720410       -19.6033 
  96   2.0000      -0.712820       -19.3968 
  97   2.0000      -0.707370       -19.2485 
  98   2.0000      -0.700174       -19.0527 
  99   2.0000      -0.694196       -18.8900 
 100   2.0000      -0.688801       -18.7432 
 101   2.0000      -0.681316       -18.5395 
 102   2.0000      -0.679019       -18.4770 
 103   2.0000      -0.674102       -18.3433 
 104   2.0000      -0.670197       -18.2370 
 105   2.0000      -0.665877       -18.1194 
 106   2.0000      -0.664748       -18.0887 
 107   2.0000      -0.659638       -17.9497 
 108   2.0000      -0.657630       -17.8950 
 109   2.0000      -0.656339       -17.8599 
 110   2.0000      -0.652209       -17.7475 
 111   2.0000      -0.649167       -17.6647 
 112   2.0000      -0.646267       -17.5858 
 113   2.0000      -0.638697       -17.3798 
 114   2.0000      -0.635673       -17.2975 
 115   2.0000      -0.625474       -17.0200 
 116   2.0000      -0.624138       -16.9837 
 117   2.0000      -0.615282       -16.7427 
 118   2.0000      -0.612814       -16.6755 
 119   2.0000      -0.609931       -16.5971 
 120   2.0000      -0.609210       -16.5774 
 121   2.0000      -0.603248       -16.4152 
 122   2.0000      -0.595882       -16.2148 
 123   2.0000      -0.593220       -16.1423 
 124   2.0000      -0.591307       -16.0903 
 125   2.0000      -0.584020       -15.8920 
 126   2.0000      -0.579014       -15.7558 
 127   2.0000      -0.574241       -15.6259 
 128   2.0000      -0.567452       -15.4411 
 129   2.0000      -0.559617       -15.2280 
 130   2.0000      -0.553853       -15.0711 
 131   2.0000      -0.547895       -14.9090 
 132   2.0000      -0.541150       -14.7254 
 133   2.0000      -0.536442       -14.5973 
 134   2.0000      -0.534486       -14.5441 
 135   2.0000      -0.529119       -14.3981 
 136   2.0000      -0.526431       -14.3249 
 137   2.0000      -0.522837       -14.2271 
 138   2.0000      -0.520163       -14.1544 
 139   2.0000      -0.516495       -14.0545 
 140   2.0000      -0.510541       -13.8925 
 141   2.0000      -0.506835       -13.7917 
 142   2.0000      -0.505977       -13.7683 
 143   2.0000      -0.501293       -13.6409 
 144   2.0000      -0.500691       -13.6245 
 145   2.0000      -0.498368       -13.5613 
 146   2.0000      -0.495062       -13.4713 
 147   2.0000      -0.491276       -13.3683 
 148   2.0000      -0.489646       -13.3239 
 149   2.0000      -0.469569       -12.7776 
 150   2.0000      -0.461717       -12.5640 
 151   2.0000      -0.453480       -12.3398 
 152   2.0000      -0.448102       -12.1935 
 153   2.0000      -0.446869       -12.1599 
 154   2.0000      -0.446298       -12.1444 
 155   2.0000      -0.439689       -11.9645 
 156   2.0000      -0.435070       -11.8389 
 157   2.0000      -0.430384       -11.7114 
 158   2.0000      -0.394760       -10.7420 
 159   2.0000      -0.385646       -10.4940 
 160   2.0000      -0.377842       -10.2816 
 161   2.0000      -0.371830       -10.1180 
 162   2.0000      -0.368543       -10.0286 
 163   2.0000      -0.358970        -9.7681 
 164   2.0000      -0.353766        -9.6265 
 165   2.0000      -0.341120        -9.2824 
 166   2.0000      -0.337134        -9.1739 
 167   2.0000      -0.334597        -9.1049 
 168   2.0000      -0.328858        -8.9487 
 169   2.0000      -0.300242        -8.1700 
 170   2.0000      -0.298166        -8.1135 
 171   2.0000      -0.288332        -7.8459 
 172   2.0000      -0.286640        -7.7999 
 173   2.0000      -0.257268        -7.0006 
 174   2.0000      -0.247601        -6.7376 
 175   2.0000      -0.188800        -5.1375 
 176   2.0000      -0.178844        -4.8666 
 177   2.0000      -0.068996        -1.8775 
 178   2.0000      -0.055515        -1.5106 
 179   0.0000       0.030098         0.8190 
 180   0.0000       0.069917         1.9025 
 181   0.0000       0.092654         2.5212 
 182   0.0000       0.100242         2.7277 
 183   0.0000       0.125481         3.4145 
 184   0.0000       0.134905         3.6710 
 185   0.0000       0.140952         3.8355 
 186   0.0000       0.154022         4.1912 
 187   0.0000       0.155751         4.2382 
 188   0.0000       0.161259         4.3881 
 189   0.0000       0.163192         4.4407 
 190   0.0000       0.167214         4.5501 
 191   0.0000       0.176092         4.7917 
 192   0.0000       0.195458         5.3187 
 193   0.0000       0.198831         5.4105 
 194   0.0000       0.202956         5.5227 
 195   0.0000       0.206399         5.6164 
 196   0.0000       0.207179         5.6376 
 197   0.0000       0.210296         5.7224 
 198   0.0000       0.216197         5.8830 
 199   0.0000       0.219609         5.9759 
 200   0.0000       0.230379         6.2689 
 201   0.0000       0.237738         6.4692 
 202   0.0000       0.241385         6.5684 
 203   0.0000       0.248055         6.7499 
 204   0.0000       0.250474         6.8157 
 205   0.0000       0.254760         6.9324 
 206   0.0000       0.256395         6.9769 
 207   0.0000       0.258524         7.0348 
 208   0.0000       0.262711         7.1487 
 209   0.0000       0.264151         7.1879 
 210   0.0000       0.267067         7.2673 
 211   0.0000       0.269350         7.3294 
 212   0.0000       0.272055         7.4030 
 213   0.0000       0.274903         7.4805 
 214   0.0000       0.276932         7.5357 
 215   0.0000       0.279244         7.5986 
 216   0.0000       0.280103         7.6220 
 217   0.0000       0.283278         7.7084 
 218   0.0000       0.285483         7.7684 
 219   0.0000       0.288768         7.8578 
 220   0.0000       0.290386         7.9018 
 221   0.0000       0.291523         7.9327 
 222   0.0000       0.293949         7.9987 
 223   0.0000       0.295053         8.0288 
 224   0.0000       0.298843         8.1319 
 225   0.0000       0.300538         8.1781 
 226   0.0000       0.303828         8.2676 
 227   0.0000       0.308319         8.3898 
 228   0.0000       0.309889         8.4325 
 229   0.0000       0.314132         8.5480 
 230   0.0000       0.316911         8.6236 
 231   0.0000       0.321822         8.7572 
 232   0.0000       0.325245         8.8504 
 233   0.0000       0.329961         8.9787 
 234   0.0000       0.334541         9.1033 
 235   0.0000       0.340744         9.2721 
 236   0.0000       0.356208         9.6929 
 237   0.0000       0.385699        10.4954 
 238   0.0000       0.394613        10.7380 
 239   0.0000       0.399939        10.8829 
 240   0.0000       0.404841        11.0163 
 241   0.0000       0.415392        11.3034 
 242   0.0000       0.419773        11.4226 
 243   0.0000       0.425101        11.5676 
 244   0.0000       0.429301        11.6819 
 245   0.0000       0.430684        11.7195 
 246   0.0000       0.433565        11.7979 
 247   0.0000       0.439037        11.9468 
 248   0.0000       0.440801        11.9948 
 249   0.0000       0.443353        12.0642 
 250   0.0000       0.447655        12.1813 
 251   0.0000       0.455223        12.3873 
 252   0.0000       0.457771        12.4566 
 253   0.0000       0.464219        12.6321 
 254   0.0000       0.470830        12.8119 
 255   0.0000       0.474341        12.9075 
 256   0.0000       0.482530        13.1303 
 257   0.0000       0.485293        13.2055 
 258   0.0000       0.492969        13.4144 
 259   0.0000       0.497403        13.5350 
 260   0.0000       0.500436        13.6175 
 261   0.0000       0.503525        13.7016 
 262   0.0000       0.506139        13.7727 
 263   0.0000       0.509582        13.8664 
 264   0.0000       0.512161        13.9366 
 265   0.0000       0.514830        14.0092 
 266   0.0000       0.519619        14.1395 
 267   0.0000       0.523277        14.2391 
 268   0.0000       0.535534        14.5726 
 269   0.0000       0.538120        14.6430 
 270   0.0000       0.541840        14.7442 
 271   0.0000       0.545346        14.8396 
 272   0.0000       0.546207        14.8630 
 273   0.0000       0.553825        15.0703 
 274   0.0000       0.559902        15.2357 
 275   0.0000       0.564761        15.3679 
 276   0.0000       0.571822        15.5601 
 277   0.0000       0.578934        15.7536 
 278   0.0000       0.580998        15.8098 
 279   0.0000       0.585003        15.9187 
 280   0.0000       0.586789        15.9674 
 281   0.0000       0.591543        16.0967 
 282   0.0000       0.594410        16.1747 
 283   0.0000       0.596975        16.2445 
 284   0.0000       0.600086        16.3292 
 285   0.0000       0.601438        16.3660 
 286   0.0000       0.607097        16.5199 
 287   0.0000       0.609189        16.5769 
 288   0.0000       0.610952        16.6248 
 289   0.0000       0.615776        16.7561 
 290   0.0000       0.621662        16.9163 
 291   0.0000       0.627884        17.0856 
 292   0.0000       0.637149        17.3377 
 293   0.0000       0.638245        17.3675 
 294   0.0000       0.642921        17.4948 
 295   0.0000       0.651773        17.7357 
 296   0.0000       0.655594        17.8396 
 297   0.0000       0.659000        17.9323 
 298   0.0000       0.662387        18.0245 
 299   0.0000       0.665443        18.1076 
 300   0.0000       0.669760        18.2251 
 301   0.0000       0.671044        18.2600 
 302   0.0000       0.679599        18.4928 
 303   0.0000       0.681648        18.5486 
 304   0.0000       0.685145        18.6437 
 305   0.0000       0.686527        18.6813 
 306   0.0000       0.690294        18.7839 
 307   0.0000       0.691640        18.8205 
 308   0.0000       0.697902        18.9909 
 309   0.0000       0.699192        19.0260 
 310   0.0000       0.702845        19.1254 
 311   0.0000       0.704856        19.1801 
 312   0.0000       0.706559        19.2264 
 313   0.0000       0.708607        19.2822 
 314   0.0000       0.712768        19.3954 
 315   0.0000       0.714798        19.4507 
 316   0.0000       0.715856        19.4794 
 317   0.0000       0.719132        19.5686 
 318   0.0000       0.719816        19.5872 
 319   0.0000       0.721097        19.6220 
 320   0.0000       0.726832        19.7781 
 321   0.0000       0.729246        19.8438 
 322   0.0000       0.732146        19.9227 
 323   0.0000       0.734531        19.9876 
 324   0.0000       0.739459        20.1217 
 325   0.0000       0.741937        20.1891 
 326   0.0000       0.743611        20.2347 
 327   0.0000       0.744897        20.2697 
 328   0.0000       0.747551        20.3419 
 329   0.0000       0.748566        20.3695 
 330   0.0000       0.751522        20.4499 
 331   0.0000       0.755819        20.5669 
 332   0.0000       0.758059        20.6278 
 333   0.0000       0.761946        20.7336 
 334   0.0000       0.765493        20.8301 
 335   0.0000       0.772847        21.0302 
 336   0.0000       0.779342        21.2070 
 337   0.0000       0.782975        21.3058 
 338   0.0000       0.783703        21.3256 
 339   0.0000       0.787891        21.4396 
 340   0.0000       0.789100        21.4725 
 341   0.0000       0.793436        21.5905 
 342   0.0000       0.797844        21.7104 
 343   0.0000       0.802732        21.8434 
 344   0.0000       0.804389        21.8885 
 345   0.0000       0.806209        21.9381 
 346   0.0000       0.809762        22.0347 
 347   0.0000       0.811357        22.0782 
 348   0.0000       0.813932        22.1482 
 349   0.0000       0.817080        22.2339 
 350   0.0000       0.820360        22.3231 
 351   0.0000       0.823622        22.4119 
 352   0.0000       0.826139        22.4804 
 353   0.0000       0.828201        22.5365 
 354   0.0000       0.829949        22.5841 
 355   0.0000       0.831378        22.6229 
 356   0.0000       0.834004        22.6944 
 357   0.0000       0.834740        22.7144 
 358   0.0000       0.835900        22.7460 
 359   0.0000       0.839364        22.8403 
 360   0.0000       0.840172        22.8622 
 361   0.0000       0.841280        22.8924 
 362   0.0000       0.843360        22.9490 
 363   0.0000       0.844865        22.9900 
 364   0.0000       0.847126        23.0515 
 365   0.0000       0.847697        23.0670 
 366   0.0000       0.853129        23.2148 
 367   0.0000       0.857452        23.3325 
 368   0.0000       0.860606        23.4183 
 369   0.0000       0.863547        23.4983 
 370   0.0000       0.865268        23.5451 
 371   0.0000       0.869830        23.6693 
 372   0.0000       0.872934        23.7538 
 373   0.0000       0.876786        23.8586 
 374   0.0000       0.878142        23.8955 
 375   0.0000       0.883298        24.0358 
 376   0.0000       0.886171        24.1139 
 377   0.0000       0.887156        24.1407 
 378   0.0000       0.891588        24.2613 
 379   0.0000       0.894507        24.3408 
 380   0.0000       0.897792        24.4302 
 381   0.0000       0.899148        24.4671 
 382   0.0000       0.902299        24.5528 
 383   0.0000       0.902736        24.5647 
 384   0.0000       0.903743        24.5921 
 385   0.0000       0.906319        24.6622 
 386   0.0000       0.908941        24.7335 
 387   0.0000       0.910878        24.7863 
 388   0.0000       0.911216        24.7955 
 389   0.0000       0.912875        24.8406 
 390   0.0000       0.917122        24.9561 
 391   0.0000       0.920539        25.0491 
 392   0.0000       0.924167        25.1479 
 393   0.0000       0.924942        25.1689 
 394   0.0000       0.927572        25.2405 
 395   0.0000       0.931025        25.3345 
 396   0.0000       0.933614        25.4049 
 397   0.0000       0.934875        25.4392 
 398   0.0000       0.937407        25.5081 
 399   0.0000       0.941998        25.6331 
 400   0.0000       0.944862        25.7110 
 401   0.0000       0.947576        25.7848 
 402   0.0000       0.950610        25.8674 
 403   0.0000       0.952186        25.9103 
 404   0.0000       0.955520        26.0010 
 405   0.0000       0.956054        26.0156 
 406   0.0000       0.962357        26.1871 
 407   0.0000       0.964836        26.2545 
 408   0.0000       0.969551        26.3828 
 409   0.0000       0.971484        26.4354 
 410   0.0000       0.977689        26.6043 
 411   0.0000       0.979867        26.6635 
 412   0.0000       0.985424        26.8147 
 413   0.0000       0.986309        26.8388 
 414   0.0000       0.989074        26.9141 
 415   0.0000       0.991188        26.9716 
 416   0.0000       0.996142        27.1064 
 417   0.0000       1.002752        27.2863 
 418   0.0000       1.008530        27.4435 
 419   0.0000       1.016692        27.6656 
 420   0.0000       1.022577        27.8257 
 421   0.0000       1.028808        27.9953 
 422   0.0000       1.031792        28.0765 
 423   0.0000       1.039214        28.2785 
 424   0.0000       1.042917        28.3792 
 425   0.0000       1.047132        28.4939 
 426   0.0000       1.052144        28.6303 
 427   0.0000       1.066084        29.0096 
 428   0.0000       1.067634        29.0518 
 429   0.0000       1.072562        29.1859 
 430   0.0000       1.075329        29.2612 
 431   0.0000       1.079816        29.3833 
 432   0.0000       1.084467        29.5099 
 433   0.0000       1.091351        29.6972 
 434   0.0000       1.097314        29.8594 
 435   0.0000       1.100215        29.9384 
 436   0.0000       1.105754        30.0891 
 437   0.0000       1.112351        30.2686 
 438   0.0000       1.116774        30.3890 
 439   0.0000       1.117973        30.4216 
 440   0.0000       1.119402        30.4605 
 441   0.0000       1.124823        30.6080 
 442   0.0000       1.127797        30.6889 
 443   0.0000       1.130838        30.7717 
 444   0.0000       1.133953        30.8564 
 445   0.0000       1.135744        30.9052 
 446   0.0000       1.138840        30.9894 
 447   0.0000       1.142402        31.0863 
 448   0.0000       1.143751        31.1230 
 449   0.0000       1.145406        31.1681 
 450   0.0000       1.149673        31.2842 
 451   0.0000       1.150347        31.3025 
 452   0.0000       1.155887        31.4533 
 453   0.0000       1.156419        31.4678 
 454   0.0000       1.162141        31.6235 
 455   0.0000       1.168534        31.7974 
 456   0.0000       1.174473        31.9590 
 457   0.0000       1.176084        32.0029 
 458   0.0000       1.177655        32.0456 
 459   0.0000       1.186093        32.2752 
 460   0.0000       1.188076        32.3292 
 461   0.0000       1.192532        32.4505 
 462   0.0000       1.203865        32.7588 
 463   0.0000       1.205125        32.7931 
 464   0.0000       1.208630        32.8885 
 465   0.0000       1.210482        32.9389 
 466   0.0000       1.211650        32.9707 
 467   0.0000       1.218643        33.1610 
 468   0.0000       1.223836        33.3023 
 469   0.0000       1.227285        33.3961 
 470   0.0000       1.232135        33.5281 
 471   0.0000       1.234296        33.5869 
 472   0.0000       1.235978        33.6327 
 473   0.0000       1.239053        33.7164 
 474   0.0000       1.242323        33.8053 
 475   0.0000       1.247672        33.9509 
 476   0.0000       1.249785        34.0084 
 477   0.0000       1.250239        34.0207 
 478   0.0000       1.252485        34.0818 
 479   0.0000       1.254693        34.1419 
 480   0.0000       1.259107        34.2620 
 481   0.0000       1.265704        34.4416 
 482   0.0000       1.267463        34.4894 
 483   0.0000       1.272654        34.6307 
 484   0.0000       1.273539        34.6548 
 485   0.0000       1.278104        34.7790 
 486   0.0000       1.279206        34.8090 
 487   0.0000       1.280599        34.8469 
 488   0.0000       1.288787        35.0697 
 489   0.0000       1.290614        35.1194 
 490   0.0000       1.291183        35.1349 
 491   0.0000       1.295181        35.2437 
 492   0.0000       1.301044        35.4032 
 493   0.0000       1.308663        35.6105 
 494   0.0000       1.312110        35.7043 
 495   0.0000       1.313734        35.7485 
 496   0.0000       1.318764        35.8854 
 497   0.0000       1.322479        35.9865 
 498   0.0000       1.326586        36.0982 
 499   0.0000       1.329660        36.1819 
 500   0.0000       1.332404        36.2565 
 501   0.0000       1.337750        36.4020 
 502   0.0000       1.339995        36.4631 
 503   0.0000       1.345697        36.6183 
 504   0.0000       1.348253        36.6878 
 505   0.0000       1.352122        36.7931 
 506   0.0000       1.354547        36.8591 
 507   0.0000       1.358309        36.9615 
 508   0.0000       1.360105        37.0103 
 509   0.0000       1.362263        37.0691 
 510   0.0000       1.366325        37.1796 
[...]
      pz      :     0.022014  p :     0.079630
      px      :     0.043392
      py      :     0.014224
 77 H s       :     0.887756  s :     0.887756
      pz      :     0.047730  p :     0.079006
      px      :     0.015015
      py      :     0.016262
 78 H s       :     0.888140  s :     0.888140
      pz      :     0.025755  p :     0.078953
      px      :     0.020527
      py      :     0.032671
 79 H s       :     0.909558  s :     0.909558
      pz      :     0.022034  p :     0.086600
      px      :     0.021736
      py      :     0.042831
 80 H s       :     0.868904  s :     0.868904
      pz      :     0.039023  p :     0.084318
      px      :     0.030025
      py      :     0.015270
 81 H s       :     0.887207  s :     0.887207
      pz      :     0.037764  p :     0.083949
      px      :     0.016162
      py      :     0.030023
 82 H s       :     0.915335  s :     0.915335
      pz      :     0.022051  p :     0.086820
      px      :     0.031453
      py      :     0.033316
 83 H s       :     0.872839  s :     0.872839
      pz      :     0.039268  p :     0.084013
      px      :     0.015259
      py      :     0.029486
 84 H s       :     0.886950  s :     0.886950
      pz      :     0.035790  p :     0.083644
      px      :     0.031718
      py      :     0.016136
 85 H s       :     0.893411  s :     0.893411
      pz      :     0.022498  p :     0.079755
      px      :     0.014083
      py      :     0.043175
 86 H s       :     0.890812  s :     0.890812
      pz      :     0.024727  p :     0.078853
      px      :     0.032991
      py      :     0.021135
 87 H s       :     0.890128  s :     0.890128
      pz      :     0.047973  p :     0.078712
      px      :     0.015603
      py      :     0.015135
 88 H s       :     0.912740  s :     0.912740
      pz      :     0.021888  p :     0.086961
      px      :     0.042668
      py      :     0.022404
 89 H s       :     0.872302  s :     0.872302
      pz      :     0.037898  p :     0.083852
      px      :     0.030474
      py      :     0.015481


                      *****************************
                      * MAYER POPULATION ANALYSIS *
                      *****************************

  NA   - Mulliken gross atomic population
  ZA   - Total nuclear charge
  QA   - Mulliken gross atomic charge
  VA   - Mayer's total valence
  BVA  - Mayer's bonded valence
  FA   - Mayer's free valence

  ATOM       NA         ZA         QA         VA         BVA        FA
  0 C      5.7914     6.0000     0.2086     3.8331     3.8331    -0.0000
  1 N      7.4479     7.0000    -0.4479     3.3500     3.3500    -0.0000
  2 C      6.0631     6.0000    -0.0631     3.9191     3.9191    -0.0000
  3 N      7.3363     7.0000    -0.3363     3.4503     3.4503    -0.0000
  4 C      6.0555     6.0000    -0.0555     3.9854     3.9854    -0.0000
  5 N      7.5629     7.0000    -0.5629     3.0884     3.0884     0.0000
  6 C      6.0849     6.0000    -0.0849     4.0047     4.0047     0.0000
  7 N      7.3387     7.0000    -0.3387     3.4391     3.4391    -0.0000
  8 C      5.7972     6.0000     0.2028     3.8345     3.8345     0.0000
  9 N      7.5630     7.0000    -0.5630     3.0814     3.0814    -0.0000
 10 C      5.8832     6.0000     0.1168     3.9010     3.9010    -0.0000
 11 N      7.4376     7.0000    -0.4376     3.3828     3.3828    -0.0000
 12 C      6.0781     6.0000    -0.0781     3.9184     3.9184    -0.0000
 13 N      7.4361     7.0000    -0.4361     3.3971     3.3971    -0.0000
 14 C      5.7557     6.0000     0.2443     3.7821     3.7821    -0.0000
 15 N      7.4409     7.0000    -0.4409     3.3715     3.3715     0.0000
 16 C      5.7696     6.0000     0.2304     3.7876     3.7876    -0.0000
 17 C      6.0909     6.0000    -0.0909     4.0041     4.0041    -0.0000
 18 C      6.2156     6.0000    -0.2156     3.7682     3.7682    -0.0000
 19 C      5.7598     6.0000     0.2402     3.8611     3.8611     0.0000
 20 C      5.7895     6.0000     0.2105     3.8268     3.8268    -0.0000
 21 C      6.0910     6.0000    -0.0910     3.9074     3.9074     0.0000
 22 C      6.0885     6.0000    -0.0885     3.9832     3.9832    -0.0000
 23 C      6.0450     6.0000    -0.0450     3.9912     3.9912    -0.0000
 24 C      5.7988     6.0000     0.2012     3.8225     3.8225    -0.0000
 25 C      5.8860     6.0000     0.1140     3.8902     3.8902    -0.0000
 26 C      6.0723     6.0000    -0.0723     3.9090     3.9090    -0.0000
 27 C      5.7820     6.0000     0.2180     3.8761     3.8761    -0.0000
 28 C      6.0561     6.0000    -0.0561     3.9879     3.9879    -0.0000
 29 C      6.1826     6.0000    -0.1826     3.7391     3.7391    -0.0000
 30 C      5.7607     6.0000     0.2393     3.7960     3.7960    -0.0000
 31 C      5.7819     6.0000     0.2181     3.8238     3.8238    -0.0000
 32 C      6.0641     6.0000    -0.0641     3.9197     3.9197     0.0000
 33 C      6.0737     6.0000    -0.0737     3.9808     3.9808     0.0000
 34 C      6.0504     6.0000    -0.0504     3.9890     3.9890    -0.0000
 35 C      5.7871     6.0000     0.2129     3.8222     3.8222    -0.0000
 36 C      5.8880     6.0000     0.1120     3.8854     3.8854     0.0000
 37 C      6.0660     6.0000    -0.0660     3.9175     3.9175    -0.0000
 38 C      5.7650     6.0000     0.2350     3.7994     3.7994     0.0000
 39 C      6.0601     6.0000    -0.0601     3.9882     3.9882     0.0000
 40 C      6.1864     6.0000    -0.1864     3.7361     3.7361    -0.0000
 41 C      5.7771     6.0000     0.2229     3.8831     3.8831    -0.0000
 42 C      5.7992     6.0000     0.2008     3.8270     3.8270    -0.0000
 43 C      6.0730     6.0000    -0.0730     3.9020     3.9020     0.0000
 44 C      6.0894     6.0000    -0.0894     3.9850     3.9850    -0.0000
 45 C      6.0558     6.0000    -0.0558     3.9928     3.9928    -0.0000
 46 C      5.7937     6.0000     0.2063     3.8268     3.8268    -0.0000
 47 C      5.8844     6.0000     0.1156     3.8935     3.8935     0.0000
 48 C      6.0715     6.0000    -0.0715     3.9062     3.9062    -0.0000
 49 C      5.7690     6.0000     0.2310     3.8875     3.8875     0.0000
 50 C      6.0505     6.0000    -0.0505     3.9904     3.9904    -0.0000
 51 C      6.1898     6.0000    -0.1898     3.7360     3.7360    -0.0000
 52 H      0.9514     1.0000     0.0486     0.9855     0.9855     0.0000
 53 H      1.0148     1.0000    -0.0148     0.9985     0.9985     0.0000
 54 H      0.9532     1.0000     0.0468     1.0089     1.0089    -0.0000
 55 H      0.9536     1.0000     0.0464     0.9864     0.9864     0.0000
 56 H      0.9454     1.0000     0.0546     0.9706     0.9706    -0.0000
 57 H      0.9472     1.0000     0.0528     0.9836     0.9836    -0.0000
 58 H      0.9477     1.0000     0.0523     0.9852     0.9852    -0.0000
 59 H      1.0062     1.0000    -0.0062     1.0012     1.0012     0.0000
 60 H      0.9502     1.0000     0.0498     1.0102     1.0102    -0.0000
 61 H      0.8278     1.0000     0.1722     1.0423     1.0423     0.0000
 62 H      0.8262     1.0000     0.1738     1.0435     1.0435    -0.0000
 63 H      0.9436     1.0000     0.0564     0.9853     0.9853    -0.0000
 64 H      1.0133     1.0000    -0.0133     0.9973     0.9973    -0.0000
 65 H      0.9524     1.0000     0.0476     1.0091     1.0091     0.0000
 66 H      0.9427     1.0000     0.0573     0.9852     0.9852     0.0000
 67 H      0.9372     1.0000     0.0628     0.9720     0.9720    -0.0000
 68 H      0.9419     1.0000     0.0581     0.9868     0.9868    -0.0000
 69 H      0.9419     1.0000     0.0581     0.9829     0.9829     0.0000
 70 H      1.0262     1.0000    -0.0262     0.9938     0.9938    -0.0000
 71 H      0.9532     1.0000     0.0468     1.0064     1.0064    -0.0000
 72 H      0.9381     1.0000     0.0619     0.9845     0.9845    -0.0000
 73 H      1.0119     1.0000    -0.0119     0.9995     0.9995     0.0000
 74 H      0.9483     1.0000     0.0517     1.0100     1.0100    -0.0000
 75 H      0.9389     1.0000     0.0611     0.9850     0.9850    -0.0000
 76 H      0.9333     1.0000     0.0667     0.9718     0.9718     0.0000
 77 H      0.9383     1.0000     0.0617     0.9852     0.9852    -0.0000
 78 H      0.9390     1.0000     0.0610     0.9850     0.9850    -0.0000
 79 H      1.0148     1.0000    -0.0148     0.9987     0.9987    -0.0000
 80 H      0.9477     1.0000     0.0523     1.0071     1.0071     0.0000
 81 H      0.9465     1.0000     0.0535     0.9855     0.9855    -0.0000
 82 H      1.0239     1.0000    -0.0239     0.9939     0.9939    -0.0000
 83 H      0.9573     1.0000     0.0427     1.0089     1.0089    -0.0000
 84 H      0.9465     1.0000     0.0535     0.9854     0.9854     0.0000
 85 H      0.9403     1.0000     0.0597     0.9716     0.9716     0.0000
 86 H      0.9440     1.0000     0.0560     0.9840     0.9840     0.0000
 87 H      0.9433     1.0000     0.0567     0.9856     0.9856    -0.0000
 88 H      1.0189     1.0000    -0.0189     0.9953     0.9953    -0.0000
 89 H      0.9555     1.0000     0.0445     1.0072     1.0072    -0.0000

  Mayer bond orders larger than 0.100000
B(  0-C ,  1-N ) :   1.1044 B(  0-C , 17-C ) :   1.6671 B(  0-C , 52-H ) :   0.9689 
B(  1-N ,  8-C ) :   1.0991 B(  1-N , 10-C ) :   0.9695 B(  2-C , 12-C ) :   1.5250 
B(  2-C , 16-C ) :   1.3375 B(  2-C , 53-H ) :   0.9771 B(  3-N , 14-C ) :   1.2099 
B(  3-N , 16-C ) :   1.1943 B(  3-N , 61-H ) :   0.8987 B(  4-C ,  6-C ) :   1.2390 
B(  4-C , 17-C ) :   1.2387 B(  4-C , 18-C ) :   1.3453 B(  5-N , 19-C ) :   1.4353 
B(  5-N , 27-C ) :   1.3922 B(  6-C ,  8-C ) :   1.6675 B(  6-C , 54-H ) :   0.9690 
B(  7-N , 30-C ) :   1.1946 B(  7-N , 38-C ) :   1.1976 B(  7-N , 62-H ) :   0.8977 
B(  8-C , 55-H ) :   0.9696 B(  9-N , 41-C ) :   1.4025 B(  9-N , 49-C ) :   1.4195 
B( 10-C , 56-H ) :   0.9765 B( 10-C , 57-H ) :   0.9820 B( 10-C , 58-H ) :   0.9839 
B( 11-N , 20-C ) :   1.1281 B( 11-N , 24-C ) :   1.1170 B( 11-N , 25-C ) :   0.9586 
B( 12-C , 14-C ) :   1.3389 B( 12-C , 59-H ) :   0.9750 B( 13-N , 31-C ) :   1.1375 
B( 13-N , 35-C ) :   1.1321 B( 13-N , 36-C ) :   0.9530 B( 14-C , 18-C ) :   1.1668 
B( 15-N , 42-C ) :   1.1123 B( 15-N , 46-C ) :   1.1176 B( 15-N , 47-C ) :   0.9620 
B( 16-C , 51-C ) :   1.1870 B( 17-C , 60-H ) :   0.9687 B( 18-C , 19-C ) :   1.1791 
B( 19-C , 21-C ) :   1.2225 B( 20-C , 28-C ) :   1.6244 B( 20-C , 63-H ) :   0.9702 
B( 21-C , 26-C ) :   1.6337 B( 21-C , 64-H ) :   0.9703 B( 22-C , 23-C ) :   1.2873 
B( 22-C , 28-C ) :   1.2710 B( 22-C , 29-C ) :   1.2240 B( 23-C , 24-C ) :   1.6177 
B( 23-C , 65-H ) :   0.9707 B( 24-C , 66-H ) :   0.9692 B( 25-C , 67-H ) :   0.9761 
B( 25-C , 68-H ) :   0.9829 B( 25-C , 69-H ) :   0.9822 B( 26-C , 27-C ) :   1.2202 
B( 26-C , 70-H ) :   0.9725 B( 27-C , 29-C ) :   1.2274 B( 28-C , 71-H ) :   0.9716 
B( 29-C , 30-C ) :   1.2213 B( 30-C , 32-C ) :   1.3019 B( 31-C , 39-C ) :   1.6152 
B( 31-C , 72-H ) :   0.9691 B( 32-C , 37-C ) :   1.5567 B( 32-C , 73-H ) :   0.9781 
B( 33-C , 34-C ) :   1.2871 B( 33-C , 39-C ) :   1.2809 B( 33-C , 40-C ) :   1.2220 
B( 34-C , 35-C ) :   1.6121 B( 34-C , 74-H ) :   0.9702 B( 35-C , 75-H ) :   0.9691 
B( 36-C , 76-H ) :   0.9765 B( 36-C , 77-H ) :   0.9819 B( 36-C , 78-H ) :   0.9828 
B( 37-C , 38-C ) :   1.3043 B( 37-C , 79-H ) :   0.9773 B( 38-C , 40-C ) :   1.2161 
B( 39-C , 80-H ) :   0.9712 B( 40-C , 41-C ) :   1.2312 B( 41-C , 43-C ) :   1.2025 
B( 42-C , 50-C ) :   1.6337 B( 42-C , 81-H ) :   0.9697 B( 43-C , 48-C ) :   1.6494 
B( 43-C , 82-H ) :   0.9731 B( 44-C , 45-C ) :   1.2678 B( 44-C , 50-C ) :   1.2687 
B( 44-C , 51-C ) :   1.2578 B( 45-C , 46-C ) :   1.6338 B( 45-C , 83-H ) :   0.9714 
B( 46-C , 84-H ) :   0.9701 B( 47-C , 85-H ) :   0.9761 B( 47-C , 86-H ) :   0.9828 
B( 47-C , 87-H ) :   0.9825 B( 48-C , 49-C ) :   1.2038 B( 48-C , 88-H ) :   0.9743 
B( 49-C , 51-C ) :   1.2284 B( 50-C , 89-H ) :   0.9712 

-------
TIMINGS
-------

Total SCF time: 0 days 0 hours 27 min 32 sec 

Total time                  ....    1652.686 sec
Sum of individual times     ....    1647.878 sec  ( 99.7%)

Fock matrix formation       ....    1620.716 sec  ( 98.1%)
Diagonalization             ....       8.779 sec  (  0.5%)
Density matrix formation    ....       0.514 sec  (  0.0%)
Population analysis         ....       0.609 sec  (  0.0%)
Initial guess               ....       2.514 sec  (  0.2%)
Orbital Transformation      ....       0.000 sec  (  0.0%)
Orbital Orthonormalization  ....       0.000 sec  (  0.0%)
DIIS solution               ....       3.995 sec  (  0.2%)
SOSCF solution              ....       9.456 sec  (  0.6%)

Maximum memory used throughout the entire SCF-calculation: 302.6 MB


           ************************************************************
           *        Program running with 16 parallel MPI-processes    *
           *              working on a common directory               *
           ************************************************************

------------------------------------------------------------------------------
                                ORCA  MP2 
------------------------------------------------------------------------------

Freezing NCore=104 chemical core electrons

----------
MP2 ENERGY (disk based algorithm)
----------

Dimension of the basis                    ...  918
Memory devoted to MP2                     ... 2000 MB   
Data format for buffers                   ... DOUBLE
Compression type for matrix containers    ... UNCOMPRESSED

-------------------------------
PARTIAL EXCHANGE TRANSFORMATION
-------------------------------

Transformation type                        ... one-operator
Generation of integrals (i,mue|j,nue)      ... ON
Generation of integrals (mue,kappa|nue,tau)... OFF
Generation of integrals (i,mue|a,nue)      ... OFF
Dimension of the basis                     ...  918
Number of internal MOs                     ...  127 (  52- 178)
Pair cutoff                                ... 2.500e-12 Eh
Number of AO pairs in the trafo            ... 421821
Total Number of distinct AO pairs          ... 421821
Memory devoted for trafo                   ... 2000.0 MB 
Max. Number of MO pairs treated together   ...  311      
Number Format for Storage                  ... Double (8 Byte)
Integral package used                      ... LIBINT

Starting integral evaluation:
    ... done with AO integral generation
Closing buffer AOK     (38.23 GB; CompressionRatio= 1.33)
Collecting buffer AOK 
Number of MO pairs included in the trafo   ... 8128
------------------------
SORTING OF (i,mue|j,nue)
------------------------

IBATCH = 1 of  2
IBATCH = 2 of  2
Closing buffer KAO     (51.03 GB; CompressionRatio= 1.00)
Collecting buffer KAO 
N(AO-Batches) Done                         ...  85598165 
N(AO-Batches) Skipped                      ...  82230656 
N(IJ)-pairs Skipped                        ...         0 
TOTAL TIME for half transformation         ...  2784.078 sec
AO-integral generation                     ...   210.512 sec
Half transformation                        ...   423.372 sec
K-integral sorting                         ...  1926.905 sec
Process 10:   Internal MO 132
Process 13:   Internal MO 156
Process  1:   Internal MO  60

Finished integral transformation - now doing MP2 part

OPERATOR COMBINATION   0   0: ij=( 52..178, 52..178)
Process  7:   Internal MO 108
Process  4:   Internal MO  84
Process  1:   Internal MO  63
Process  5:   Internal MO  93
Process  3:   Internal MO  78
Process  1:   Internal MO  66
Process  8:   Internal MO 117
Process  0:   Internal MO  54
Process  0:   Internal MO  57
Process 11:   Internal MO 141
Process 14:   Internal MO 165
Process  2:   Internal MO  69
Process  9:   Internal MO 126
Process  3:   Internal MO  81
Process  6:   Internal MO 102
Process  2:   Internal MO  72
Process 12:   Internal MO 150
Process  7:   Internal MO 111
Process  5:   Internal MO  96
Process  4:   Internal MO  87
Process 15:   Internal MO 174
Process  2:   Internal MO  75
Process 10:   Internal MO 135
Process  8:   Internal MO 120
Process  4:   Internal MO  90
Process  6:   Internal MO 105
Process  7:   Internal MO 114
Process  5:   Internal MO  99
Process  9:   Internal MO 129
Process 11:   Internal MO 144
Process 13:   Internal MO 159
Process 12:   Internal MO 153
Process 14:   Internal MO 168
Process 10:   Internal MO 138
Process  8:   Internal MO 123
Process 15:   Internal MO 177
Process 11:   Internal MO 147
Process 13:   Internal MO 162
Process 14:   Internal MO 171
-----------------------------------------------
 MP2 CORRELATION ENERGY   :     -7.288070736 Eh
-----------------------------------------------


-------
TIMINGS
-------
Total time                : 3118.452 sec
Integral trafo            : 2786.165 sec ( 89.3%)
K(i,j)                    :   34.604 sec (  1.1%)
T(i,j)                    :    0.698 sec (  0.0%)

---------------------------------------
MP2 TOTAL ENERGY:    -2130.912778651 Eh
---------------------------------------

Maximum memory used throughout the entire MP2-calculation: 2275.2 MB

-------------------------   --------------------
FINAL SINGLE POINT ENERGY     -2130.912778650971
-------------------------   --------------------


                            ***************************************
                            *     ORCA property calculations      *
                            ***************************************


  WARNING: The energy has been calculated at the MP2 level but the densities
           used in the property calculations are still SCF densities
           MP2 response densities have not been calculated 
           use %mp2 Density relaxed end
           or  %mp2 Density unrelaxed end

                                    ---------------------
                                    Active property flags
                                    ---------------------
   (+) Dipole Moment


------------------------------------------------------------------------------
                       ORCA ELECTRIC PROPERTIES CALCULATION
------------------------------------------------------------------------------

Dipole Moment Calculation                       ... on
Quadrupole Moment Calculation                   ... off
Polarizability Calculation                      ... off
GBWName                                         ... /scratch/allen/tmpyp4_amber_gaff2/conf1/conf1/Conf231.orca.gbw
Electron density                                ... /scratch/allen/tmpyp4_amber_gaff2/conf1/conf1/Conf231.orca.scfp
The origin for moment calculation is the CENTER OF MASS  = ( 0.001930, -0.002743 -0.001533)

-------------
DIPOLE MOMENT
-------------
                                X             Y             Z
Electronic contribution:      0.76673      -2.18144      -0.12805
Nuclear contribution   :      0.07804       0.24112       0.13676
                        -----------------------------------------
Total Dipole Moment    :      0.84478      -1.94032       0.00871
                        -----------------------------------------
Magnitude (a.u.)       :      2.11626
Magnitude (Debye)      :      5.37911



--------------------
Rotational spectrum 
--------------------
 
Rotational constants in cm-1:     0.001499     0.001476     0.000762 
Rotational constants in MHz :    44.940593    44.241885    22.830550 

 Dipole components along the rotational axes: 
x,y,z [a.u.] :     1.396522    -1.590049     0.006440 
x,y,z [Debye]:     3.549676    -4.041583     0.016369 

 

Timings for individual modules:

Sum of individual times         ...     4795.918 sec (=  79.932 min)
GTO integral calculation        ...        3.515 sec (=   0.059 min)   0.1 %
SCF iterations                  ...     1653.950 sec (=  27.566 min)  34.5 %
MP2 module                      ...     3138.453 sec (=  52.308 min)  65.4 %
                             ****ORCA TERMINATED NORMALLY****
TOTAL RUN TIME: 0 days 1 hours 19 minutes 59 seconds 598 msec
# of primitive gaussian functions

