
                                 *****************
                                 * O   R   C   A *
                                 *****************

                                            #,                                       
                                            ###                                      
                                            ####                                     
                                            #####                                    
                                            ######                                   
                                           ########,                                 
                                     ,,################,,,,,                         
                               ,,#################################,,                 
                          ,,##########################################,,             
                       ,#########################################, ''#####,          
                    ,#############################################,,   '####,        
                  ,##################################################,,,,####,       
                ,###########''''           ''''###############################       
              ,#####''   ,,,,##########,,,,          '''####'''          '####       
            ,##' ,,,,###########################,,,                        '##       
           ' ,,###''''                  '''############,,,                           
         ,,##''                                '''############,,,,        ,,,,,,###''
      ,#''                                            '''#######################'''  
     '                                                          ''''####''''         
             ,#######,   #######,   ,#######,      ##                                
            ,#'     '#,  ##    ##  ,#'     '#,    #''#        ######   ,####,        
            ##       ##  ##   ,#'  ##            #'  '#       #        #'  '#        
            ##       ##  #######   ##           ,######,      #####,   #    #        
            '#,     ,#'  ##    ##  '#,     ,#' ,#      #,         ##   #,  ,#        
             '#######'   ##     ##  '#######'  #'      '#     #####' # '####'        



                  #######################################################
                  #                        -***-                        #
                  #          Department of theory and spectroscopy      #
                  #    Directorship and core code : Frank Neese         #
                  #        Max Planck Institute fuer Kohlenforschung    #
                  #                Kaiser Wilhelm Platz 1               #
                  #                 D-45470 Muelheim/Ruhr               #
                  #                      Germany                        #
                  #                                                     #
                  #                  All rights reserved                #
                  #                        -***-                        #
                  #######################################################


                         Program Version 5.0.4 -  RELEASE  -


 With contributions from (in alphabetic order):
   Daniel Aravena         : Magnetic Suceptibility
   Michael Atanasov       : Ab Initio Ligand Field Theory (pilot matlab implementation)
   Alexander A. Auer      : GIAO ZORA, VPT2 properties, NMR spectrum
   Ute Becker             : Parallelization
   Giovanni Bistoni       : ED, misc. LED, open-shell LED, HFLD
   Martin Brehm           : Molecular dynamics
   Dmytro Bykov           : SCF Hessian
   Vijay G. Chilkuri      : MRCI spin determinant printing, contributions to CSF-ICE
   Dipayan Datta          : RHF DLPNO-CCSD density
   Achintya Kumar Dutta   : EOM-CC, STEOM-CC
   Dmitry Ganyushin       : Spin-Orbit,Spin-Spin,Magnetic field MRCI
   Miquel Garcia          : C-PCM and meta-GGA Hessian, CC/C-PCM, Gaussian charge scheme
   Yang Guo               : DLPNO-NEVPT2, F12-NEVPT2, CIM, IAO-localization
   Andreas Hansen         : Spin unrestricted coupled pair/coupled cluster methods
   Benjamin Helmich-Paris : MC-RPA, TRAH-SCF, COSX integrals
   Lee Huntington         : MR-EOM, pCC
   Robert Izsak           : Overlap fitted RIJCOSX, COSX-SCS-MP3, EOM
   Marcus Kettner         : VPT2
   Christian Kollmar      : KDIIS, OOCD, Brueckner-CCSD(T), CCSD density, CASPT2, CASPT2-K
   Simone Kossmann        : Meta GGA functionals, TD-DFT gradient, OOMP2, MP2 Hessian
   Martin Krupicka        : Initial AUTO-CI
   Lucas Lang             : DCDCAS
   Marvin Lechner         : AUTO-CI (C++ implementation), FIC-MRCC
   Dagmar Lenk            : GEPOL surface, SMD
   Dimitrios Liakos       : Extrapolation schemes; Compound Job, initial MDCI parallelization
   Dimitrios Manganas     : Further ROCIS development; embedding schemes
   Dimitrios Pantazis     : SARC Basis sets
   Anastasios Papadopoulos: AUTO-CI, single reference methods and gradients
   Taras Petrenko         : DFT Hessian,TD-DFT gradient, ASA, ECA, R-Raman, ABS, FL, XAS/XES, NRVS
   Peter Pinski           : DLPNO-MP2, DLPNO-MP2 Gradient
   Christoph Reimann      : Effective Core Potentials
   Marius Retegan         : Local ZFS, SOC
   Christoph Riplinger    : Optimizer, TS searches, QM/MM, DLPNO-CCSD(T), (RO)-DLPNO pert. Triples
   Tobias Risthaus        : Range-separated hybrids, TD-DFT gradient, RPA, STAB
   Michael Roemelt        : Original ROCIS implementation
   Masaaki Saitow         : Open-shell DLPNO-CCSD energy and density
   Barbara Sandhoefer     : DKH picture change effects
   Avijit Sen             : IP-ROCIS
   Kantharuban Sivalingam : CASSCF convergence, NEVPT2, FIC-MRCI
   Bernardo de Souza      : ESD, SOC TD-DFT
   Georgi Stoychev        : AutoAux, RI-MP2 NMR, DLPNO-MP2 response
   Willem Van den Heuvel  : Paramagnetic NMR
   Boris Wezisla          : Elementary symmetry handling
   Frank Wennmohs         : Technical directorship


 We gratefully acknowledge several colleagues who have allowed us to
 interface, adapt or use parts of their codes:
   Stefan Grimme, W. Hujo, H. Kruse, P. Pracht,  : VdW corrections, initial TS optimization,
                  C. Bannwarth, S. Ehlert          DFT functionals, gCP, sTDA/sTD-DF
   Ed Valeev, F. Pavosevic, A. Kumar             : LibInt (2-el integral package), F12 methods
   Garnet Chan, S. Sharma, J. Yang, R. Olivares  : DMRG
   Ulf Ekstrom                                   : XCFun DFT Library
   Mihaly Kallay                                 : mrcc  (arbitrary order and MRCC methods)
   Jiri Pittner, Ondrej Demel                    : Mk-CCSD
   Frank Weinhold                                : gennbo (NPA and NBO analysis)
   Christopher J. Cramer and Donald G. Truhlar   : smd solvation model
   Lars Goerigk                                  : TD-DFT with DH, B97 family of functionals
   V. Asgeirsson, H. Jonsson                     : NEB implementation
   FAccTs GmbH                                   : IRC, NEB, NEB-TS, DLPNO-Multilevel, CI-OPT
                                                   MM, QMMM, 2- and 3-layer-ONIOM, Crystal-QMMM,
                                                   LR-CPCM, SF, NACMEs, symmetry and pop. for TD-DFT,
                                                   nearIR, NL-DFT gradient (VV10), updates on ESD,
                                                   ML-optimized integration grids
   S Lehtola, MJT Oliveira, MAL Marques          : LibXC Library
   Liviu Ungur et al                             : ANISO software


 Your calculation uses the libint2 library for the computation of 2-el integrals
 For citations please refer to: http://libint.valeyev.net

 Your ORCA version has been built with support for libXC version: 5.1.0
 For citations please refer to: https://tddft.org/programs/libxc/

 This ORCA versions uses:
   CBLAS   interface :  Fast vector & matrix operations
   LAPACKE interface :  Fast linear algebra routines
   SCALAPACK package :  Parallel linear algebra routines
   Shared memory     :  Shared parallel matrices
   BLAS/LAPACK       :  OpenBLAS 0.3.15  USE64BITINT DYNAMIC_ARCH NO_AFFINITY Sandybridge SINGLE_THREADED
        Core in use  :  Sandybridge
   Copyright (c) 2011-2014, The OpenBLAS Project


================================================================================

----- Orbital basis set information -----
Your calculation utilizes the basis: cc-pVDZ 
       H, B-Ne : Obtained from the ccRepo (grant-hill.group.shef.ac.uk/ccrepo) Feb. 2017
                 T. H. Dunning, Jr., J. Chem. Phys. 90, 1007 (1989)
            He : Obtained from the ccRepo (grant-hill.group.shef.ac.uk/ccrepo) Feb. 2017
                 D. E. Woon, T. H. Dunning, Jr., J. Chem. Phys. 100, 2975 (1994)
  Li-Be, Na-Mg : Obtained from the ccRepo (grant-hill.group.shef.ac.uk/ccrepo) Feb. 2017
                 B. P. Prascher, D. E. Woon, K. A. Peterson, T. H. Dunning, Jr., A. K. Wilson, Theor. Chem. Acc. 128, 69 (2011)
         Al-Ar : Obtained from the ccRepo (grant-hill.group.shef.ac.uk/ccrepo) Feb. 2017
                 D. E. Woon, T. H. Dunning, Jr., J. Chem. Phys. 98, 1358 (1993)
            Ca : Obtained from the Peterson Research Group Website (tyr0.chem.wsu.edu/~kipeters) Feb. 2017
                 J. Koput, K. A. Peterson, J. Phys. Chem. 106, 9595 (2002)
         Sc-Zn : Obtained from the ccRepo (grant-hill.group.shef.ac.uk/ccrepo) Feb. 2017
                 N. B. Balabanov, K. A. Peterson, J. Chem. Phys. 123, 064107 (2005)
                 N. B. Balabanov, K. A. Peterson, J. Chem. Phys. 125, 074110 (2006)
         Ga-Kr : Obtained from the ccRepo (grant-hill.group.shef.ac.uk/ccrepo) Feb. 2017
                 A. K. Wilson, D. E. Woon, K. A. Peterson, T. H. Dunning, Jr., J. Chem. Phys. 110, 7667 (1999)

================================================================================
                                        WARNINGS
                       Please study these warnings very carefully!
================================================================================


WARNING: No MP2 level density has been requested!
         To caclulate MP2 level properties use
         %mp2 Density relaxed end
         or
         %mp2 Density unrelaxed end

WARNING: Post HF methods need fully converged wavefunctions
  ===> : Setting SCFConvForced true
         You can overwrite this default with %scf ConvForced false 


INFO   : the flag for use of the SHARK integral package has been found!

================================================================================
                                       INPUT FILE
================================================================================
NAME = /scratch/allen/tmpyp4_amber_gaff2/2.Mdgx/conf11/conf11/Conf346.orca
|  1> ! PAL2
|  2> ! mp2 cc-pvdz TightSCF  NoKeepInts
|  3> 
|  4> %scf
|  5>   MaxCore 2000
|  6> end
|  7> %mp2
|  8>   MaxCore 2000
|  9> end
| 10> * xyz 0 1
| 11>    C       -3.07200         6.46200         0.42400
| 12>    C        1.47400         4.04100         0.05700
| 13>    C       -2.80200         4.09300         0.04900
| 14>    C       -4.16700         4.04000        -0.27400
| 15>    C       -4.93200         5.18900        -0.24100
| 16>    C       -5.22300         7.59600         0.09700
| 17>    C        0.13200         4.30700         0.06100
| 18>    C       -0.56900         3.05600         0.04700
| 19>    C        1.64900         2.61800         0.02300
| 20>    C       -2.26500         5.34100         0.40000
| 21>    N       -4.38400         6.37600         0.10800
| 22>    N        0.38800         2.06700         0.02500
| 23>    N       -2.01000         0.39500        -0.07500
| 24>    N       -0.38800        -2.07400        -0.02700
| 25>    N        2.01000        -0.40100         0.06500
| 26>    C       -1.96000         2.86100         0.02400
| 27>    C       -2.62300         1.61500        -0.01800
| 28>    C       -5.57300        -4.32900         1.06600
| 29>    C       -4.07300         1.47100         0.05600
| 30>    C       -4.10600        -2.75600        -0.02600
| 31>    C       -4.99500        -2.75700        -1.11100
| 32>    C       -6.13200        -3.54200        -1.07600
| 33>    C       -7.65100        -5.11300         0.04000
| 34>    C       -4.32400         0.14100         0.03700
| 35>    C       -3.02500        -0.52000        -0.04800
| 36>    C       -4.42200        -3.56600         1.07500
| 37>    N       -6.40700        -4.31300         0.00100
| 38>    C       -2.86700        -1.92200        -0.04000
| 39>    C       -1.65000        -2.62400        -0.02700
| 40>    C        3.56800        -6.14200        -1.04000
| 41>    C       -1.47600        -4.04900        -0.03400
| 42>    C        2.80300        -4.09900        -0.00800
| 43>    C        3.65700        -4.38400         1.06900
| 44>    C        4.42700        -5.53000         1.05900
| 45>    C        5.24500        -7.58800         0.01400
| 46>    C       -0.13400        -4.31500        -0.02200
| 47>    C        0.56800        -3.06400        -0.02700
| 48>    C        2.77500        -5.01200        -1.07400
| 49>    N        4.37600        -6.39100         0.01700
| 50>    C        1.95900        -2.86900        -0.00900
| 51>    C        2.62100        -1.62200         0.00900
| 52>    C        5.54300         4.33900        -1.13000
| 53>    C        4.07000        -1.47900        -0.09400
| 54>    C        4.10400         2.75100        -0.02100
| 55>    C        5.02700         2.72900         1.03600
| 56>    C        6.16600         3.50900         0.97800
| 57>    C        7.61900         5.15300        -0.11500
| 58>    C        4.32100        -0.14800        -0.09200
| 59>    C        3.02500         0.51400         0.01500
| 60>    C        4.38700         3.58200        -1.11500
| 61>    C        2.86600         1.91600         0.01300
| 62>    N        6.41300         4.29600        -0.09500
| 63>    H       -2.70400         7.44200         0.70000
| 64>    H        2.27400         4.76600         0.08100
| 65>    H       -4.63700         3.10800        -0.56200
| 66>    H       -5.98500         5.19900        -0.49000
| 67>    H       -5.23000         8.01400        -0.91200
| 68>    H       -6.23500         7.32800         0.39900
| 69>    H       -4.80200         8.31600         0.79700
| 70>    H       -0.33200         5.28200         0.06900
| 71>    H       -1.22100         5.44500         0.67300
| 72>    H        0.18200         1.07200         0.00500
| 73>    H       -0.18300        -1.08000        -0.02100
| 74>    H       -5.86400        -4.96200         1.89500
| 75>    H       -4.79400         2.27200         0.13900
| 76>    H       -4.80000        -2.16000        -1.99400
| 77>    H       -6.84100        -3.58200        -1.89300
| 78>    H       -8.42800        -4.53600         0.54600
| 79>    H       -7.95600        -5.33700        -0.98100
| 80>    H       -7.45600        -6.03700         0.58400
| 81>    H       -5.28700        -0.34400         0.10000
| 82>    H       -3.78000        -3.60100         1.94700
| 83>    H        3.58700        -6.86800        -1.84300
| 84>    H       -2.27600        -4.77400        -0.05000
| 85>    H        3.71400        -3.72400         1.92600
| 86>    H        5.09200        -5.79500         1.87100
| 87>    H        6.20500        -7.32900        -0.43900
| 88>    H        5.39300        -7.91700         1.04200
| 89>    H        4.75900        -8.37300        -0.56400
| 90>    H        0.32900        -5.29000        -0.00800
| 91>    H        2.14600        -4.84200        -1.94000
| 92>    H        5.80800         4.98600        -1.95600
| 93>    H        4.78800        -2.28100        -0.18500
| 94>    H        4.86000         2.11400         1.91200
| 95>    H        6.90100         3.53100         1.77200
| 96>    H        7.38300         6.10900         0.35600
| 97>    H        8.41400         4.65200         0.43500
| 98>    H        7.92100         5.31000        -1.15000
| 99>    H        5.28300         0.33600        -0.17900
|100>    H        3.72000         3.63200        -1.96700
|101> *
|102> 
|103>                          ****END OF INPUT****
================================================================================

                       ****************************
                       * Single Point Calculation *
                       ****************************

---------------------------------
CARTESIAN COORDINATES (ANGSTROEM)
---------------------------------
  C     -3.072000    6.462000    0.424000
  C      1.474000    4.041000    0.057000
  C     -2.802000    4.093000    0.049000
  C     -4.167000    4.040000   -0.274000
  C     -4.932000    5.189000   -0.241000
  C     -5.223000    7.596000    0.097000
  C      0.132000    4.307000    0.061000
  C     -0.569000    3.056000    0.047000
  C      1.649000    2.618000    0.023000
  C     -2.265000    5.341000    0.400000
  N     -4.384000    6.376000    0.108000
  N      0.388000    2.067000    0.025000
  N     -2.010000    0.395000   -0.075000
  N     -0.388000   -2.074000   -0.027000
  N      2.010000   -0.401000    0.065000
  C     -1.960000    2.861000    0.024000
  C     -2.623000    1.615000   -0.018000
  C     -5.573000   -4.329000    1.066000
  C     -4.073000    1.471000    0.056000
  C     -4.106000   -2.756000   -0.026000
  C     -4.995000   -2.757000   -1.111000
  C     -6.132000   -3.542000   -1.076000
  C     -7.651000   -5.113000    0.040000
  C     -4.324000    0.141000    0.037000
  C     -3.025000   -0.520000   -0.048000
  C     -4.422000   -3.566000    1.075000
  N     -6.407000   -4.313000    0.001000
  C     -2.867000   -1.922000   -0.040000
  C     -1.650000   -2.624000   -0.027000
  C      3.568000   -6.142000   -1.040000
  C     -1.476000   -4.049000   -0.034000
  C      2.803000   -4.099000   -0.008000
  C      3.657000   -4.384000    1.069000
  C      4.427000   -5.530000    1.059000
  C      5.245000   -7.588000    0.014000
  C     -0.134000   -4.315000   -0.022000
  C      0.568000   -3.064000   -0.027000
  C      2.775000   -5.012000   -1.074000
  N      4.376000   -6.391000    0.017000
  C      1.959000   -2.869000   -0.009000
  C      2.621000   -1.622000    0.009000
  C      5.543000    4.339000   -1.130000
  C      4.070000   -1.479000   -0.094000
  C      4.104000    2.751000   -0.021000
  C      5.027000    2.729000    1.036000
  C      6.166000    3.509000    0.978000
  C      7.619000    5.153000   -0.115000
  C      4.321000   -0.148000   -0.092000
  C      3.025000    0.514000    0.015000
  C      4.387000    3.582000   -1.115000
  C      2.866000    1.916000    0.013000
  N      6.413000    4.296000   -0.095000
  H     -2.704000    7.442000    0.700000
  H      2.274000    4.766000    0.081000
  H     -4.637000    3.108000   -0.562000
  H     -5.985000    5.199000   -0.490000
  H     -5.230000    8.014000   -0.912000
  H     -6.235000    7.328000    0.399000
  H     -4.802000    8.316000    0.797000
  H     -0.332000    5.282000    0.069000
  H     -1.221000    5.445000    0.673000
  H      0.182000    1.072000    0.005000
  H     -0.183000   -1.080000   -0.021000
  H     -5.864000   -4.962000    1.895000
  H     -4.794000    2.272000    0.139000
  H     -4.800000   -2.160000   -1.994000
  H     -6.841000   -3.582000   -1.893000
  H     -8.428000   -4.536000    0.546000
  H     -7.956000   -5.337000   -0.981000
  H     -7.456000   -6.037000    0.584000
  H     -5.287000   -0.344000    0.100000
  H     -3.780000   -3.601000    1.947000
  H      3.587000   -6.868000   -1.843000
  H     -2.276000   -4.774000   -0.050000
  H      3.714000   -3.724000    1.926000
  H      5.092000   -5.795000    1.871000
  H      6.205000   -7.329000   -0.439000
  H      5.393000   -7.917000    1.042000
  H      4.759000   -8.373000   -0.564000
  H      0.329000   -5.290000   -0.008000
  H      2.146000   -4.842000   -1.940000
  H      5.808000    4.986000   -1.956000
  H      4.788000   -2.281000   -0.185000
  H      4.860000    2.114000    1.912000
  H      6.901000    3.531000    1.772000
  H      7.383000    6.109000    0.356000
  H      8.414000    4.652000    0.435000
  H      7.921000    5.310000   -1.150000
  H      5.283000    0.336000   -0.179000
  H      3.720000    3.632000   -1.967000

----------------------------
CARTESIAN COORDINATES (A.U.)
----------------------------
  NO LB      ZA    FRAG     MASS         X           Y           Z
   0 C     6.0000    0    12.011   -5.805239   12.211410    0.801244
   1 C     6.0000    0    12.011    2.785456    7.636383    0.107714
   2 C     6.0000    0    12.011   -5.295013    7.734649    0.092597
   3 C     6.0000    0    12.011   -7.874489    7.634494   -0.517785
   4 C     6.0000    0    12.011   -9.320129    9.805789   -0.455424
   5 C     6.0000    0    12.011   -9.870040   14.354360    0.183303
   6 C     6.0000    0    12.011    0.249444    8.139050    0.115273
   7 C     6.0000    0    12.011   -1.075254    5.775003    0.088817
   8 C     6.0000    0    12.011    3.116158    4.947303    0.043464
   9 C     6.0000    0    12.011   -4.280230   10.093027    0.755890
  10 N     7.0000    0    14.007   -8.284559   12.048894    0.204090
  11 N     7.0000    0    14.007    0.733214    3.906064    0.047243
  12 N     7.0000    0    14.007   -3.798350    0.746442   -0.141729
  13 N     7.0000    0    14.007   -0.733214   -3.919292   -0.051023
  14 N     7.0000    0    14.007    3.798350   -0.757780    0.122832
  15 C     6.0000    0    12.011   -3.703863    5.406506    0.045353
  16 C     6.0000    0    12.011   -4.956752    3.051908   -0.034015
  17 C     6.0000    0    12.011  -10.531444   -8.180624    2.014448
  18 C     6.0000    0    12.011   -7.696855    2.779787    0.105825
  19 C     6.0000    0    12.011   -7.759216   -5.208085   -0.049133
  20 C     6.0000    0    12.011   -9.439182   -5.209975   -2.099486
  21 C     6.0000    0    12.011  -11.587801   -6.693410   -2.033345
  22 C     6.0000    0    12.011  -14.458295   -9.662170    0.075589
  23 C     6.0000    0    12.011   -8.171176    0.266451    0.069920
  24 C     6.0000    0    12.011   -5.716422   -0.982658   -0.090707
  25 C     6.0000    0    12.011   -8.356369   -6.738763    2.031456
  26 N     7.0000    0    14.007  -12.107475   -8.150389    0.001890
  27 C     6.0000    0    12.011   -5.417845   -3.632054   -0.075589
  28 C     6.0000    0    12.011   -3.118048   -4.958641   -0.051023
  29 C     6.0000    0    12.011    6.742543  -11.606698   -1.965315
  30 C     6.0000    0    12.011   -2.789236   -7.651501   -0.064251
  31 C     6.0000    0    12.011    5.296902   -7.745987   -0.015118
  32 C     6.0000    0    12.011    6.910728   -8.284559    2.020117
  33 C     6.0000    0    12.011    8.365818  -10.450186    2.001220
  34 C     6.0000    0    12.011    9.911614  -14.339242    0.026456
  35 C     6.0000    0    12.011   -0.253223   -8.154168   -0.041574
  36 C     6.0000    0    12.011    1.073364   -5.790121   -0.051023
  37 C     6.0000    0    12.011    5.243990   -9.471307   -2.029566
  38 N     7.0000    0    14.007    8.269442  -12.077240    0.032125
  39 C     6.0000    0    12.011    3.701973   -5.421624   -0.017008
  40 C     6.0000    0    12.011    4.952972   -3.065136    0.017008
  41 C     6.0000    0    12.011   10.474752    8.199522   -2.135391
  42 C     6.0000    0    12.011    7.691185   -2.794905   -0.177634
  43 C     6.0000    0    12.011    7.755436    5.198637   -0.039684
  44 C     6.0000    0    12.011    9.499653    5.157063    1.957756
  45 C     6.0000    0    12.011   11.652051    6.631049    1.848152
  46 C     6.0000    0    12.011   14.397823    9.737759   -0.217319
  47 C     6.0000    0    12.011    8.165507   -0.279679   -0.173855
  48 C     6.0000    0    12.011    5.716422    0.971319    0.028346
  49 C     6.0000    0    12.011    8.290229    6.768999   -2.107045
  50 C     6.0000    0    12.011    5.415955    3.620715    0.024566
  51 N     7.0000    0    14.007   12.118814    8.118263   -0.179524
  52 H     1.0000    0     1.008   -5.109819   14.063342    1.322808
  53 H     1.0000    0     1.008    4.297237    9.006435    0.153068
  54 H     1.0000    0     1.008   -8.762660    5.873269   -1.062026
  55 H     1.0000    0     1.008  -11.310011    9.824686   -0.925966
  56 H     1.0000    0     1.008   -9.883268   15.144265   -1.723430
  57 H     1.0000    0     1.008  -11.782442   13.847913    0.754001
  58 H     1.0000    0     1.008   -9.074465   15.714963    1.506112
  59 H     1.0000    0     1.008   -0.627389    9.981533    0.130391
  60 H     1.0000    0     1.008   -2.307356   10.289559    1.271786
  61 H     1.0000    0     1.008    0.343930    2.025786    0.009449
  62 H     1.0000    0     1.008   -0.345820   -2.040904   -0.039684
  63 H     1.0000    0     1.008  -11.081354   -9.376821    3.581031
  64 H     1.0000    0     1.008   -9.059347    4.293458    0.262672
  65 H     1.0000    0     1.008   -9.070685   -4.081808   -3.768114
  66 H     1.0000    0     1.008  -12.927616   -6.768999   -3.577252
  67 H     1.0000    0     1.008  -15.926612   -8.571798    1.031790
  68 H     1.0000    0     1.008  -15.034661  -10.085468   -1.853821
  69 H     1.0000    0     1.008  -14.089798  -11.408277    1.103600
  70 H     1.0000    0     1.008   -9.990982   -0.650066    0.188973
  71 H     1.0000    0     1.008   -7.143165   -6.804904    3.679297
  72 H     1.0000    0     1.008    6.778448  -12.978639   -3.482765
  73 H     1.0000    0     1.008   -4.301017   -9.021553   -0.094486
  74 H     1.0000    0     1.008    7.018443   -7.037340    3.639613
  75 H     1.0000    0     1.008    9.622485  -10.950963    3.535678
  76 H     1.0000    0     1.008   11.725751  -13.849803   -0.829590
  77 H     1.0000    0     1.008   10.191293  -14.960962    1.969095
  78 H     1.0000    0     1.008    8.993207  -15.822677   -1.065806
  79 H     1.0000    0     1.008    0.621720   -9.996651   -0.015118
  80 H     1.0000    0     1.008    4.055352   -9.150054   -3.666069
  81 H     1.0000    0     1.008   10.975529    9.422175   -3.696304
  82 H     1.0000    0     1.008    9.048009   -4.310465   -0.349599
  83 H     1.0000    0     1.008    9.184069    3.994881    3.613156
  84 H     1.0000    0     1.008   13.041000    6.672623    3.348595
  85 H     1.0000    0     1.008   13.951848   11.544337    0.672743
  86 H     1.0000    0     1.008   15.900156    8.791006    0.822031
  87 H     1.0000    0     1.008   14.968521   10.034446   -2.173185
  88 H     1.0000    0     1.008    9.983423    0.634948   -0.338261
  89 H     1.0000    0     1.008    7.029781    6.863485   -3.717091

--------------------------------
INTERNAL COORDINATES (ANGSTROEM)
--------------------------------
 C      0   0   0     0.000000000000     0.00000000     0.00000000
 C      1   0   0     5.163530381435     0.00000000     0.00000000
 C      1   2   0     2.413645790086    55.26923229     0.00000000
 C      3   1   2     1.403696192201    87.93861384   192.58169176
 C      4   3   1     1.380766091704   120.12231078     0.15587683
 C      5   4   3     2.447973447568   152.54575985     1.57105416
 C      2   1   3     1.368114030335    17.25983882     4.62205944
 C      7   2   1     1.434084376876   108.05010202   192.66237441
 C      2   1   3     1.434123425651   125.05383115   350.74363649
 C      1   2   3     1.381472402909    26.36361362    14.05673302
 N      1   2   3     1.352255892943   143.87847179   338.38211579
 N      9   2   1     1.376127174356   106.58526707     3.53447141
 N     12   9   2     2.925062050624   168.53581413   171.12065651
 N     13  12   9     2.954513327098    91.55032014    11.12112580
 N     14  13  12     2.925371258490    88.43092389   359.84326247
 C      8   7   2     1.404790019896   127.24786865   181.11170171
 C     13  12   9     1.366535034311    81.72106996   188.00453233
 C     14  13  12     5.758810554272    80.56209567   166.76250791
 C     17  13  12     1.459010623676   111.08861209   183.82872609
 C     18  14  13     2.412235892279    27.27532823    36.33507194
 C     20  18  14     1.402692767501    87.95206320   148.94598259
 C     21  20  18     1.382106725257   120.14573887   359.70382047
 C     18  14  13     2.446510985056   144.15733107    82.80075377
 C     19  17  13     1.353610726908   106.29293361   359.75308708
 C     13  12   9     1.366813447402   172.21332906    33.46711076
 C     18  14  13     1.380960173213    15.08449437   309.23336894
 N     22  21  20     1.352773077792   120.73759875     0.27865223
 C     25  13  17     1.410897586645   125.60330303   182.37774668
 C     14  13  12     1.376642291955    80.24689249   177.85461986
 C     14  13  12     5.764089607215   164.51507311   312.20821879
 C     29  14  13     1.435600919476   106.58649366   178.76395472
 C     30  14  13     2.413316804732    27.10625047    82.12560436
 C     32  30  14     1.403734305344    87.90059683   149.76154742
 C     33  32  30     1.380694028378   120.14881443   359.74174632
 C     34  33  32     2.448777858443   152.49203239     2.45173620
 C     31  29  14     1.368160809262   108.16950133     0.70383075
 C     14  13  12     1.376239804685   169.26375223   353.09862627
 C     30  14  13     1.380907310430    14.68948582   353.70041132
 N     34  33  32     1.352658863128   120.85575621     0.19603406
 C     37  14  29     1.404717053360   126.01551127   180.90772073
 C     15  14  13     1.366491126938    81.61824056   183.09049352
 C      2   1   3     4.249062720177   146.10580151   148.60692853
 C     41  15  14     1.459677704153   111.05201287   175.08990246
 C     42   2   1     2.412953791518    41.78584867   174.34967246
 C     44  42   2     1.403446472082    87.95153797   233.97558675
 C     45  44  42     1.381696421071   120.11137308     0.19721020
 C     42   2   1     2.450019795838   135.97209175    84.66452156
 C     43  41  15     1.354461516618   106.26758155     0.30894352
 C     15  14  13     1.367461151185   171.87382904   332.35056460
 C     42   2   1     1.381886391857    32.59078432   223.20495165
 C      9   2   1     1.404988612053   126.98745415   184.53880894
 N     42   2   1     1.352765315936   113.57249190   112.40111076
 H      1   2   3     1.082589488218    98.23780577   173.69980342
 H      2   1   3     1.079907866440   109.62446733   174.75675158
 H      4   3   1     1.082805615057   121.05050506   179.51149836
 H      5   4   3     1.082085948527   122.77480475   179.45192694
 H      6   5   4     1.092178556830   104.44907275   100.13122885
 H      6   5   4     1.089574228770    84.65398935   209.57812255
 H      6   5   4     1.088871434100   133.86560718   322.45033885
 H      7   2   1     1.079807853278   126.66122480    12.90078820
 H     10   1   2     1.084103777320   118.70701097    24.43966438
 H     12   9   2     1.016297692608   125.29023241   180.00180175
 H     14  13  12     1.014936943854    44.97226959   359.42596618
 H     18  14  13     1.082871645210   128.03556573   234.20482432
 H     19  17  13     1.080893611786   126.41830519   178.11313280
 H     21  20  18     1.083569563987   121.05669627   180.67006309
 H     22  21  20     1.082483256222   122.73097286   180.59748951
 H     23  18  14     1.092105306278   103.92715769   234.93429879
 H     23  18  14     1.088871893291   134.19244188    12.25587044
 H     23  18  14     1.089833473518    84.85857450   125.45241208
 H     24  19  17     1.080075460327   127.28078426   178.44613241
 H     26  18  14     1.083408048706   118.76995697   244.94906660
 H     30  14  13     1.082703098730   127.99711412   279.66882698
 H     31  29  14     1.079759695488   125.22293469   180.92530585
 H     33  32  30     1.083188810873   121.01964473   180.74284758
 H     34  33  32     1.082494341787   122.70821597   180.59516895
 H     35  34  33     1.092652735319   105.73575241    97.19771933
 H     35  34  33     1.089462711615    84.05943581   206.43036958
 H     35  34  33     1.089268102902   133.08365142   318.50306270
 H     36  31  29     1.079439669458   126.61599965   178.98859863
 H     38  30  73     1.083742127999   118.77264435   359.90091293
 H     42   2   1     1.082178358682   119.31790784   329.03264121
 H     43  41  15     1.080281907652   126.36969097   182.06329380
 H     45  44  42     1.083277434455   121.10105945   179.58025624
 H     46  45  44     1.082194529648   122.72144639   179.46906377
 H     47  42   2     1.091546151109   106.65128841   315.16475048
 H     47  42   2     1.088818625851   132.46019523    94.52397119
 H     47  42   2     1.089531091801    83.63838232   206.04504406
 H     48  43  41     1.080402239909   127.23657387   181.62955349
 H     50  42   2     1.083186502870   118.77001737    94.71359229

---------------------------
INTERNAL COORDINATES (A.U.)
---------------------------
 C      0   0   0     0.000000000000     0.00000000     0.00000000
 C      1   0   0     9.757658305094     0.00000000     0.00000000
 C      1   2   0     4.561129527555    55.26923229     0.00000000
 C      3   1   2     2.652601378488    87.93861384   192.58169176
 C      4   3   1     2.609269768326   120.12231078     0.15587683
 C      5   4   3     4.625999399015   152.54575985     1.57105416
 C      2   1   3     2.585360837309    17.25983882     4.62205944
 C      7   2   1     2.710026725231   108.05010202   192.66237441
 C      2   1   3     2.710100516721   125.05383115   350.74363649
 C      1   2   3     2.610604503069    26.36361362    14.05673302
 N      1   2   3     2.555393300644   143.87847179   338.38211579
 N      9   2   1     2.600503484979   106.58526707     3.53447141
 N     12   9   2     5.527566200405   168.53581413   171.12065651
 N     13  12   9     5.583221047236    91.55032014    11.12112580
 N     14  13  12     5.528150518591    88.43092389   359.84326247
 C      8   7   2     2.654668413270   127.24786865   181.11170171
 C     13  12   9     2.582376967257    81.72106996   188.00453233
 C     14  13  12    10.882574804710    80.56209567   166.76250791
 C     17  13  12     2.757130505230   111.08861209   183.82872609
 C     18  14  13     4.558465206823    27.27532823    36.33507194
 C     20  18  14     2.650705180609    87.95206320   148.94598259
 C     21  20  18     2.611803198586   120.14573887   359.70382047
 C     18  14  13     4.623235745386   144.15733107    82.80075377
 C     19  17  13     2.557953565794   106.29293361   359.75308708
 C     13  12   9     2.582903091751   172.21332906    33.46711076
 C     18  14  13     2.609636529225    15.08449437   309.23336894
 N     22  21  20     2.556370638369   120.73759875     0.27865223
 C     25  13  17     2.666210041769   125.60330303   182.37774668
 C     14  13  12     2.601476916169    80.24689249   177.85461986
 C     14  13  12    10.892550769017   164.51507311   312.20821879
 C     29  14  13     2.712892575415   106.58649366   178.76395472
 C     30  14  13     4.560507835333    27.10625047    82.12560436
 C     32  30  14     2.652673401891    87.90059683   149.76154742
 C     33  32  30     2.609133588376   120.14881443   359.74174632
 C     34  33  32     4.627519515267   152.49203239     2.45173620
 C     31  29  14     2.585449236669   108.16950133     0.70383075
 C     14  13  12     2.600716325456   169.26375223   353.09862627
 C     30  14  13     2.609536633043    14.68948582   353.70041132
 N     34  33  32     2.556154803934   120.85575621     0.19603406
 C     37  14  29     2.654530526499   126.01551127   180.90772073
 C     15  14  13     2.582293994346    81.61824056   183.09049352
 C      2   1   3     8.029564866989   146.10580151   148.60692853
 C     41  15  14     2.758391104639   111.05201287   175.08990246
 C     42   2   1     4.559821839776    41.78584867   174.34967246
 C     44  42   2     2.652129475853    87.95153797   233.97558675
 C     45  44  42     2.611027836043   120.11137308     0.19721020
 C     42   2   1     4.629866436820   135.97209175    84.66452156
 C     43  41  15     2.559561325344   106.26758155     0.30894352
 C     15  14  13     2.584127074516   171.87382904   332.35056460
 C     42   2   1     2.611386828803    32.59078432   223.20495165
 C      9   2   1     2.655043698059   126.98745415   184.53880894
 N     42   2   1     2.556355970587   113.57249190   112.40111076
 H      1   2   3     2.045797648194    98.23780577   173.69980342
 H      2   1   3     2.040730117440   109.62446733   174.75675158
 H      4   3   1     2.046206068731   121.05050506   179.51149836
 H      5   4   3     2.044846096081   122.77480475   179.45192694
 H      6   5   4     2.063918361751   104.44907275   100.13122885
 H      6   5   4     2.058996894954    84.65398935   209.57812255
 H      6   5   4     2.057668805500   133.86560718   322.45033885
 H      7   2   1     2.040541119952   126.66122480    12.90078820
 H     10   1   2     2.048659239885   118.70701097    24.43966438
 H     12   9   2     1.920524309565   125.29023241   180.00180175
 H     14  13  12     1.917952867083    44.97226959   359.42596618
 H     18  14  13     2.046330847636   128.03556573   234.20482432
 H     19  17  13     2.042592906181   126.41830519   178.11313280
 H     21  20  18     2.047649722989   121.05669627   180.67006309
 H     22  21  20     2.045596898814   122.73097286   180.59748951
 H     23  18  14     2.063779938267   103.92715769   234.93429879
 H     23  18  14     2.057669673245   134.19244188    12.25587044
 H     23  18  14     2.059486796529    84.85857450   125.45241208
 H     24  19  17     2.041046823986   127.28078426   178.44613241
 H     26  18  14     2.047344503340   118.76995697   244.94906660
 H     30  14  13     2.046012340948   127.99711412   279.66882698
 H     31  29  14     2.040450114918   125.22293469   180.92530585
 H     33  32  30     2.046930203877   121.01964473   180.74284758
 H     34  33  32     2.045617847496   122.70821597   180.59516895
 H     35  34  33     2.064814429233   105.73575241    97.19771933
 H     35  34  33     2.058786158072    84.05943581   206.43036958
 H     35  34  33     2.058418400901   133.08365142   318.50306270
 H     36  31  29     2.039845353366   126.61599965   178.98859863
 H     38  30  73     2.047975821711   118.77264435   359.90091293
 H     42   2   1     2.045020725966   119.31790784   329.03264121
 H     43  41  15     2.041436952892   126.36969097   182.06329380
 H     45  44  42     2.047097678177   121.10105945   179.58025624
 H     46  45  44     2.045051284662   122.72144639   179.46906377
 H     47  42   2     2.062723288131   106.65128841   315.16475048
 H     47  42   2     2.057569012371   132.46019523    94.52397119
 H     47  42   2     2.058915377895    83.63838232   206.04504406
 H     48  43  41     2.041664347903   127.23657387   181.62955349
 H     50  42   2     2.046925842384   118.77001737    94.71359229

---------------------
BASIS SET INFORMATION
---------------------
There are 3 groups of distinct atoms

 Group   1 Type C   : 17s4p1d contracted to 3s2p1d pattern {881/31/1}
 Group   2 Type N   : 17s4p1d contracted to 3s2p1d pattern {881/31/1}
 Group   3 Type H   : 4s1p contracted to 2s1p pattern {31/1}

Atom   0C    basis set group =>   1
Atom   1N    basis set group =>   2
Atom   2C    basis set group =>   1
Atom   3N    basis set group =>   2
Atom   4C    basis set group =>   1
Atom   5N    basis set group =>   2
Atom   6C    basis set group =>   1
Atom   7N    basis set group =>   2
Atom   8C    basis set group =>   1
Atom   9N    basis set group =>   2
Atom  10C    basis set group =>   1
Atom  11N    basis set group =>   2
Atom  12C    basis set group =>   1
Atom  13N    basis set group =>   2
Atom  14C    basis set group =>   1
Atom  15N    basis set group =>   2
Atom  16C    basis set group =>   1
Atom  17C    basis set group =>   1
Atom  18C    basis set group =>   1
Atom  19C    basis set group =>   1
Atom  20C    basis set group =>   1
Atom  21C    basis set group =>   1
Atom  22C    basis set group =>   1
Atom  23C    basis set group =>   1
Atom  24C    basis set group =>   1
Atom  25C    basis set group =>   1
Atom  26C    basis set group =>   1
Atom  27C    basis set group =>   1
Atom  28C    basis set group =>   1
Atom  29C    basis set group =>   1
Atom  30C    basis set group =>   1
Atom  31C    basis set group =>   1
Atom  32C    basis set group =>   1
Atom  33C    basis set group =>   1
Atom  34C    basis set group =>   1
Atom  35C    basis set group =>   1
Atom  36C    basis set group =>   1
Atom  37C    basis set group =>   1
Atom  38C    basis set group =>   1
Atom  39C    basis set group =>   1
Atom  40C    basis set group =>   1
Atom  41C    basis set group =>   1
Atom  42C    basis set group =>   1
Atom  43C    basis set group =>   1
Atom  44C    basis set group =>   1
Atom  45C    basis set group =>   1
Atom  46C    basis set group =>   1
Atom  47C    basis set group =>   1
Atom  48C    basis set group =>   1
Atom  49C    basis set group =>   1
Atom  50C    basis set group =>   1
Atom  51C    basis set group =>   1
Atom  52H    basis set group =>   3
Atom  53H    basis set group =>   3
Atom  54H    basis set group =>   3
Atom  55H    basis set group =>   3
Atom  56H    basis set group =>   3
Atom  57H    basis set group =>   3
Atom  58H    basis set group =>   3
Atom  59H    basis set group =>   3
Atom  60H    basis set group =>   3
Atom  61H    basis set group =>   3
Atom  62H    basis set group =>   3
Atom  63H    basis set group =>   3
Atom  64H    basis set group =>   3
Atom  65H    basis set group =>   3
Atom  66H    basis set group =>   3
Atom  67H    basis set group =>   3
Atom  68H    basis set group =>   3
Atom  69H    basis set group =>   3
Atom  70H    basis set group =>   3
Atom  71H    basis set group =>   3
Atom  72H    basis set group =>   3
Atom  73H    basis set group =>   3
Atom  74H    basis set group =>   3
Atom  75H    basis set group =>   3
Atom  76H    basis set group =>   3
Atom  77H    basis set group =>   3
Atom  78H    basis set group =>   3
Atom  79H    basis set group =>   3
Atom  80H    basis set group =>   3
Atom  81H    basis set group =>   3
Atom  82H    basis set group =>   3
Atom  83H    basis set group =>   3
Atom  84H    basis set group =>   3
Atom  85H    basis set group =>   3
Atom  86H    basis set group =>   3
Atom  87H    basis set group =>   3
Atom  88H    basis set group =>   3
Atom  89H    basis set group =>   3


           ************************************************************
           *        Program running with 8 parallel MPI-processes     *
           *              working on a common directory               *
           ************************************************************
------------------------------------------------------------------------------
                           ORCA GTO INTEGRAL CALCULATION
------------------------------------------------------------------------------
------------------------------------------------------------------------------
                   ___                                                        
                  /   \      - P O W E R E D   B Y -                         
                 /     \                                                     
                 |  |  |   _    _      __       _____    __    __             
                 |  |  |  | |  | |    /  \     |  _  \  |  |  /  |          
                  \  \/   | |  | |   /    \    | | | |  |  | /  /          
                 / \  \   | |__| |  /  /\  \   | |_| |  |  |/  /          
                |  |  |   |  __  | /  /__\  \  |    /   |      \           
                |  |  |   | |  | | |   __   |  |    \   |  |\   \          
                \     /   | |  | | |  |  |  |  | |\  \  |  | \   \       
                 \___/    |_|  |_| |__|  |__|  |_| \__\ |__|  \__/        
                                                                              
                      - O R C A' S   B I G   F R I E N D -                    
                                      &                                       
                       - I N T E G R A L  F E E D E R -                       
                                                                              
 v1 FN, 2020, v2 2021                                                         
------------------------------------------------------------------------------


Reading SHARK input file /scratch/chu_02/allen/tmpyp4_amber_gaff2/conf1/conf1/Conf346.orca.SHARKINP.tmp ... ok
----------------------
SHARK INTEGRAL PACKAGE
----------------------

Number of atoms                             ...     90
Number of basis functions                   ...   1230
Number of shells                            ...    738
Maximum angular momentum                    ...      2
Integral batch strategy                     ... SHARK/LIBINT Hybrid
RI-J (if used) integral strategy            ... SPLIT-RIJ (Revised 2003 algorithm where possible)
Printlevel                                  ...      1
Contraction scheme used                     ... PARTIAL GENERAL contraction
Coulomb Range Separation                    ... NOT USED
Exchange Range Separation                   ... NOT USED
Finite Nucleus Model                        ... NOT USED
Auxiliary Coulomb fitting basis             ... NOT available
Auxiliary J/K fitting basis                 ... NOT available
Auxiliary Correlation fitting basis         ... NOT available
Auxiliary 'external' fitting basis          ... NOT available
Integral threshold                          ...     2.500000e-11
Primitive cut-off                           ...     2.500000e-12
Primitive pair pre-selection threshold      ...     2.500000e-12

Calculating pre-screening integrals         ... done (  0.1 sec) Dimension = 738
Calculating pre-screening integrals (ORCA)  ... done (  0.3 sec) Dimension = 426
Organizing shell pair data                  ... done (  0.5 sec)
Shell pair information
Total number of shell pairs                 ...    272691
Shell pairs after pre-screening             ...     71718
Total number of primitive shell pairs       ...    422091
Primitive shell pairs kept                  ...     92628
          la=0 lb=0:  29435 shell pairs
          la=1 lb=0:  26038 shell pairs
          la=1 lb=1:   4702 shell pairs
          la=2 lb=0:   7890 shell pairs
          la=2 lb=1:   3124 shell pairs
          la=2 lb=2:    529 shell pairs

Calculating one electron integrals          ... done (  0.2 sec)
Calculating Nuclear repulsion               ... done (  0.0 sec) ENN=   6234.297724006427 Eh

SHARK setup successfully completed in   1.7 seconds

Maximum memory used throughout the entire GTOINT-calculation: 99.1 MB


           ************************************************************
           *        Program running with 8 parallel MPI-processes     *
           *              working on a common directory               *
           ************************************************************
-------------------------------------------------------------------------------
                                 ORCA SCF
-------------------------------------------------------------------------------

------------
SCF SETTINGS
------------
Hamiltonian:
 Ab initio Hamiltonian  Method          .... Hartree-Fock(GTOs)


General Settings:
 Integral files         IntName         .... /scratch/chu_02/allen/tmpyp4_amber_gaff2/conf1/conf1/Conf346.orca
 Hartree-Fock type      HFTyp           .... RHF
 Total Charge           Charge          ....    0
 Multiplicity           Mult            ....    1
 Number of Electrons    NEL             ....  358
 Basis Dimension        Dim             ....  918
 Nuclear Repulsion      ENuc            ....   6234.2977240064 Eh

Convergence Acceleration:
 DIIS                   CNVDIIS         .... on
   Start iteration      DIISMaxIt       ....    12
   Startup error        DIISStart       ....  0.200000
   # of expansion vecs  DIISMaxEq       ....     5
   Bias factor          DIISBfac        ....   1.050
   Max. coefficient     DIISMaxC        ....  10.000
 Trust-Rad. Augm. Hess. CNVTRAH         .... auto
   Auto Start mean grad. ratio tolernc. ....  1.125000
   Auto Start start iteration           ....    20
   Auto Start num. interpolation iter.  ....    10
   Max. Number of Micro iterations      ....    16
   Max. Number of Macro iterations      .... Maxiter - #DIIS iter
   Number of Davidson start vectors     ....     2
   Converg. threshold I  (grad. norm)   ....   1.000e-05
   Converg. threshold II (energy diff.) ....   1.000e-08
   Grad. Scal. Fac. for Micro threshold ....   0.100
   Minimum threshold for Micro iter.    ....   0.010
   NR start threshold (gradient norm)   ....   0.001
   Initial trust radius                 ....   0.400
   Minimum AH scaling param. (alpha)    ....   1.000
   Maximum AH scaling param. (alpha)    .... 1000.000
   Orbital update algorithm             .... Taylor
   White noise on init. David. guess    .... on
   Maximum white noise                  ....   0.010
   Quad. conv. algorithm                .... NR
 SOSCF                  CNVSOSCF        .... on
   Start iteration      SOSCFMaxIt      ....   150
   Startup grad/error   SOSCFStart      ....  0.003300
 Level Shifting         CNVShift        .... on
   Level shift para.    LevelShift      ....    0.2500
   Turn off err/grad.   ShiftErr        ....    0.0010
 Zerner damping         CNVZerner       .... off
 Static damping         CNVDamp         .... on
   Fraction old density DampFac         ....    0.7000
   Max. Damping (<1)    DampMax         ....    0.9800
   Min. Damping (>=0)   DampMin         ....    0.0000
   Turn off err/grad.   DampErr         ....    0.1000
 Fernandez-Rico         CNVRico         .... off

SCF Procedure:
 Maximum # iterations   MaxIter         ....   125
 SCF integral mode      SCFMode         .... Direct
   Integral package                     .... SHARK and LIBINT hybrid scheme
 Reset frequency        DirectResetFreq ....    20
 Integral Threshold     Thresh          ....  2.500e-11 Eh
 Primitive CutOff       TCut            ....  2.500e-12 Eh

Convergence Tolerance:
 Convergence Check Mode ConvCheckMode   .... Total+1el-Energy
 Convergence forced     ConvForced      .... 1
 Energy Change          TolE            ....  1.000e-08 Eh
 1-El. energy change                    ....  1.000e-05 Eh
 Orbital Gradient       TolG            ....  1.000e-05
 Orbital Rotation angle TolX            ....  1.000e-05
 DIIS Error             TolErr          ....  5.000e-07


Diagonalization of the overlap matrix:
Smallest eigenvalue                        ... 1.840e-04
Time for diagonalization                   ...    0.217 sec
Threshold for overlap eigenvalues          ... 1.000e-08
Number of eigenvalues below threshold      ... 0
Time for construction of square roots      ...    0.131 sec
Total time needed                          ...    0.352 sec

Time for model grid setup =    1.367 sec

------------------------------
INITIAL GUESS: MODEL POTENTIAL
------------------------------
Loading Hartree-Fock densities                     ... done
Calculating cut-offs                               ... done
Initializing the effective Hamiltonian             ... done
Setting up the integral package (SHARK)            ... done
Starting the Coulomb interaction                   ... done (   1.6 sec)
Reading the grid                                   ... done
Mapping shells                                     ... done
Starting the XC term evaluation                    ... done (   0.3 sec)
Transforming the Hamiltonian                       ... done (   0.1 sec)
Diagonalizing the Hamiltonian                      ... done (   0.2 sec)
Back transforming the eigenvectors                 ... done (   0.0 sec)
Now organizing SCF variables                       ... done
                      ------------------
                      INITIAL GUESS DONE (   3.7 sec)
                      ------------------
--------------
SCF ITERATIONS
--------------
ITER       Energy         Delta-E        Max-DP      RMS-DP      [F,P]     Damp
               ***  Starting incremental Fock matrix formation  ***
  0  -2121.6404251439   0.000000000000 0.08247043  0.00125576  0.2313149 0.7000
  1  -2122.2853119450  -0.644886801108 0.06233472  0.00102254  0.1435170 0.7000
                               ***Turning on DIIS***
  2  -2122.6873723613  -0.402060416332 0.14488575  0.00232309  0.0802987 0.0000
  3  -2118.0368813538   4.650491007478 0.05157199  0.00068753  0.0434936 0.0000
  4  -2123.3797851422  -5.342903788376 0.01552301  0.00022914  0.0091405 0.0000
  5  -2123.5168716505  -0.137086508355 0.00741132  0.00013286  0.0048615 0.0000
  6  -2123.5011817500   0.015689900507 0.00457358  0.00008504  0.0022024 0.0000
  7  -2123.5941297848  -0.092948034777 0.00316724  0.00006708  0.0016209 0.0000
  8  -2123.6014323787  -0.007302593835 0.00334814  0.00006411  0.0015156 0.0000
  9  -2123.5740877118   0.027344666891 0.00268012  0.00004566  0.0012187 0.0000
 10  -2123.5820508692  -0.007963157454 0.00539547  0.00009614  0.0009521 0.0000
                      *** Initiating the SOSCF procedure ***
                           *** Shutting down DIIS ***
                      *** Re-Reading the Fockian *** 
                      *** Removing any level shift *** 
ITER      Energy       Delta-E        Grad      Rot      Max-DP    RMS-DP
 11  -2123.47607972   0.1059711515  0.000178  0.000178  0.000241  0.000005
               *** Restarting incremental Fock matrix formation ***
 12  -2123.54170072  -0.0656210006  0.000895  0.006386  0.001487  0.000035
 13  -2123.54181282  -0.0001121020  0.001109  0.031251  0.006784  0.000139
 14  -2123.54199948  -0.0001866548  0.000383  0.001816  0.000595  0.000012
 15  -2123.54201454  -0.0000150617  0.000163  0.001933  0.000522  0.000013
 16  -2123.54202133  -0.0000067913  0.000140  0.002190  0.000476  0.000008
 17  -2123.54202377  -0.0000024437  0.000116  0.001676  0.000282  0.000006
 18  -2123.54202485  -0.0000010815  0.000057  0.000703  0.000217  0.000003
 19  -2123.54202543  -0.0000005718  0.000041  0.001042  0.000196  0.000004
 20  -2123.54202574  -0.0000003122  0.000021  0.000643  0.000099  0.000002
 21  -2123.54202588  -0.0000001423  0.000024  0.000870  0.000130  0.000003
 22  -2123.54202602  -0.0000001361  0.000019  0.000848  0.000134  0.000003
 23  -2123.54202610  -0.0000000888  0.000013  0.000445  0.000074  0.000001
 24  -2123.54202615  -0.0000000440  0.000007  0.000348  0.000055  0.000001
 25  -2123.54202618  -0.0000000311  0.000008  0.000130  0.000036  0.000001
 26  -2123.54202620  -0.0000000174  0.000006  0.000088  0.000030  0.000000
 27  -2123.54202620  -0.0000000080  0.000003  0.000072  0.000020  0.000000
                  ***Gradient check signals convergence***
              ***Rediagonalizing the Fockian in SOSCF/NRSCF***

               *****************************************************
               *                     SUCCESS                       *
               *           SCF CONVERGED AFTER  28 CYCLES          *
               *****************************************************


----------------
TOTAL SCF ENERGY
----------------

Total Energy       :        -2123.54202621 Eh          -57784.51624 eV

Components:
Nuclear Repulsion  :         6234.29772401 Eh          169643.86560 eV
Electronic Energy  :        -8357.83975022 Eh         -227428.38184 eV
One Electron Energy:       -15309.19567674 Eh         -416584.39311 eV
Two Electron Energy:         6951.35592652 Eh          189156.01127 eV

Virial components:
Potential Energy   :        -4245.97065375 Eh         -115538.73536 eV
Kinetic Energy     :         2122.42862753 Eh           57754.21912 eV
Virial Ratio       :            2.00052459


---------------
SCF CONVERGENCE
---------------

  Last Energy change         ...   -5.6170e-09  Tolerance :   1.0000e-08
  Last MAX-Density change    ...    1.0122e-05  Tolerance :   1.0000e-07
  Last RMS-Density change    ...    2.0037e-07  Tolerance :   5.0000e-09
  Last Orbital Gradient      ...    1.8550e-06  Tolerance :   1.0000e-05
  Last Orbital Rotation      ...    5.1268e-05  Tolerance :   1.0000e-05

             **** THE GBW FILE WAS UPDATED (/scratch/chu_02/allen/tmpyp4_amber_gaff2/conf1/conf1/Conf346.orca.gbw) ****
             **** DENSITY /scratch/chu_02/allen/tmpyp4_amber_gaff2/conf1/conf1/Conf346.orca.scfp WAS UPDATED ****
             **** ENERGY FILE WAS UPDATED (/scratch/chu_02/allen/tmpyp4_amber_gaff2/conf1/conf1/Conf346.orca.en.tmp) ****
             **** THE GBW FILE WAS UPDATED (/scratch/chu_02/allen/tmpyp4_amber_gaff2/conf1/conf1/Conf346.orca.gbw) ****
             **** DENSITY /scratch/chu_02/allen/tmpyp4_amber_gaff2/conf1/conf1/Conf346.orca.scfp WAS UPDATED ****
----------------
ORBITAL ENERGIES
----------------

  NO   OCC          E(Eh)            E(eV) 
   0   2.0000     -15.679628      -426.6644 
   1   2.0000     -15.635194      -425.4553 
   2   2.0000     -15.630709      -425.3332 
   3   2.0000     -15.587361      -424.1536 
   4   2.0000     -15.525515      -422.4707 
   5   2.0000     -15.515374      -422.1948 
   6   2.0000     -15.453513      -420.5115 
   7   2.0000     -15.440616      -420.1605 
   8   2.0000     -11.329446      -308.2899 
   9   2.0000     -11.328045      -308.2518 
  10   2.0000     -11.327826      -308.2458 
  11   2.0000     -11.300087      -307.4910 
  12   2.0000     -11.297652      -307.4247 
  13   2.0000     -11.293998      -307.3253 
  14   2.0000     -11.290248      -307.2233 
  15   2.0000     -11.287707      -307.1541 
  16   2.0000     -11.285577      -307.0962 
  17   2.0000     -11.281908      -306.9963 
  18   2.0000     -11.269787      -306.6665 
  19   2.0000     -11.263272      -306.4892 
  20   2.0000     -11.262289      -306.4625 
  21   2.0000     -11.252152      -306.1866 
  22   2.0000     -11.248570      -306.0891 
  23   2.0000     -11.238942      -305.8272 
  24   2.0000     -11.235527      -305.7342 
  25   2.0000     -11.232081      -305.6405 
  26   2.0000     -11.231442      -305.6231 
  27   2.0000     -11.228906      -305.5541 
  28   2.0000     -11.228594      -305.5456 
  29   2.0000     -11.211634      -305.0841 
  30   2.0000     -11.210187      -305.0447 
  31   2.0000     -11.194029      -304.6050 
  32   2.0000     -11.191525      -304.5369 
  33   2.0000     -11.190313      -304.5039 
  34   2.0000     -11.188030      -304.4418 
  35   2.0000     -11.187822      -304.4361 
  36   2.0000     -11.186469      -304.3993 
  37   2.0000     -11.178668      -304.1870 
  38   2.0000     -11.176591      -304.1305 
  39   2.0000     -11.175153      -304.0914 
  40   2.0000     -11.173188      -304.0379 
  41   2.0000     -11.169837      -303.9467 
  42   2.0000     -11.169144      -303.9279 
  43   2.0000     -11.161395      -303.7170 
  44   2.0000     -11.160357      -303.6887 
  45   2.0000     -11.157282      -303.6051 
  46   2.0000     -11.155947      -303.5688 
  47   2.0000     -11.153609      -303.5051 
  48   2.0000     -11.146127      -303.3015 
  49   2.0000     -11.135118      -303.0020 
  50   2.0000     -11.130207      -302.8683 
  51   2.0000     -11.117778      -302.5301 
  52   2.0000      -1.360238       -37.0140 
  53   2.0000      -1.322281       -35.9811 
  54   2.0000      -1.318648       -35.8822 
  55   2.0000      -1.280411       -34.8418 
  56   2.0000      -1.226660       -33.3791 
  57   2.0000      -1.209885       -32.9226 
  58   2.0000      -1.173052       -31.9204 
  59   2.0000      -1.151187       -31.3254 
  60   2.0000      -1.143528       -31.1170 
  61   2.0000      -1.111057       -30.2334 
  62   2.0000      -1.108232       -30.1565 
  63   2.0000      -1.081946       -29.4413 
  64   2.0000      -1.076939       -29.3050 
  65   2.0000      -1.046433       -28.4749 
  66   2.0000      -1.043338       -28.3907 
  67   2.0000      -1.041116       -28.3302 
  68   2.0000      -1.015178       -27.6244 
  69   2.0000      -1.012263       -27.5451 
  70   2.0000      -1.008695       -27.4480 
  71   2.0000      -0.994034       -27.0490 
  72   2.0000      -0.985542       -26.8180 
  73   2.0000      -0.981816       -26.7166 
  74   2.0000      -0.972349       -26.4589 
  75   2.0000      -0.961621       -26.1670 
  76   2.0000      -0.954269       -25.9670 
  77   2.0000      -0.945606       -25.7312 
  78   2.0000      -0.936141       -25.4737 
  79   2.0000      -0.917244       -24.9595 
  80   2.0000      -0.910391       -24.7730 
  81   2.0000      -0.896310       -24.3898 
  82   2.0000      -0.876438       -23.8491 
  83   2.0000      -0.873161       -23.7599 
  84   2.0000      -0.869683       -23.6653 
  85   2.0000      -0.858716       -23.3668 
  86   2.0000      -0.840452       -22.8699 
  87   2.0000      -0.836435       -22.7605 
  88   2.0000      -0.826420       -22.4880 
  89   2.0000      -0.796759       -21.6809 
  90   2.0000      -0.789158       -21.4741 
  91   2.0000      -0.757217       -20.6049 
  92   2.0000      -0.752188       -20.4681 
  93   2.0000      -0.733903       -19.9705 
  94   2.0000      -0.726234       -19.7618 
  95   2.0000      -0.723499       -19.6874 
  96   2.0000      -0.718109       -19.5407 
  97   2.0000      -0.715815       -19.4783 
  98   2.0000      -0.710717       -19.3396 
  99   2.0000      -0.698383       -19.0040 
 100   2.0000      -0.696712       -18.9585 
 101   2.0000      -0.688103       -18.7242 
 102   2.0000      -0.684893       -18.6369 
 103   2.0000      -0.684102       -18.6154 
 104   2.0000      -0.679111       -18.4796 
 105   2.0000      -0.673917       -18.3382 
 106   2.0000      -0.671965       -18.2851 
 107   2.0000      -0.660308       -17.9679 
 108   2.0000      -0.657209       -17.8836 
 109   2.0000      -0.653676       -17.7874 
 110   2.0000      -0.651045       -17.7158 
 111   2.0000      -0.646025       -17.5792 
 112   2.0000      -0.645023       -17.5520 
 113   2.0000      -0.637566       -17.3491 
 114   2.0000      -0.636405       -17.3175 
 115   2.0000      -0.627494       -17.0750 
 116   2.0000      -0.621525       -16.9126 
 117   2.0000      -0.620912       -16.8959 
 118   2.0000      -0.613607       -16.6971 
 119   2.0000      -0.613060       -16.6822 
 120   2.0000      -0.611303       -16.6344 
 121   2.0000      -0.610534       -16.6135 
 122   2.0000      -0.600145       -16.3308 
 123   2.0000      -0.587444       -15.9852 
 124   2.0000      -0.582355       -15.8467 
 125   2.0000      -0.580603       -15.7990 
 126   2.0000      -0.579579       -15.7711 
 127   2.0000      -0.571717       -15.5572 
 128   2.0000      -0.569109       -15.4862 
 129   2.0000      -0.559604       -15.2276 
 130   2.0000      -0.553077       -15.0500 
 131   2.0000      -0.548052       -14.9133 
 132   2.0000      -0.542941       -14.7742 
 133   2.0000      -0.541907       -14.7460 
 134   2.0000      -0.539151       -14.6711 
 135   2.0000      -0.535302       -14.5663 
 136   2.0000      -0.530298       -14.4301 
 137   2.0000      -0.518856       -14.1188 
 138   2.0000      -0.518129       -14.0990 
 139   2.0000      -0.514354       -13.9963 
 140   2.0000      -0.512117       -13.9354 
 141   2.0000      -0.510519       -13.8919 
 142   2.0000      -0.509434       -13.8624 
 143   2.0000      -0.504088       -13.7169 
 144   2.0000      -0.501470       -13.6457 
 145   2.0000      -0.495396       -13.4804 
 146   2.0000      -0.490534       -13.3481 
 147   2.0000      -0.481587       -13.1047 
 148   2.0000      -0.477399       -12.9907 
 149   2.0000      -0.467658       -12.7256 
 150   2.0000      -0.466008       -12.6807 
 151   2.0000      -0.456842       -12.4313 
 152   2.0000      -0.451163       -12.2768 
 153   2.0000      -0.445424       -12.1206 
 154   2.0000      -0.439209       -11.9515 
 155   2.0000      -0.427511       -11.6332 
 156   2.0000      -0.409284       -11.1372 
 157   2.0000      -0.406144       -11.0517 
 158   2.0000      -0.397113       -10.8060 
 159   2.0000      -0.387549       -10.5457 
 160   2.0000      -0.385756       -10.4970 
 161   2.0000      -0.377567       -10.2741 
 162   2.0000      -0.371150       -10.0995 
 163   2.0000      -0.357509        -9.7283 
 164   2.0000      -0.355084        -9.6623 
 165   2.0000      -0.341512        -9.2930 
 166   2.0000      -0.337859        -9.1936 
 167   2.0000      -0.325499        -8.8573 
 168   2.0000      -0.320413        -8.7189 
 169   2.0000      -0.305891        -8.3237 
 170   2.0000      -0.299254        -8.1431 
 171   2.0000      -0.285005        -7.7554 
 172   2.0000      -0.278978        -7.5914 
 173   2.0000      -0.263214        -7.1624 
 174   2.0000      -0.241657        -6.5758 
 175   2.0000      -0.190081        -5.1724 
 176   2.0000      -0.180935        -4.9235 
 177   2.0000      -0.079369        -2.1597 
 178   2.0000      -0.059529        -1.6199 
 179   0.0000       0.028197         0.7673 
 180   0.0000       0.065200         1.7742 
 181   0.0000       0.090390         2.4596 
 182   0.0000       0.106333         2.8935 
 183   0.0000       0.114632         3.1193 
 184   0.0000       0.136306         3.7091 
 185   0.0000       0.140023         3.8102 
 186   0.0000       0.141035         3.8378 
 187   0.0000       0.164258         4.4697 
 188   0.0000       0.164832         4.4853 
 189   0.0000       0.166288         4.5249 
 190   0.0000       0.173221         4.7136 
 191   0.0000       0.180447         4.9102 
 192   0.0000       0.183862         5.0031 
 193   0.0000       0.189402         5.1539 
 194   0.0000       0.204162         5.5555 
 195   0.0000       0.206183         5.6105 
 196   0.0000       0.207519         5.6469 
 197   0.0000       0.209351         5.6967 
 198   0.0000       0.216607         5.8942 
 199   0.0000       0.228317         6.2128 
 200   0.0000       0.233791         6.3618 
 201   0.0000       0.234981         6.3942 
 202   0.0000       0.238645         6.4939 
 203   0.0000       0.240138         6.5345 
 204   0.0000       0.246097         6.6967 
 205   0.0000       0.254873         6.9354 
 206   0.0000       0.256286         6.9739 
 207   0.0000       0.257943         7.0190 
 208   0.0000       0.259625         7.0648 
 209   0.0000       0.260622         7.0919 
 210   0.0000       0.264295         7.1918 
 211   0.0000       0.265678         7.2295 
 212   0.0000       0.268639         7.3100 
 213   0.0000       0.269525         7.3341 
 214   0.0000       0.272948         7.4273 
 215   0.0000       0.276364         7.5202 
 216   0.0000       0.278675         7.5831 
 217   0.0000       0.281012         7.6467 
 218   0.0000       0.286438         7.7944 
 219   0.0000       0.288282         7.8446 
 220   0.0000       0.289458         7.8766 
 221   0.0000       0.291978         7.9451 
 222   0.0000       0.294805         8.0220 
 223   0.0000       0.295979         8.0540 
 224   0.0000       0.297969         8.1081 
 225   0.0000       0.299784         8.1576 
 226   0.0000       0.304434         8.2841 
 227   0.0000       0.308973         8.4076 
 228   0.0000       0.311093         8.4653 
 229   0.0000       0.324539         8.8311 
 230   0.0000       0.328109         8.9283 
 231   0.0000       0.334831         9.1112 
 232   0.0000       0.342478         9.3193 
 233   0.0000       0.354181         9.6378 
 234   0.0000       0.357049         9.7158 
 235   0.0000       0.362670         9.8688 
 236   0.0000       0.375387        10.2148 
 237   0.0000       0.390971        10.6389 
 238   0.0000       0.395520        10.7626 
 239   0.0000       0.397273        10.8103 
 240   0.0000       0.405541        11.0353 
 241   0.0000       0.409029        11.1302 
 242   0.0000       0.411388        11.1944 
 243   0.0000       0.419188        11.4067 
 244   0.0000       0.428191        11.6517 
 245   0.0000       0.434460        11.8223 
 246   0.0000       0.436814        11.8863 
 247   0.0000       0.440419        11.9844 
 248   0.0000       0.441882        12.0242 
 249   0.0000       0.447923        12.1886 
 250   0.0000       0.458558        12.4780 
 251   0.0000       0.466439        12.6924 
 252   0.0000       0.469188        12.7673 
 253   0.0000       0.470638        12.8067 
 254   0.0000       0.472145        12.8477 
 255   0.0000       0.474908        12.9229 
 256   0.0000       0.477599        12.9961 
 257   0.0000       0.479323        13.0431 
 258   0.0000       0.489530        13.3208 
 259   0.0000       0.495062        13.4713 
 260   0.0000       0.503748        13.7077 
 261   0.0000       0.504892        13.7388 
 262   0.0000       0.506835        13.7917 
 263   0.0000       0.512998        13.9594 
 264   0.0000       0.516614        14.0578 
 265   0.0000       0.517231        14.0746 
 266   0.0000       0.525269        14.2933 
 267   0.0000       0.528030        14.3684 
 268   0.0000       0.532531        14.4909 
 269   0.0000       0.535888        14.5822 
 270   0.0000       0.541784        14.7427 
 271   0.0000       0.547083        14.8869 
 272   0.0000       0.558250        15.1908 
 273   0.0000       0.559446        15.2233 
 274   0.0000       0.560778        15.2595 
 275   0.0000       0.566570        15.4171 
 276   0.0000       0.571146        15.5417 
 277   0.0000       0.573661        15.6101 
 278   0.0000       0.578946        15.7539 
 279   0.0000       0.585684        15.9373 
 280   0.0000       0.590553        16.0698 
 281   0.0000       0.592312        16.1176 
 282   0.0000       0.594795        16.1852 
 283   0.0000       0.595331        16.1998 
 284   0.0000       0.597970        16.2716 
 285   0.0000       0.602107        16.3842 
 286   0.0000       0.606814        16.5123 
 287   0.0000       0.610666        16.6171 
 288   0.0000       0.615305        16.7433 
 289   0.0000       0.624818        17.0022 
 290   0.0000       0.625749        17.0275 
 291   0.0000       0.629189        17.1211 
 292   0.0000       0.634861        17.2755 
 293   0.0000       0.637512        17.3476 
 294   0.0000       0.644224        17.5302 
 295   0.0000       0.648069        17.6349 
 296   0.0000       0.653160        17.7734 
 297   0.0000       0.655720        17.8430 
 298   0.0000       0.661330        17.9957 
 299   0.0000       0.664834        18.0910 
 300   0.0000       0.670719        18.2512 
 301   0.0000       0.675027        18.3684 
 302   0.0000       0.677452        18.4344 
 303   0.0000       0.678117        18.4525 
 304   0.0000       0.680487        18.5170 
 305   0.0000       0.683993        18.6124 
 306   0.0000       0.689191        18.7538 
 307   0.0000       0.692675        18.8486 
 308   0.0000       0.696230        18.9454 
 309   0.0000       0.700183        19.0530 
 310   0.0000       0.701955        19.1012 
 311   0.0000       0.704398        19.1676 
 312   0.0000       0.707212        19.2442 
 313   0.0000       0.710538        19.3347 
 314   0.0000       0.711410        19.3584 
 315   0.0000       0.714537        19.4435 
 316   0.0000       0.716967        19.5097 
 317   0.0000       0.719016        19.5654 
 318   0.0000       0.722906        19.6713 
 319   0.0000       0.726195        19.7608 
 320   0.0000       0.728593        19.8260 
 321   0.0000       0.729033        19.8380 
 322   0.0000       0.730193        19.8696 
 323   0.0000       0.732581        19.9345 
 324   0.0000       0.737791        20.0763 
 325   0.0000       0.741470        20.1764 
 326   0.0000       0.744137        20.2490 
 327   0.0000       0.748941        20.3797 
 328   0.0000       0.753737        20.5102 
 329   0.0000       0.755821        20.5669 
 330   0.0000       0.758884        20.6503 
 331   0.0000       0.762084        20.7374 
 332   0.0000       0.763363        20.7722 
 333   0.0000       0.765941        20.8423 
 334   0.0000       0.768832        20.9210 
 335   0.0000       0.773016        21.0348 
 336   0.0000       0.777410        21.1544 
 337   0.0000       0.781833        21.2748 
 338   0.0000       0.786387        21.3987 
 339   0.0000       0.788567        21.4580 
 340   0.0000       0.792123        21.5548 
 341   0.0000       0.794949        21.6317 
 342   0.0000       0.797430        21.6992 
 343   0.0000       0.803807        21.8727 
 344   0.0000       0.806637        21.9497 
 345   0.0000       0.808092        21.9893 
 346   0.0000       0.808240        21.9933 
 347   0.0000       0.813822        22.1452 
 348   0.0000       0.816389        22.2151 
 349   0.0000       0.816810        22.2265 
 350   0.0000       0.818705        22.2781 
 351   0.0000       0.820708        22.3326 
 352   0.0000       0.825889        22.4736 
 353   0.0000       0.827321        22.5126 
 354   0.0000       0.829273        22.5657 
 355   0.0000       0.831381        22.6230 
 356   0.0000       0.832873        22.6636 
 357   0.0000       0.836318        22.7574 
 358   0.0000       0.839347        22.8398 
 359   0.0000       0.841585        22.9007 
 360   0.0000       0.842144        22.9159 
 361   0.0000       0.842636        22.9293 
 362   0.0000       0.845494        23.0070 
 363   0.0000       0.848111        23.0783 
 364   0.0000       0.849050        23.1038 
 365   0.0000       0.855829        23.2883 
 366   0.0000       0.857600        23.3365 
 367   0.0000       0.863403        23.4944 
 368   0.0000       0.865143        23.5417 
 369   0.0000       0.867908        23.6170 
 370   0.0000       0.870525        23.6882 
 371   0.0000       0.872685        23.7470 
 372   0.0000       0.874500        23.7963 
 373   0.0000       0.877411        23.8756 
 374   0.0000       0.878768        23.9125 
 375   0.0000       0.881157        23.9775 
 376   0.0000       0.888049        24.1650 
 377   0.0000       0.890187        24.2232 
 378   0.0000       0.891549        24.2603 
 379   0.0000       0.894985        24.3538 
 380   0.0000       0.897137        24.4123 
 381   0.0000       0.898559        24.4510 
 382   0.0000       0.900425        24.5018 
 383   0.0000       0.901484        24.5306 
 384   0.0000       0.905147        24.6303 
 385   0.0000       0.906504        24.6672 
 386   0.0000       0.909444        24.7472 
 387   0.0000       0.909926        24.7604 
 388   0.0000       0.913354        24.8536 
 389   0.0000       0.916299        24.9338 
 390   0.0000       0.920245        25.0411 
 391   0.0000       0.925148        25.1746 
 392   0.0000       0.926718        25.2173 
 393   0.0000       0.927756        25.2455 
 394   0.0000       0.929606        25.2959 
 395   0.0000       0.931686        25.3525 
 396   0.0000       0.935981        25.4693 
 397   0.0000       0.940969        25.6051 
 398   0.0000       0.942872        25.6569 
 399   0.0000       0.945973        25.7412 
 400   0.0000       0.948096        25.7990 
 401   0.0000       0.952094        25.9078 
 402   0.0000       0.954614        25.9764 
 403   0.0000       0.955625        26.0039 
 404   0.0000       0.960508        26.1368 
 405   0.0000       0.964629        26.2489 
 406   0.0000       0.969058        26.3694 
 407   0.0000       0.978790        26.6342 
 408   0.0000       0.980268        26.6744 
 409   0.0000       0.983560        26.7640 
 410   0.0000       0.986780        26.8516 
 411   0.0000       0.988911        26.9096 
 412   0.0000       0.994267        27.0554 
 413   0.0000       1.002444        27.2779 
 414   0.0000       1.006584        27.3905 
 415   0.0000       1.012528        27.5523 
 416   0.0000       1.014345        27.6017 
 417   0.0000       1.019580        27.7442 
 418   0.0000       1.022465        27.8227 
 419   0.0000       1.028399        27.9842 
 420   0.0000       1.032701        28.1012 
 421   0.0000       1.037140        28.2220 
 422   0.0000       1.048311        28.5260 
 423   0.0000       1.050048        28.5733 
 424   0.0000       1.053266        28.6608 
 425   0.0000       1.071399        29.1542 
 426   0.0000       1.075255        29.2592 
 427   0.0000       1.076166        29.2840 
 428   0.0000       1.081538        29.4301 
 429   0.0000       1.082020        29.4433 
 430   0.0000       1.085667        29.5425 
 431   0.0000       1.086353        29.5612 
 432   0.0000       1.094578        29.7850 
 433   0.0000       1.102151        29.9911 
 434   0.0000       1.104556        30.0565 
 435   0.0000       1.108429        30.1619 
 436   0.0000       1.111234        30.2382 
 437   0.0000       1.114012        30.3138 
 438   0.0000       1.116074        30.3699 
 439   0.0000       1.119910        30.4743 
 440   0.0000       1.121748        30.5243 
 441   0.0000       1.125834        30.6355 
 442   0.0000       1.130473        30.7617 
 443   0.0000       1.132384        30.8137 
 444   0.0000       1.135418        30.8963 
 445   0.0000       1.138386        30.9771 
 446   0.0000       1.142213        31.0812 
 447   0.0000       1.149356        31.2756 
 448   0.0000       1.151678        31.3388 
 449   0.0000       1.154492        31.4153 
 450   0.0000       1.159785        31.5593 
 451   0.0000       1.162947        31.6454 
 452   0.0000       1.163400        31.6577 
 453   0.0000       1.167411        31.7669 
 454   0.0000       1.168658        31.8008 
 455   0.0000       1.174663        31.9642 
 456   0.0000       1.180190        32.1146 
 457   0.0000       1.185891        32.2697 
 458   0.0000       1.188876        32.3510 
 459   0.0000       1.194501        32.5040 
 460   0.0000       1.200021        32.6542 
 461   0.0000       1.201853        32.7041 
 462   0.0000       1.203855        32.7585 
 463   0.0000       1.205719        32.8093 
 464   0.0000       1.208324        32.8802 
 465   0.0000       1.214741        33.0548 
 466   0.0000       1.217792        33.1378 
 467   0.0000       1.219125        33.1741 
 468   0.0000       1.223753        33.3000 
 469   0.0000       1.229907        33.4675 
 470   0.0000       1.236142        33.6371 
 471   0.0000       1.236308        33.6416 
 472   0.0000       1.239484        33.7281 
 473   0.0000       1.240195        33.7474 
 474   0.0000       1.241893        33.7936 
 475   0.0000       1.244468        33.8637 
 476   0.0000       1.248650        33.9775 
 477   0.0000       1.252986        34.0955 
 478   0.0000       1.255368        34.1603 
 479   0.0000       1.255950        34.1761 
 480   0.0000       1.261090        34.3160 
 481   0.0000       1.267727        34.4966 
 482   0.0000       1.270814        34.5806 
 483   0.0000       1.273281        34.6477 
 484   0.0000       1.275117        34.6977 
 485   0.0000       1.280230        34.8368 
 486   0.0000       1.285250        34.9734 
 487   0.0000       1.285829        34.9892 
 488   0.0000       1.290780        35.1239 
 489   0.0000       1.296811        35.2880 
 490   0.0000       1.298036        35.3214 
 491   0.0000       1.302142        35.4331 
 492   0.0000       1.304168        35.4882 
 493   0.0000       1.308552        35.6075 
 494   0.0000       1.313069        35.7304 
 495   0.0000       1.317620        35.8543 
 496   0.0000       1.319398        35.9026 
 497   0.0000       1.321629        35.9633 
 498   0.0000       1.326355        36.0920 
 499   0.0000       1.327235        36.1159 
 500   0.0000       1.330100        36.1939 
 501   0.0000       1.337057        36.3832 
 502   0.0000       1.340933        36.4886 
 503   0.0000       1.343577        36.5606 
 504   0.0000       1.348439        36.6929 
 505   0.0000       1.349035        36.7091 
 506   0.0000       1.353941        36.8426 
 507   0.0000       1.354863        36.8677 
 508   0.0000       1.358646        36.9706 
[...]
 76 H s       :     0.885341  s :     0.885341
      pz      :     0.022120  p :     0.079786
      px      :     0.043619
      py      :     0.014047
 77 H s       :     0.884484  s :     0.884484
      pz      :     0.047983  p :     0.079297
      px      :     0.015024
      py      :     0.016289
 78 H s       :     0.884856  s :     0.884856
      pz      :     0.025885  p :     0.079262
      px      :     0.020454
      py      :     0.032924
 79 H s       :     0.910633  s :     0.910633
      pz      :     0.021790  p :     0.086312
      px      :     0.021660
      py      :     0.042862
 80 H s       :     0.864415  s :     0.864415
      pz      :     0.039395  p :     0.084844
      px      :     0.030295
      py      :     0.015154
 81 H s       :     0.886861  s :     0.886861
      pz      :     0.037822  p :     0.084120
      px      :     0.016184
      py      :     0.030114
 82 H s       :     0.916162  s :     0.916162
      pz      :     0.021961  p :     0.086720
      px      :     0.031651
      py      :     0.033108
 83 H s       :     0.873624  s :     0.873624
      pz      :     0.039256  p :     0.084081
      px      :     0.015280
      py      :     0.029545
 84 H s       :     0.886859  s :     0.886859
      pz      :     0.035756  p :     0.083429
      px      :     0.031690
      py      :     0.015982
 85 H s       :     0.892966  s :     0.892966
      pz      :     0.022486  p :     0.079778
      px      :     0.014074
      py      :     0.043217
 86 H s       :     0.891115  s :     0.891115
      pz      :     0.024726  p :     0.078818
      px      :     0.032972
      py      :     0.021119
 87 H s       :     0.889913  s :     0.889913
      pz      :     0.048012  p :     0.078734
      px      :     0.015585
      py      :     0.015137
 88 H s       :     0.910544  s :     0.910544
      pz      :     0.021644  p :     0.087035
      px      :     0.042933
      py      :     0.022458
 89 H s       :     0.871033  s :     0.871033
      pz      :     0.037960  p :     0.083852
      px      :     0.030498
      py      :     0.015394


                      *****************************
                      * MAYER POPULATION ANALYSIS *
                      *****************************

  NA   - Mulliken gross atomic population
  ZA   - Total nuclear charge
  QA   - Mulliken gross atomic charge
  VA   - Mayer's total valence
  BVA  - Mayer's bonded valence
  FA   - Mayer's free valence

  ATOM       NA         ZA         QA         VA         BVA        FA
  0 C      5.7796     6.0000     0.2204     3.8490     3.8490    -0.0000
  1 N      7.4567     7.0000    -0.4567     3.3385     3.3385     0.0000
  2 C      6.0763     6.0000    -0.0763     3.9250     3.9250     0.0000
  3 N      7.3405     7.0000    -0.3405     3.4576     3.4576    -0.0000
  4 C      6.0632     6.0000    -0.0632     4.0993     4.0993    -0.0000
  5 N      7.5665     7.0000    -0.5665     3.0962     3.0962    -0.0000
  6 C      6.1149     6.0000    -0.1149     3.9497     3.9497    -0.0000
  7 N      7.3409     7.0000    -0.3409     3.4323     3.4323     0.0000
  8 C      5.7893     6.0000     0.2107     3.8443     3.8443     0.0000
  9 N      7.5624     7.0000    -0.5624     3.0772     3.0772     0.0000
 10 C      5.8803     6.0000     0.1197     3.9097     3.9097    -0.0000
 11 N      7.4382     7.0000    -0.4382     3.3794     3.3794    -0.0000
 12 C      6.0609     6.0000    -0.0609     3.8591     3.8591    -0.0000
 13 N      7.4294     7.0000    -0.4294     3.4283     3.4283    -0.0000
 14 C      5.7870     6.0000     0.2130     3.7914     3.7914    -0.0000
 15 N      7.4412     7.0000    -0.4412     3.3714     3.3714    -0.0000
 16 C      5.7671     6.0000     0.2329     3.7763     3.7763    -0.0000
 17 C      6.1278     6.0000    -0.1278     3.9600     3.9600    -0.0000
 18 C      6.1556     6.0000    -0.1556     3.7501     3.7501     0.0000
 19 C      5.7985     6.0000     0.2015     3.8682     3.8682     0.0000
 20 C      5.7857     6.0000     0.2143     3.8288     3.8288     0.0000
 21 C      6.0740     6.0000    -0.0740     3.8533     3.8533    -0.0000
 22 C      6.0894     6.0000    -0.0894     3.9822     3.9822     0.0000
 23 C      6.0398     6.0000    -0.0398     3.9925     3.9925     0.0000
 24 C      5.8059     6.0000     0.1941     3.8211     3.8211    -0.0000
 25 C      5.8856     6.0000     0.1144     3.8911     3.8911     0.0000
 26 C      6.0896     6.0000    -0.0896     3.9090     3.9090    -0.0000
 27 C      5.7862     6.0000     0.2138     3.8612     3.8612    -0.0000
 28 C      6.0616     6.0000    -0.0616     3.9888     3.9888     0.0000
 29 C      6.1830     6.0000    -0.1830     3.7469     3.7469     0.0000
 30 C      5.7538     6.0000     0.2462     3.7992     3.7992    -0.0000
 31 C      5.7693     6.0000     0.2307     3.8172     3.8172    -0.0000
 32 C      6.0614     6.0000    -0.0614     3.9235     3.9235    -0.0000
 33 C      6.0603     6.0000    -0.0603     3.9711     3.9711    -0.0000
 34 C      6.0506     6.0000    -0.0506     3.9836     3.9836    -0.0000
 35 C      5.7721     6.0000     0.2279     3.8163     3.8163    -0.0000
 36 C      5.8918     6.0000     0.1082     3.8747     3.8747     0.0000
 37 C      6.0642     6.0000    -0.0642     3.9177     3.9177    -0.0000
 38 C      5.7685     6.0000     0.2315     3.8017     3.8017    -0.0000
 39 C      6.0581     6.0000    -0.0581     3.9830     3.9830    -0.0000
 40 C      6.1809     6.0000    -0.1809     3.7265     3.7265    -0.0000
 41 C      5.7747     6.0000     0.2253     3.8872     3.8872    -0.0000
 42 C      5.8028     6.0000     0.1972     3.8258     3.8258    -0.0000
 43 C      6.0726     6.0000    -0.0726     3.8999     3.8999    -0.0000
 44 C      6.0903     6.0000    -0.0903     3.9858     3.9858     0.0000
 45 C      6.0616     6.0000    -0.0616     3.9919     3.9919    -0.0000
 46 C      5.7889     6.0000     0.2111     3.8287     3.8287    -0.0000
 47 C      5.8845     6.0000     0.1155     3.8932     3.8932    -0.0000
 48 C      6.0670     6.0000    -0.0670     3.9093     3.9093     0.0000
 49 C      5.7616     6.0000     0.2384     3.8959     3.8959     0.0000
 50 C      6.0461     6.0000    -0.0461     3.9903     3.9903    -0.0000
 51 C      6.1949     6.0000    -0.1949     3.7371     3.7371    -0.0000
 52 H      0.9635     1.0000     0.0365     0.9857     0.9857     0.0000
 53 H      1.0179     1.0000    -0.0179     0.9990     0.9990     0.0000
 54 H      0.9499     1.0000     0.0501     1.0270     1.0270    -0.0000
 55 H      0.9655     1.0000     0.0345     0.9867     0.9867     0.0000
 56 H      0.9512     1.0000     0.0488     0.9695     0.9695    -0.0000
 57 H      0.9518     1.0000     0.0482     0.9824     0.9824    -0.0000
 58 H      0.9540     1.0000     0.0460     0.9848     0.9848    -0.0000
 59 H      1.0062     1.0000    -0.0062     0.9998     0.9998    -0.0000
 60 H      0.9530     1.0000     0.0470     1.0165     1.0165     0.0000
 61 H      0.8290     1.0000     0.1710     1.0421     1.0421    -0.0000
 62 H      0.8243     1.0000     0.1757     1.0436     1.0436     0.0000
 63 H      0.9443     1.0000     0.0557     0.9852     0.9852     0.0000
 64 H      1.0116     1.0000    -0.0116     0.9948     0.9948    -0.0000
 65 H      0.9531     1.0000     0.0469     1.0100     1.0100     0.0000
 66 H      0.9441     1.0000     0.0559     0.9855     0.9855    -0.0000
 67 H      0.9371     1.0000     0.0629     0.9720     0.9720     0.0000
 68 H      0.9426     1.0000     0.0574     0.9868     0.9868    -0.0000
 69 H      0.9434     1.0000     0.0566     0.9828     0.9828     0.0000
 70 H      1.0298     1.0000    -0.0298     0.9939     0.9939    -0.0000
 71 H      0.9547     1.0000     0.0453     1.0058     1.0058     0.0000
 72 H      0.9286     1.0000     0.0714     0.9835     0.9835     0.0000
 73 H      1.0079     1.0000    -0.0079     1.0009     1.0009    -0.0000
 74 H      0.9395     1.0000     0.0605     1.0101     1.0101    -0.0000
 75 H      0.9292     1.0000     0.0708     0.9838     0.9838     0.0000
 76 H      0.9249     1.0000     0.0751     0.9721     0.9721     0.0000
 77 H      0.9319     1.0000     0.0681     0.9855     0.9855     0.0000
 78 H      0.9327     1.0000     0.0673     0.9854     0.9854     0.0000
 79 H      1.0164     1.0000    -0.0164     0.9976     0.9976    -0.0000
 80 H      0.9387     1.0000     0.0613     1.0072     1.0072    -0.0000
 81 H      0.9458     1.0000     0.0542     0.9856     0.9856    -0.0000
 82 H      1.0252     1.0000    -0.0252     0.9933     0.9933    -0.0000
 83 H      0.9585     1.0000     0.0415     1.0083     1.0083     0.0000
 84 H      0.9462     1.0000     0.0538     0.9852     0.9852     0.0000
 85 H      0.9394     1.0000     0.0606     0.9716     0.9716    -0.0000
 86 H      0.9447     1.0000     0.0553     0.9839     0.9839    -0.0000
 87 H      0.9429     1.0000     0.0571     0.9856     0.9856    -0.0000
 88 H      1.0144     1.0000    -0.0144     0.9968     0.9968     0.0000
 89 H      0.9529     1.0000     0.0471     1.0074     1.0074    -0.0000

  Mayer bond orders larger than 0.100000
B(  0-C ,  1-N ) :   1.0993 B(  0-C , 17-C ) :   1.7140 B(  0-C , 52-H ) :   0.9631 
B(  1-N ,  8-C ) :   1.0862 B(  1-N , 10-C ) :   0.9779 B(  2-C , 12-C ) :   1.4910 
B(  2-C , 16-C ) :   1.3696 B(  2-C , 53-H ) :   0.9738 B(  3-N , 14-C ) :   1.2204 
B(  3-N , 16-C ) :   1.1843 B(  3-N , 61-H ) :   0.8990 B(  4-C ,  6-C ) :   1.2145 
B(  4-C , 17-C ) :   1.2145 B(  4-C , 18-C ) :   1.4692 B(  5-N , 19-C ) :   1.4569 
B(  5-N , 27-C ) :   1.3729 B(  6-C ,  8-C ) :   1.7203 B(  6-C , 54-H ) :   0.9138 
B(  7-N , 30-C ) :   1.1948 B(  7-N , 38-C ) :   1.1900 B(  7-N , 62-H ) :   0.8966 
B(  8-C , 55-H ) :   0.9644 B(  9-N , 41-C ) :   1.3928 B(  9-N , 49-C ) :   1.4270 
B( 10-C , 56-H ) :   0.9774 B( 10-C , 57-H ) :   0.9831 B( 10-C , 58-H ) :   0.9835 
B( 11-N , 20-C ) :   1.1319 B( 11-N , 24-C ) :   1.1078 B( 11-N , 25-C ) :   0.9597 
B( 12-C , 14-C ) :   1.3585 B( 12-C , 59-H ) :   0.9498 B( 13-N , 31-C ) :   1.1622 
B( 13-N , 35-C ) :   1.1597 B( 13-N , 36-C ) :   0.9413 B( 14-C , 18-C ) :   1.1187 
B( 15-N , 42-C ) :   1.1071 B( 15-N , 46-C ) :   1.1237 B( 15-N , 47-C ) :   0.9616 
B( 16-C , 51-C ) :   1.1673 B( 17-C , 60-H ) :   0.9153 B( 18-C , 19-C ) :   1.1169 
B( 19-C , 21-C ) :   1.2518 B( 20-C , 28-C ) :   1.6276 B( 20-C , 63-H ) :   0.9702 
B( 21-C , 26-C ) :   1.5883 B( 21-C , 64-H ) :   0.9484 B( 22-C , 23-C ) :   1.2904 
B( 22-C , 28-C ) :   1.2648 B( 22-C , 29-C ) :   1.2245 B( 23-C , 24-C ) :   1.6190 
B( 23-C , 65-H ) :   0.9703 B( 24-C , 66-H ) :   0.9695 B( 25-C , 67-H ) :   0.9760 
B( 25-C , 68-H ) :   0.9828 B( 25-C , 69-H ) :   0.9823 B( 26-C , 27-C ) :   1.2557 
B( 26-C , 70-H ) :   0.9678 B( 27-C , 29-C ) :   1.2067 B( 28-C , 71-H ) :   0.9720 
B( 29-C , 30-C ) :   1.2475 B( 30-C , 32-C ) :   1.2778 B( 31-C , 39-C ) :   1.5877 
B( 31-C , 72-H ) :   0.9681 B( 32-C , 37-C ) :   1.5813 B( 32-C , 73-H ) :   0.9786 
B( 33-C , 34-C ) :   1.3078 B( 33-C , 39-C ) :   1.3037 B( 33-C , 40-C ) :   1.1751 
B( 34-C , 35-C ) :   1.5849 B( 34-C , 74-H ) :   0.9696 B( 35-C , 75-H ) :   0.9681 
B( 36-C , 76-H ) :   0.9768 B( 36-C , 77-H ) :   0.9815 B( 36-C , 78-H ) :   0.9823 
B( 37-C , 38-C ) :   1.2835 B( 37-C , 79-H ) :   0.9765 B( 38-C , 40-C ) :   1.2351 
B( 39-C , 80-H ) :   0.9705 B( 40-C , 41-C ) :   1.2506 B( 41-C , 43-C ) :   1.1853 
B( 42-C , 50-C ) :   1.6343 B( 42-C , 81-H ) :   0.9696 B( 43-C , 48-C ) :   1.6673 
B( 43-C , 82-H ) :   0.9721 B( 44-C , 45-C ) :   1.2626 B( 44-C , 50-C ) :   1.2713 
B( 44-C , 51-C ) :   1.2629 B( 45-C , 46-C ) :   1.6355 B( 45-C , 83-H ) :   0.9719 
B( 46-C , 84-H ) :   0.9700 B( 47-C , 85-H ) :   0.9762 B( 47-C , 86-H ) :   0.9829 
B( 47-C , 87-H ) :   0.9825 B( 48-C , 49-C ) :   1.1888 B( 48-C , 88-H ) :   0.9749 
B( 49-C , 51-C ) :   1.2434 B( 50-C , 89-H ) :   0.9708 

-------
TIMINGS
-------

Total SCF time: 0 days 0 hours 44 min 0 sec 

Total time                  ....    2640.456 sec
Sum of individual times     ....    2637.456 sec  ( 99.9%)

Fock matrix formation       ....    2619.642 sec  ( 99.2%)
Diagonalization             ....       4.827 sec  (  0.2%)
Density matrix formation    ....       0.501 sec  (  0.0%)
Population analysis         ....       0.298 sec  (  0.0%)
Initial guess               ....       2.346 sec  (  0.1%)
Orbital Transformation      ....       0.000 sec  (  0.0%)
Orbital Orthonormalization  ....       0.000 sec  (  0.0%)
DIIS solution               ....       2.553 sec  (  0.1%)
SOSCF solution              ....       5.922 sec  (  0.2%)

Maximum memory used throughout the entire SCF-calculation: 304.3 MB


           ************************************************************
           *        Program running with 8 parallel MPI-processes     *
           *              working on a common directory               *
           ************************************************************

------------------------------------------------------------------------------
                                ORCA  MP2 
------------------------------------------------------------------------------

Freezing NCore=104 chemical core electrons

----------
MP2 ENERGY (disk based algorithm)
----------

Dimension of the basis                    ...  918
Memory devoted to MP2                     ... 7000 MB   
Data format for buffers                   ... DOUBLE
Compression type for matrix containers    ... UNCOMPRESSED

-------------------------------
PARTIAL EXCHANGE TRANSFORMATION
-------------------------------

Transformation type                        ... one-operator
Generation of integrals (i,mue|j,nue)      ... ON
Generation of integrals (mue,kappa|nue,tau)... OFF
Generation of integrals (i,mue|a,nue)      ... OFF
Dimension of the basis                     ...  918
Number of internal MOs                     ...  127 (  52- 178)
Pair cutoff                                ... 2.500e-12 Eh
Number of AO pairs in the trafo            ... 421821
Total Number of distinct AO pairs          ... 421821
Memory devoted for trafo                   ... 7000.0 MB 
Max. Number of MO pairs treated together   ... 1088      
Number Format for Storage                  ... Double (8 Byte)
Integral package used                      ... LIBINT

Starting integral evaluation:
    ... done with AO integral generation
Closing buffer AOK     (38.26 GB; CompressionRatio= 1.32)
Collecting buffer AOK 
Number of MO pairs included in the trafo   ... 8128
------------------------
SORTING OF (i,mue|j,nue)
------------------------

IBATCH = 1 of  1
Closing buffer KAO     (51.03 GB; CompressionRatio= 1.00)
Collecting buffer KAO 
N(AO-Batches) Done                         ... 175150025 
N(AO-Batches) Skipped                      ... 167129018 
N(IJ)-pairs Skipped                        ...         0 
TOTAL TIME for half transformation         ...  1091.719 sec
AO-integral generation                     ...   252.279 sec
Half transformation                        ...   467.714 sec
K-integral sorting                         ...    95.363 sec

Finished integral transformation - now doing MP2 part

OPERATOR COMBINATION   0   0: ij=( 52..178, 52..178)
Process 5:   Internal MO 132
Process 2:   Internal MO  84
Process 0:   Internal MO  54
Process 0:   Internal MO  57
Process 1:   Internal MO  69
Process 0:   Internal MO  60
Process 4:   Internal MO 117
Process 0:   Internal MO  63
Process 1:   Internal MO  72
Process 3:   Internal MO 102
Process 2:   Internal MO  87
Process 0:   Internal MO  66
Process 7:   Internal MO 165
Process 1:   Internal MO  75
Process 6:   Internal MO 150
Process 2:   Internal MO  90
Process 1:   Internal MO  78
Process 5:   Internal MO 135
Process 3:   Internal MO 105
Process 4:   Internal MO 120
Process 1:   Internal MO  81
Process 2:   Internal MO  93
Process 3:   Internal MO 108
Process 7:   Internal MO 168
Process 2:   Internal MO  96
Process 4:   Internal MO 123
Process 6:   Internal MO 153
Process 5:   Internal MO 138
Process 3:   Internal MO 111
Process 2:   Internal MO  99
Process 4:   Internal MO 126
Process 5:   Internal MO 141
Process 3:   Internal MO 114
Process 6:   Internal MO 156
Process 7:   Internal MO 171
Process 4:   Internal MO 129
Process 5:   Internal MO 144
Process 6:   Internal MO 159
Process 7:   Internal MO 174
Process 5:   Internal MO 147
Process 6:   Internal MO 162
Process 7:   Internal MO 177
-----------------------------------------------
 MP2 CORRELATION ENERGY   :     -7.285994648 Eh
-----------------------------------------------


-------
TIMINGS
-------
Total time                : 1253.568 sec
Integral trafo            : 1101.523 sec ( 87.9%)
K(i,j)                    :    9.758 sec (  0.8%)
T(i,j)                    :    0.172 sec (  0.0%)

---------------------------------------
MP2 TOTAL ENERGY:    -2130.828020859 Eh
---------------------------------------

Maximum memory used throughout the entire MP2-calculation: 6735.8 MB

-------------------------   --------------------
FINAL SINGLE POINT ENERGY     -2130.828020859019
-------------------------   --------------------


                            ***************************************
                            *     ORCA property calculations      *
                            ***************************************


  WARNING: The energy has been calculated at the MP2 level but the densities
           used in the property calculations are still SCF densities
           MP2 response densities have not been calculated 
           use %mp2 Density relaxed end
           or  %mp2 Density unrelaxed end

                                    ---------------------
                                    Active property flags
                                    ---------------------
   (+) Dipole Moment


------------------------------------------------------------------------------
                       ORCA ELECTRIC PROPERTIES CALCULATION
------------------------------------------------------------------------------

Dipole Moment Calculation                       ... on
Quadrupole Moment Calculation                   ... off
Polarizability Calculation                      ... off
GBWName                                         ... /scratch/chu_02/allen/tmpyp4_amber_gaff2/conf1/conf1/Conf346.orca.gbw
Electron density                                ... /scratch/chu_02/allen/tmpyp4_amber_gaff2/conf1/conf1/Conf346.orca.scfp
The origin for moment calculation is the CENTER OF MASS  = (-0.001394, -0.005069  0.001298)

-------------
DIPOLE MOMENT
-------------
                                X             Y             Z
Electronic contribution:      2.72574      -4.38529      -0.07235
Nuclear contribution   :     -0.02246       0.17242       0.08349
                        -----------------------------------------
Total Dipole Moment    :      2.70328      -4.21287       0.01114
                        -----------------------------------------
Magnitude (a.u.)       :      5.00561
Magnitude (Debye)      :     12.72324



--------------------
Rotational spectrum 
--------------------
 
Rotational constants in cm-1:     0.001503     0.001477     0.000760 
Rotational constants in MHz :    45.063961    44.285729    22.787224 

 Dipole components along the rotational axes: 
x,y,z [a.u.] :     3.446381    -3.630202     0.013796 
x,y,z [Debye]:     8.760005    -9.227240     0.035068 

 

Timings for individual modules:

Sum of individual times         ...     3899.385 sec (=  64.990 min)
GTO integral calculation        ...        2.932 sec (=   0.049 min)   0.1 %
SCF iterations                  ...     2641.700 sec (=  44.028 min)  67.7 %
MP2 module                      ...     1254.754 sec (=  20.913 min)  32.2 %
                             ****ORCA TERMINATED NORMALLY****
TOTAL RUN TIME: 0 days 1 hours 5 minutes 1 seconds 618 msec
# of primitive gaussian functions

