
                                 *****************
                                 * O   R   C   A *
                                 *****************

                                            #,                                       
                                            ###                                      
                                            ####                                     
                                            #####                                    
                                            ######                                   
                                           ########,                                 
                                     ,,################,,,,,                         
                               ,,#################################,,                 
                          ,,##########################################,,             
                       ,#########################################, ''#####,          
                    ,#############################################,,   '####,        
                  ,##################################################,,,,####,       
                ,###########''''           ''''###############################       
              ,#####''   ,,,,##########,,,,          '''####'''          '####       
            ,##' ,,,,###########################,,,                        '##       
           ' ,,###''''                  '''############,,,                           
         ,,##''                                '''############,,,,        ,,,,,,###''
      ,#''                                            '''#######################'''  
     '                                                          ''''####''''         
             ,#######,   #######,   ,#######,      ##                                
            ,#'     '#,  ##    ##  ,#'     '#,    #''#        ######   ,####,        
            ##       ##  ##   ,#'  ##            #'  '#       #        #'  '#        
            ##       ##  #######   ##           ,######,      #####,   #    #        
            '#,     ,#'  ##    ##  '#,     ,#' ,#      #,         ##   #,  ,#        
             '#######'   ##     ##  '#######'  #'      '#     #####' # '####'        



                  #######################################################
                  #                        -***-                        #
                  #          Department of theory and spectroscopy      #
                  #    Directorship and core code : Frank Neese         #
                  #        Max Planck Institute fuer Kohlenforschung    #
                  #                Kaiser Wilhelm Platz 1               #
                  #                 D-45470 Muelheim/Ruhr               #
                  #                      Germany                        #
                  #                                                     #
                  #                  All rights reserved                #
                  #                        -***-                        #
                  #######################################################


                         Program Version 5.0.4 -  RELEASE  -


 With contributions from (in alphabetic order):
   Daniel Aravena         : Magnetic Suceptibility
   Michael Atanasov       : Ab Initio Ligand Field Theory (pilot matlab implementation)
   Alexander A. Auer      : GIAO ZORA, VPT2 properties, NMR spectrum
   Ute Becker             : Parallelization
   Giovanni Bistoni       : ED, misc. LED, open-shell LED, HFLD
   Martin Brehm           : Molecular dynamics
   Dmytro Bykov           : SCF Hessian
   Vijay G. Chilkuri      : MRCI spin determinant printing, contributions to CSF-ICE
   Dipayan Datta          : RHF DLPNO-CCSD density
   Achintya Kumar Dutta   : EOM-CC, STEOM-CC
   Dmitry Ganyushin       : Spin-Orbit,Spin-Spin,Magnetic field MRCI
   Miquel Garcia          : C-PCM and meta-GGA Hessian, CC/C-PCM, Gaussian charge scheme
   Yang Guo               : DLPNO-NEVPT2, F12-NEVPT2, CIM, IAO-localization
   Andreas Hansen         : Spin unrestricted coupled pair/coupled cluster methods
   Benjamin Helmich-Paris : MC-RPA, TRAH-SCF, COSX integrals
   Lee Huntington         : MR-EOM, pCC
   Robert Izsak           : Overlap fitted RIJCOSX, COSX-SCS-MP3, EOM
   Marcus Kettner         : VPT2
   Christian Kollmar      : KDIIS, OOCD, Brueckner-CCSD(T), CCSD density, CASPT2, CASPT2-K
   Simone Kossmann        : Meta GGA functionals, TD-DFT gradient, OOMP2, MP2 Hessian
   Martin Krupicka        : Initial AUTO-CI
   Lucas Lang             : DCDCAS
   Marvin Lechner         : AUTO-CI (C++ implementation), FIC-MRCC
   Dagmar Lenk            : GEPOL surface, SMD
   Dimitrios Liakos       : Extrapolation schemes; Compound Job, initial MDCI parallelization
   Dimitrios Manganas     : Further ROCIS development; embedding schemes
   Dimitrios Pantazis     : SARC Basis sets
   Anastasios Papadopoulos: AUTO-CI, single reference methods and gradients
   Taras Petrenko         : DFT Hessian,TD-DFT gradient, ASA, ECA, R-Raman, ABS, FL, XAS/XES, NRVS
   Peter Pinski           : DLPNO-MP2, DLPNO-MP2 Gradient
   Christoph Reimann      : Effective Core Potentials
   Marius Retegan         : Local ZFS, SOC
   Christoph Riplinger    : Optimizer, TS searches, QM/MM, DLPNO-CCSD(T), (RO)-DLPNO pert. Triples
   Tobias Risthaus        : Range-separated hybrids, TD-DFT gradient, RPA, STAB
   Michael Roemelt        : Original ROCIS implementation
   Masaaki Saitow         : Open-shell DLPNO-CCSD energy and density
   Barbara Sandhoefer     : DKH picture change effects
   Avijit Sen             : IP-ROCIS
   Kantharuban Sivalingam : CASSCF convergence, NEVPT2, FIC-MRCI
   Bernardo de Souza      : ESD, SOC TD-DFT
   Georgi Stoychev        : AutoAux, RI-MP2 NMR, DLPNO-MP2 response
   Willem Van den Heuvel  : Paramagnetic NMR
   Boris Wezisla          : Elementary symmetry handling
   Frank Wennmohs         : Technical directorship


 We gratefully acknowledge several colleagues who have allowed us to
 interface, adapt or use parts of their codes:
   Stefan Grimme, W. Hujo, H. Kruse, P. Pracht,  : VdW corrections, initial TS optimization,
                  C. Bannwarth, S. Ehlert          DFT functionals, gCP, sTDA/sTD-DF
   Ed Valeev, F. Pavosevic, A. Kumar             : LibInt (2-el integral package), F12 methods
   Garnet Chan, S. Sharma, J. Yang, R. Olivares  : DMRG
   Ulf Ekstrom                                   : XCFun DFT Library
   Mihaly Kallay                                 : mrcc  (arbitrary order and MRCC methods)
   Jiri Pittner, Ondrej Demel                    : Mk-CCSD
   Frank Weinhold                                : gennbo (NPA and NBO analysis)
   Christopher J. Cramer and Donald G. Truhlar   : smd solvation model
   Lars Goerigk                                  : TD-DFT with DH, B97 family of functionals
   V. Asgeirsson, H. Jonsson                     : NEB implementation
   FAccTs GmbH                                   : IRC, NEB, NEB-TS, DLPNO-Multilevel, CI-OPT
                                                   MM, QMMM, 2- and 3-layer-ONIOM, Crystal-QMMM,
                                                   LR-CPCM, SF, NACMEs, symmetry and pop. for TD-DFT,
                                                   nearIR, NL-DFT gradient (VV10), updates on ESD,
                                                   ML-optimized integration grids
   S Lehtola, MJT Oliveira, MAL Marques          : LibXC Library
   Liviu Ungur et al                             : ANISO software


 Your calculation uses the libint2 library for the computation of 2-el integrals
 For citations please refer to: http://libint.valeyev.net

 Your ORCA version has been built with support for libXC version: 5.1.0
 For citations please refer to: https://tddft.org/programs/libxc/

 This ORCA versions uses:
   CBLAS   interface :  Fast vector & matrix operations
   LAPACKE interface :  Fast linear algebra routines
   SCALAPACK package :  Parallel linear algebra routines
   Shared memory     :  Shared parallel matrices
   BLAS/LAPACK       :  OpenBLAS 0.3.15  USE64BITINT DYNAMIC_ARCH NO_AFFINITY Sandybridge SINGLE_THREADED
        Core in use  :  Sandybridge
   Copyright (c) 2011-2014, The OpenBLAS Project


================================================================================

----- Orbital basis set information -----
Your calculation utilizes the basis: cc-pVDZ 
       H, B-Ne : Obtained from the ccRepo (grant-hill.group.shef.ac.uk/ccrepo) Feb. 2017
                 T. H. Dunning, Jr., J. Chem. Phys. 90, 1007 (1989)
            He : Obtained from the ccRepo (grant-hill.group.shef.ac.uk/ccrepo) Feb. 2017
                 D. E. Woon, T. H. Dunning, Jr., J. Chem. Phys. 100, 2975 (1994)
  Li-Be, Na-Mg : Obtained from the ccRepo (grant-hill.group.shef.ac.uk/ccrepo) Feb. 2017
                 B. P. Prascher, D. E. Woon, K. A. Peterson, T. H. Dunning, Jr., A. K. Wilson, Theor. Chem. Acc. 128, 69 (2011)
         Al-Ar : Obtained from the ccRepo (grant-hill.group.shef.ac.uk/ccrepo) Feb. 2017
                 D. E. Woon, T. H. Dunning, Jr., J. Chem. Phys. 98, 1358 (1993)
            Ca : Obtained from the Peterson Research Group Website (tyr0.chem.wsu.edu/~kipeters) Feb. 2017
                 J. Koput, K. A. Peterson, J. Phys. Chem. 106, 9595 (2002)
         Sc-Zn : Obtained from the ccRepo (grant-hill.group.shef.ac.uk/ccrepo) Feb. 2017
                 N. B. Balabanov, K. A. Peterson, J. Chem. Phys. 123, 064107 (2005)
                 N. B. Balabanov, K. A. Peterson, J. Chem. Phys. 125, 074110 (2006)
         Ga-Kr : Obtained from the ccRepo (grant-hill.group.shef.ac.uk/ccrepo) Feb. 2017
                 A. K. Wilson, D. E. Woon, K. A. Peterson, T. H. Dunning, Jr., J. Chem. Phys. 110, 7667 (1999)

================================================================================
                                        WARNINGS
                       Please study these warnings very carefully!
================================================================================


WARNING: No MP2 level density has been requested!
         To caclulate MP2 level properties use
         %mp2 Density relaxed end
         or
         %mp2 Density unrelaxed end

WARNING: Post HF methods need fully converged wavefunctions
  ===> : Setting SCFConvForced true
         You can overwrite this default with %scf ConvForced false 


INFO   : the flag for use of the SHARK integral package has been found!

================================================================================
                                       INPUT FILE
================================================================================
NAME = /scratch/allen/tmpyp4_amber_gaff2/2.Mdgx/conf11/conf11/Conf280.orca
|  1> ! PAL2
|  2> ! mp2 cc-pvdz TightSCF  NoKeepInts
|  3> 
|  4> %scf
|  5>   MaxCore 2000
|  6> end
|  7> %mp2
|  8>   MaxCore 2000
|  9> end
| 10> * xyz 0 1
| 11>    C       -3.86900         5.90100         1.24000
| 12>    C        1.47400         4.04100         0.05700
| 13>    C       -2.80200         4.09300         0.04900
| 14>    C       -3.35300         4.61400        -1.13200
| 15>    C       -4.13400         5.75200        -1.09000
| 16>    C       -5.19400         7.61500         0.09000
| 17>    C        0.13200         4.30700         0.06100
| 18>    C       -0.56900         3.05600         0.04700
| 19>    C        1.64900         2.61800         0.02300
| 20>    C       -3.07700         4.76900         1.24800
| 21>    N       -4.38500         6.37700         0.08400
| 22>    N        0.38800         2.06700         0.02500
| 23>    N       -2.01000         0.39500        -0.07500
| 24>    N       -0.38800        -2.07400        -0.02700
| 25>    N        2.01000        -0.40100         0.06500
| 26>    C       -1.96000         2.86100         0.02400
| 27>    C       -2.62300         1.61500        -0.01800
| 28>    C       -5.57300        -4.32900         1.06600
| 29>    C       -4.07300         1.47100         0.05600
| 30>    C       -4.10600        -2.75600        -0.02600
| 31>    C       -4.99500        -2.75700        -1.11100
| 32>    C       -6.13200        -3.54200        -1.07600
| 33>    C       -7.65100        -5.11300         0.04000
| 34>    C       -4.32400         0.14100         0.03700
| 35>    C       -3.02500        -0.52000        -0.04800
| 36>    C       -4.42200        -3.56600         1.07500
| 37>    N       -6.40700        -4.31300         0.00100
| 38>    C       -2.86700        -1.92200        -0.04000
| 39>    C       -1.65000        -2.62400        -0.02700
| 40>    C        3.56800        -6.14200        -1.04000
| 41>    C       -1.47600        -4.04900        -0.03400
| 42>    C        2.80300        -4.09900        -0.00800
| 43>    C        3.65700        -4.38400         1.06900
| 44>    C        4.42700        -5.53000         1.05900
| 45>    C        5.24500        -7.58800         0.01400
| 46>    C       -0.13400        -4.31500        -0.02200
| 47>    C        0.56800        -3.06400        -0.02700
| 48>    C        2.77500        -5.01200        -1.07400
| 49>    N        4.37600        -6.39100         0.01700
| 50>    C        1.95900        -2.86900        -0.00900
| 51>    C        2.62100        -1.62200         0.00900
| 52>    C        5.54300         4.33900        -1.13000
| 53>    C        4.07000        -1.47900        -0.09400
| 54>    C        4.10400         2.75100        -0.02100
| 55>    C        5.02700         2.72900         1.03600
| 56>    C        6.16600         3.50900         0.97800
| 57>    C        7.61900         5.15300        -0.11500
| 58>    C        4.32100        -0.14800        -0.09200
| 59>    C        3.02500         0.51400         0.01500
| 60>    C        4.38700         3.58200        -1.11500
| 61>    C        2.86600         1.91600         0.01300
| 62>    N        6.41300         4.29600        -0.09500
| 63>    H       -4.11600         6.44700         2.14200
| 64>    H        2.27400         4.76600         0.08100
| 65>    H       -3.16900         4.14200        -2.09000
| 66>    H       -4.57300         6.19500        -1.97500
| 67>    H       -4.54000         8.46800        -0.10400
| 68>    H       -5.95500         7.54200        -0.68600
| 69>    H       -5.66600         7.72100         1.06700
| 70>    H       -0.33200         5.28200         0.06900
| 71>    H       -2.69200         4.40900         2.19500
| 72>    H        0.18200         1.07200         0.00500
| 73>    H       -0.18300        -1.08000        -0.02100
| 74>    H       -5.86400        -4.96200         1.89500
| 75>    H       -4.79400         2.27200         0.13900
| 76>    H       -4.80000        -2.16000        -1.99400
| 77>    H       -6.84100        -3.58200        -1.89300
| 78>    H       -8.42800        -4.53600         0.54600
| 79>    H       -7.95600        -5.33700        -0.98100
| 80>    H       -7.45600        -6.03700         0.58400
| 81>    H       -5.28700        -0.34400         0.10000
| 82>    H       -3.78000        -3.60100         1.94700
| 83>    H        3.58700        -6.86800        -1.84300
| 84>    H       -2.27600        -4.77400        -0.05000
| 85>    H        3.71400        -3.72400         1.92600
| 86>    H        5.09200        -5.79500         1.87100
| 87>    H        6.20500        -7.32900        -0.43900
| 88>    H        5.39300        -7.91700         1.04200
| 89>    H        4.75900        -8.37300        -0.56400
| 90>    H        0.32900        -5.29000        -0.00800
| 91>    H        2.14600        -4.84200        -1.94000
| 92>    H        5.80800         4.98600        -1.95600
| 93>    H        4.78800        -2.28100        -0.18500
| 94>    H        4.86000         2.11400         1.91200
| 95>    H        6.90100         3.53100         1.77200
| 96>    H        7.38300         6.10900         0.35600
| 97>    H        8.41400         4.65200         0.43500
| 98>    H        7.92100         5.31000        -1.15000
| 99>    H        5.28300         0.33600        -0.17900
|100>    H        3.72000         3.63200        -1.96700
|101> *
|102> 
|103>                          ****END OF INPUT****
================================================================================

                       ****************************
                       * Single Point Calculation *
                       ****************************

---------------------------------
CARTESIAN COORDINATES (ANGSTROEM)
---------------------------------
  C     -3.869000    5.901000    1.240000
  C      1.474000    4.041000    0.057000
  C     -2.802000    4.093000    0.049000
  C     -3.353000    4.614000   -1.132000
  C     -4.134000    5.752000   -1.090000
  C     -5.194000    7.615000    0.090000
  C      0.132000    4.307000    0.061000
  C     -0.569000    3.056000    0.047000
  C      1.649000    2.618000    0.023000
  C     -3.077000    4.769000    1.248000
  N     -4.385000    6.377000    0.084000
  N      0.388000    2.067000    0.025000
  N     -2.010000    0.395000   -0.075000
  N     -0.388000   -2.074000   -0.027000
  N      2.010000   -0.401000    0.065000
  C     -1.960000    2.861000    0.024000
  C     -2.623000    1.615000   -0.018000
  C     -5.573000   -4.329000    1.066000
  C     -4.073000    1.471000    0.056000
  C     -4.106000   -2.756000   -0.026000
  C     -4.995000   -2.757000   -1.111000
  C     -6.132000   -3.542000   -1.076000
  C     -7.651000   -5.113000    0.040000
  C     -4.324000    0.141000    0.037000
  C     -3.025000   -0.520000   -0.048000
  C     -4.422000   -3.566000    1.075000
  N     -6.407000   -4.313000    0.001000
  C     -2.867000   -1.922000   -0.040000
  C     -1.650000   -2.624000   -0.027000
  C      3.568000   -6.142000   -1.040000
  C     -1.476000   -4.049000   -0.034000
  C      2.803000   -4.099000   -0.008000
  C      3.657000   -4.384000    1.069000
  C      4.427000   -5.530000    1.059000
  C      5.245000   -7.588000    0.014000
  C     -0.134000   -4.315000   -0.022000
  C      0.568000   -3.064000   -0.027000
  C      2.775000   -5.012000   -1.074000
  N      4.376000   -6.391000    0.017000
  C      1.959000   -2.869000   -0.009000
  C      2.621000   -1.622000    0.009000
  C      5.543000    4.339000   -1.130000
  C      4.070000   -1.479000   -0.094000
  C      4.104000    2.751000   -0.021000
  C      5.027000    2.729000    1.036000
  C      6.166000    3.509000    0.978000
  C      7.619000    5.153000   -0.115000
  C      4.321000   -0.148000   -0.092000
  C      3.025000    0.514000    0.015000
  C      4.387000    3.582000   -1.115000
  C      2.866000    1.916000    0.013000
  N      6.413000    4.296000   -0.095000
  H     -4.116000    6.447000    2.142000
  H      2.274000    4.766000    0.081000
  H     -3.169000    4.142000   -2.090000
  H     -4.573000    6.195000   -1.975000
  H     -4.540000    8.468000   -0.104000
  H     -5.955000    7.542000   -0.686000
  H     -5.666000    7.721000    1.067000
  H     -0.332000    5.282000    0.069000
  H     -2.692000    4.409000    2.195000
  H      0.182000    1.072000    0.005000
  H     -0.183000   -1.080000   -0.021000
  H     -5.864000   -4.962000    1.895000
  H     -4.794000    2.272000    0.139000
  H     -4.800000   -2.160000   -1.994000
  H     -6.841000   -3.582000   -1.893000
  H     -8.428000   -4.536000    0.546000
  H     -7.956000   -5.337000   -0.981000
  H     -7.456000   -6.037000    0.584000
  H     -5.287000   -0.344000    0.100000
  H     -3.780000   -3.601000    1.947000
  H      3.587000   -6.868000   -1.843000
  H     -2.276000   -4.774000   -0.050000
  H      3.714000   -3.724000    1.926000
  H      5.092000   -5.795000    1.871000
  H      6.205000   -7.329000   -0.439000
  H      5.393000   -7.917000    1.042000
  H      4.759000   -8.373000   -0.564000
  H      0.329000   -5.290000   -0.008000
  H      2.146000   -4.842000   -1.940000
  H      5.808000    4.986000   -1.956000
  H      4.788000   -2.281000   -0.185000
  H      4.860000    2.114000    1.912000
  H      6.901000    3.531000    1.772000
  H      7.383000    6.109000    0.356000
  H      8.414000    4.652000    0.435000
  H      7.921000    5.310000   -1.150000
  H      5.283000    0.336000   -0.179000
  H      3.720000    3.632000   -1.967000

----------------------------
CARTESIAN COORDINATES (A.U.)
----------------------------
  NO LB      ZA    FRAG     MASS         X           Y           Z
   0 C     6.0000    0    12.011   -7.311350   11.151274    2.343260
   1 C     6.0000    0    12.011    2.785456    7.636383    0.107714
   2 C     6.0000    0    12.011   -5.295013    7.734649    0.092597
   3 C     6.0000    0    12.011   -6.336252    8.719196   -2.139170
   4 C     6.0000    0    12.011   -7.812128   10.869705   -2.059801
   5 C     6.0000    0    12.011   -9.815238   14.390265    0.170075
   6 C     6.0000    0    12.011    0.249444    8.139050    0.115273
   7 C     6.0000    0    12.011   -1.075254    5.775003    0.088817
   8 C     6.0000    0    12.011    3.116158    4.947303    0.043464
   9 C     6.0000    0    12.011   -5.814687    9.012104    2.358378
  10 N     7.0000    0    14.007   -8.286449   12.050784    0.158737
  11 N     7.0000    0    14.007    0.733214    3.906064    0.047243
  12 N     7.0000    0    14.007   -3.798350    0.746442   -0.141729
  13 N     7.0000    0    14.007   -0.733214   -3.919292   -0.051023
  14 N     7.0000    0    14.007    3.798350   -0.757780    0.122832
  15 C     6.0000    0    12.011   -3.703863    5.406506    0.045353
  16 C     6.0000    0    12.011   -4.956752    3.051908   -0.034015
  17 C     6.0000    0    12.011  -10.531444   -8.180624    2.014448
  18 C     6.0000    0    12.011   -7.696855    2.779787    0.105825
  19 C     6.0000    0    12.011   -7.759216   -5.208085   -0.049133
  20 C     6.0000    0    12.011   -9.439182   -5.209975   -2.099486
  21 C     6.0000    0    12.011  -11.587801   -6.693410   -2.033345
  22 C     6.0000    0    12.011  -14.458295   -9.662170    0.075589
  23 C     6.0000    0    12.011   -8.171176    0.266451    0.069920
  24 C     6.0000    0    12.011   -5.716422   -0.982658   -0.090707
  25 C     6.0000    0    12.011   -8.356369   -6.738763    2.031456
  26 N     7.0000    0    14.007  -12.107475   -8.150389    0.001890
  27 C     6.0000    0    12.011   -5.417845   -3.632054   -0.075589
  28 C     6.0000    0    12.011   -3.118048   -4.958641   -0.051023
  29 C     6.0000    0    12.011    6.742543  -11.606698   -1.965315
  30 C     6.0000    0    12.011   -2.789236   -7.651501   -0.064251
  31 C     6.0000    0    12.011    5.296902   -7.745987   -0.015118
  32 C     6.0000    0    12.011    6.910728   -8.284559    2.020117
  33 C     6.0000    0    12.011    8.365818  -10.450186    2.001220
  34 C     6.0000    0    12.011    9.911614  -14.339242    0.026456
  35 C     6.0000    0    12.011   -0.253223   -8.154168   -0.041574
  36 C     6.0000    0    12.011    1.073364   -5.790121   -0.051023
  37 C     6.0000    0    12.011    5.243990   -9.471307   -2.029566
  38 N     7.0000    0    14.007    8.269442  -12.077240    0.032125
  39 C     6.0000    0    12.011    3.701973   -5.421624   -0.017008
  40 C     6.0000    0    12.011    4.952972   -3.065136    0.017008
  41 C     6.0000    0    12.011   10.474752    8.199522   -2.135391
  42 C     6.0000    0    12.011    7.691185   -2.794905   -0.177634
  43 C     6.0000    0    12.011    7.755436    5.198637   -0.039684
  44 C     6.0000    0    12.011    9.499653    5.157063    1.957756
  45 C     6.0000    0    12.011   11.652051    6.631049    1.848152
  46 C     6.0000    0    12.011   14.397823    9.737759   -0.217319
  47 C     6.0000    0    12.011    8.165507   -0.279679   -0.173855
  48 C     6.0000    0    12.011    5.716422    0.971319    0.028346
  49 C     6.0000    0    12.011    8.290229    6.768999   -2.107045
  50 C     6.0000    0    12.011    5.415955    3.620715    0.024566
  51 N     7.0000    0    14.007   12.118814    8.118263   -0.179524
  52 H     1.0000    0     1.008   -7.778113   12.183064    4.047793
  53 H     1.0000    0     1.008    4.297237    9.006435    0.153068
  54 H     1.0000    0     1.008   -5.988542    7.827246   -3.949528
  55 H     1.0000    0     1.008   -8.641718   11.706853   -3.732209
  56 H     1.0000    0     1.008   -8.579357   16.002201   -0.196532
  57 H     1.0000    0     1.008  -11.253319   14.252315   -1.296352
  58 H     1.0000    0     1.008  -10.707188   14.590575    2.016338
  59 H     1.0000    0     1.008   -0.627389    9.981533    0.130391
  60 H     1.0000    0     1.008   -5.087143    8.331803    4.147949
  61 H     1.0000    0     1.008    0.343930    2.025786    0.009449
  62 H     1.0000    0     1.008   -0.345820   -2.040904   -0.039684
  63 H     1.0000    0     1.008  -11.081354   -9.376821    3.581031
  64 H     1.0000    0     1.008   -9.059347    4.293458    0.262672
  65 H     1.0000    0     1.008   -9.070685   -4.081808   -3.768114
  66 H     1.0000    0     1.008  -12.927616   -6.768999   -3.577252
  67 H     1.0000    0     1.008  -15.926612   -8.571798    1.031790
  68 H     1.0000    0     1.008  -15.034661  -10.085468   -1.853821
  69 H     1.0000    0     1.008  -14.089798  -11.408277    1.103600
  70 H     1.0000    0     1.008   -9.990982   -0.650066    0.188973
  71 H     1.0000    0     1.008   -7.143165   -6.804904    3.679297
  72 H     1.0000    0     1.008    6.778448  -12.978639   -3.482765
  73 H     1.0000    0     1.008   -4.301017   -9.021553   -0.094486
  74 H     1.0000    0     1.008    7.018443   -7.037340    3.639613
  75 H     1.0000    0     1.008    9.622485  -10.950963    3.535678
  76 H     1.0000    0     1.008   11.725751  -13.849803   -0.829590
  77 H     1.0000    0     1.008   10.191293  -14.960962    1.969095
  78 H     1.0000    0     1.008    8.993207  -15.822677   -1.065806
  79 H     1.0000    0     1.008    0.621720   -9.996651   -0.015118
  80 H     1.0000    0     1.008    4.055352   -9.150054   -3.666069
  81 H     1.0000    0     1.008   10.975529    9.422175   -3.696304
  82 H     1.0000    0     1.008    9.048009   -4.310465   -0.349599
  83 H     1.0000    0     1.008    9.184069    3.994881    3.613156
  84 H     1.0000    0     1.008   13.041000    6.672623    3.348595
  85 H     1.0000    0     1.008   13.951848   11.544337    0.672743
  86 H     1.0000    0     1.008   15.900156    8.791006    0.822031
  87 H     1.0000    0     1.008   14.968521   10.034446   -2.173185
  88 H     1.0000    0     1.008    9.983423    0.634948   -0.338261
  89 H     1.0000    0     1.008    7.029781    6.863485   -3.717091

--------------------------------
INTERNAL COORDINATES (ANGSTROEM)
--------------------------------
 C      0   0   0     0.000000000000     0.00000000     0.00000000
 C      1   0   0     5.779856226586     0.00000000     0.00000000
 C      1   2   0     2.413676448905    41.34881668     0.00000000
 C      3   1   2     1.403496704663    87.91387404   244.63482724
 C      4   3   1     1.380858066566   120.15757172     0.14297735
 C      5   4   3     2.446787485664   152.52206005     1.63260431
 C      2   1   3     1.368114030335    14.08414694    23.50391962
 C      7   2   3     1.434084376876   108.05010202     0.84668783
 C      2   1   3     1.434123425651   115.91048988   324.01984238
 C      1   2   3     1.381575911776    37.58784487    48.03916419
 N      1   2   3     1.352467374838   106.91809077   289.20616291
 N      9   2   1     1.376127174356   106.58526707    11.98810419
 N     12   9   2     2.925062050624   168.53581413   171.12065651
 N     13  12   9     2.954513327098    91.55032014    11.12112580
 N     14  13  12     2.925371258490    88.43092389   359.84326247
 C      8   7   2     1.404790019896   127.24786865   181.11170171
 C     13  12   9     1.366535034311    81.72106996   188.00453233
 C     14  13  12     5.758810554272    80.56209567   166.76250791
 C     17  13  12     1.459010623676   111.08861209   183.82872609
 C     18  14  13     2.412235892279    27.27532823    36.33507194
 C     20  18  14     1.402692767501    87.95206320   148.94598259
 C     21  20  18     1.382106725257   120.14573887   359.70382047
 C     18  14  13     2.446510985056   144.15733107    82.80075377
 C     19  17  13     1.353610726908   106.29293361   359.75308708
 C     13  12   9     1.366813447402   172.21332906    33.46711076
 C     18  14  13     1.380960173213    15.08449437   309.23336894
 N     22  21  20     1.352773077792   120.73759875     0.27865223
 C     25  13  17     1.410897586645   125.60330303   182.37774668
 C     14  13  12     1.376642291955    80.24689249   177.85461986
 C     14  13  12     5.764089607215   164.51507311   312.20821879
 C     29  14  13     1.435600919476   106.58649366   178.76395472
 C     30  14  13     2.413316804732    27.10625047    82.12560436
 C     32  30  14     1.403734305344    87.90059683   149.76154742
 C     33  32  30     1.380694028378   120.14881443   359.74174632
 C     34  33  32     2.448777858443   152.49203239     2.45173620
 C     31  29  14     1.368160809262   108.16950133     0.70383075
 C     14  13  12     1.376239804685   169.26375223   353.09862627
 C     30  14  13     1.380907310430    14.68948582   353.70041132
 N     34  33  32     1.352658863128   120.85575621     0.19603406
 C     37  14  29     1.404717053360   126.01551127   180.90772073
 C     15  14  13     1.366491126938    81.61824056   183.09049352
 C      2   1   3     4.249062720177   156.90438854   134.57866782
 C     41  15  14     1.459677704153   111.05201287   175.08990246
 C     42   2   1     2.412953791518    41.78584867   164.85287650
 C     44  42   2     1.403446472082    87.95153797   233.97558675
 C     45  44  42     1.381696421071   120.11137308     0.19721020
 C     42   2   1     2.450019795838   135.97209175    75.16772560
 C     43  41  15     1.354461516618   106.26758155     0.30894352
 C     15  14  13     1.367461151185   171.87382904   332.35056460
 C     42   2   1     1.381886391857    32.59078432   213.70815569
 C      9   2   1     1.404988612053   126.98745415   192.99244172
 N     42   2   1     1.352765315936   113.57249190   102.90431480
 H      1   2   3     1.082926128598   122.92761652   150.25065559
 H      2   1   3     1.079907866440   117.65954991   156.07301793
 H      4   3   1     1.083699220264   121.03276530   179.55632868
 H      5   4   3     1.082679546311   122.79793537   179.47151285
 H      6   5   4     1.092227540396   104.45242235   100.07121736
 H      6   5   4     1.089323643368    84.72548172   209.52663600
 H      6   5   4     1.090205943847   133.93002729   322.39404836
 H      7   2  54     1.079807853278   126.66122480     1.30600390
 H     10   1   2     1.083805333074   118.74140119   103.47301310
 H     12   9   2     1.016297692608   125.29023241   180.00180175
 H     14  13  12     1.014936943854    44.97226959   359.42596618
 H     18  14  13     1.082871645210   128.03556573   234.20482432
 H     19  17  13     1.080893611786   126.41830519   178.11313280
 H     21  20  18     1.083569563987   121.05669627   180.67006309
 H     22  21  20     1.082483256222   122.73097286   180.59748951
 H     23  18  14     1.092105306278   103.92715769   234.93429879
 H     23  18  14     1.088871893291   134.19244188    12.25587044
 H     23  18  14     1.089833473518    84.85857450   125.45241208
 H     24  19  17     1.080075460327   127.28078426   178.44613241
 H     26  18  14     1.083408048706   118.76995697   244.94906660
 H     30  14  13     1.082703098730   127.99711412   279.66882698
 H     31  29  14     1.079759695488   125.22293469   180.92530585
 H     33  32  30     1.083188810873   121.01964473   180.74284758
 H     34  33  32     1.082494341787   122.70821597   180.59516895
 H     35  34  33     1.092652735319   105.73575241    97.19771933
 H     35  34  33     1.089462711615    84.05943581   206.43036958
 H     35  34  33     1.089268102902   133.08365142   318.50306270
 H     36  31  29     1.079439669458   126.61599965   178.98859863
 H     38  30  73     1.083742127999   118.77264435   359.90091293
 H     42   2   1     1.082178358682   119.31790784   319.53584525
 H     43  41  15     1.080281907652   126.36969097   182.06329380
 H     45  44  42     1.083277434455   121.10105945   179.58025624
 H     46  45  44     1.082194529648   122.72144639   179.46906377
 H     47  42   2     1.091546151109   106.65128841   315.16475048
 H     47  42   2     1.088818625851   132.46019523    94.52397119
 H     47  42   2     1.089531091801    83.63838232   206.04504406
 H     48  43  41     1.080402239909   127.23657387   181.62955349
 H     50  42   2     1.083186502870   118.77001737    94.71359229

---------------------------
INTERNAL COORDINATES (A.U.)
---------------------------
 C      0   0   0     0.000000000000     0.00000000     0.00000000
 C      1   0   0    10.922345361686     0.00000000     0.00000000
 C      1   2   0     4.561187464327    41.34881668     0.00000000
 C      3   1   2     2.652224401674    87.91387404   244.63482724
 C      4   3   1     2.609443575625   120.15757172     0.14297735
 C      5   4   3     4.623758255810   152.52206005     1.63260431
 C      2   1   3     2.585360837309    14.08414694    23.50391962
 C      7   2   3     2.710026725231   108.05010202     0.84668783
 C      2   1   3     2.710100516721   115.91048988   324.01984238
 C      1   2   3     2.610800106479    37.58784487    48.03916419
 N      1   2   3     2.555792943506   106.91809077   289.20616291
 N      9   2   1     2.600503484979   106.58526707    11.98810419
 N     12   9   2     5.527566200405   168.53581413   171.12065651
 N     13  12   9     5.583221047236    91.55032014    11.12112580
 N     14  13  12     5.528150518591    88.43092389   359.84326247
 C      8   7   2     2.654668413270   127.24786865   181.11170171
 C     13  12   9     2.582376967257    81.72106996   188.00453233
 C     14  13  12    10.882574804710    80.56209567   166.76250791
 C     17  13  12     2.757130505230   111.08861209   183.82872609
 C     18  14  13     4.558465206823    27.27532823    36.33507194
 C     20  18  14     2.650705180609    87.95206320   148.94598259
 C     21  20  18     2.611803198586   120.14573887   359.70382047
 C     18  14  13     4.623235745386   144.15733107    82.80075377
 C     19  17  13     2.557953565794   106.29293361   359.75308708
 C     13  12   9     2.582903091751   172.21332906    33.46711076
 C     18  14  13     2.609636529225    15.08449437   309.23336894
 N     22  21  20     2.556370638369   120.73759875     0.27865223
 C     25  13  17     2.666210041769   125.60330303   182.37774668
 C     14  13  12     2.601476916169    80.24689249   177.85461986
 C     14  13  12    10.892550769017   164.51507311   312.20821879
 C     29  14  13     2.712892575415   106.58649366   178.76395472
 C     30  14  13     4.560507835333    27.10625047    82.12560436
 C     32  30  14     2.652673401891    87.90059683   149.76154742
 C     33  32  30     2.609133588376   120.14881443   359.74174632
 C     34  33  32     4.627519515267   152.49203239     2.45173620
 C     31  29  14     2.585449236669   108.16950133     0.70383075
 C     14  13  12     2.600716325456   169.26375223   353.09862627
 C     30  14  13     2.609536633043    14.68948582   353.70041132
 N     34  33  32     2.556154803934   120.85575621     0.19603406
 C     37  14  29     2.654530526499   126.01551127   180.90772073
 C     15  14  13     2.582293994346    81.61824056   183.09049352
 C      2   1   3     8.029564866989   156.90438854   134.57866782
 C     41  15  14     2.758391104639   111.05201287   175.08990246
 C     42   2   1     4.559821839776    41.78584867   164.85287650
 C     44  42   2     2.652129475853    87.95153797   233.97558675
 C     45  44  42     2.611027836043   120.11137308     0.19721020
 C     42   2   1     4.629866436820   135.97209175    75.16772560
 C     43  41  15     2.559561325344   106.26758155     0.30894352
 C     15  14  13     2.584127074516   171.87382904   332.35056460
 C     42   2   1     2.611386828803    32.59078432   213.70815569
 C      9   2   1     2.655043698059   126.98745415   192.99244172
 N     42   2   1     2.556355970587   113.57249190   102.90431480
 H      1   2   3     2.046433806318   122.92761652   150.25065559
 H      2   1   3     2.040730117440   117.65954991   156.07301793
 H      4   3   1     2.047894737842   121.03276530   179.55632868
 H      5   4   3     2.045967833326   122.79793537   179.47151285
 H      6   5   4     2.064010927275   104.45242235   100.07121736
 H      6   5   4     2.058523357170    84.72548172   209.52663600
 H      6   5   4     2.060190663445   133.93002729   322.39404836
 H      7   2  54     2.040541119952   126.66122480     1.30600390
 H     10   1   2     2.048095261993   118.74140119   103.47301310
 H     12   9   2     1.920524309565   125.29023241   180.00180175
 H     14  13  12     1.917952867083    44.97226959   359.42596618
 H     18  14  13     2.046330847636   128.03556573   234.20482432
 H     19  17  13     2.042592906181   126.41830519   178.11313280
 H     21  20  18     2.047649722989   121.05669627   180.67006309
 H     22  21  20     2.045596898814   122.73097286   180.59748951
 H     23  18  14     2.063779938267   103.92715769   234.93429879
 H     23  18  14     2.057669673245   134.19244188    12.25587044
 H     23  18  14     2.059486796529    84.85857450   125.45241208
 H     24  19  17     2.041046823986   127.28078426   178.44613241
 H     26  18  14     2.047344503340   118.76995697   244.94906660
 H     30  14  13     2.046012340948   127.99711412   279.66882698
 H     31  29  14     2.040450114918   125.22293469   180.92530585
 H     33  32  30     2.046930203877   121.01964473   180.74284758
 H     34  33  32     2.045617847496   122.70821597   180.59516895
 H     35  34  33     2.064814429233   105.73575241    97.19771933
 H     35  34  33     2.058786158072    84.05943581   206.43036958
 H     35  34  33     2.058418400901   133.08365142   318.50306270
 H     36  31  29     2.039845353366   126.61599965   178.98859863
 H     38  30  73     2.047975821711   118.77264435   359.90091293
 H     42   2   1     2.045020725966   119.31790784   319.53584525
 H     43  41  15     2.041436952892   126.36969097   182.06329380
 H     45  44  42     2.047097678177   121.10105945   179.58025624
 H     46  45  44     2.045051284662   122.72144639   179.46906377
 H     47  42   2     2.062723288131   106.65128841   315.16475048
 H     47  42   2     2.057569012371   132.46019523    94.52397119
 H     47  42   2     2.058915377895    83.63838232   206.04504406
 H     48  43  41     2.041664347903   127.23657387   181.62955349
 H     50  42   2     2.046925842384   118.77001737    94.71359229

---------------------
BASIS SET INFORMATION
---------------------
There are 3 groups of distinct atoms

 Group   1 Type C   : 17s4p1d contracted to 3s2p1d pattern {881/31/1}
 Group   2 Type N   : 17s4p1d contracted to 3s2p1d pattern {881/31/1}
 Group   3 Type H   : 4s1p contracted to 2s1p pattern {31/1}

Atom   0C    basis set group =>   1
Atom   1N    basis set group =>   2
Atom   2C    basis set group =>   1
Atom   3N    basis set group =>   2
Atom   4C    basis set group =>   1
Atom   5N    basis set group =>   2
Atom   6C    basis set group =>   1
Atom   7N    basis set group =>   2
Atom   8C    basis set group =>   1
Atom   9N    basis set group =>   2
Atom  10C    basis set group =>   1
Atom  11N    basis set group =>   2
Atom  12C    basis set group =>   1
Atom  13N    basis set group =>   2
Atom  14C    basis set group =>   1
Atom  15N    basis set group =>   2
Atom  16C    basis set group =>   1
Atom  17C    basis set group =>   1
Atom  18C    basis set group =>   1
Atom  19C    basis set group =>   1
Atom  20C    basis set group =>   1
Atom  21C    basis set group =>   1
Atom  22C    basis set group =>   1
Atom  23C    basis set group =>   1
Atom  24C    basis set group =>   1
Atom  25C    basis set group =>   1
Atom  26C    basis set group =>   1
Atom  27C    basis set group =>   1
Atom  28C    basis set group =>   1
Atom  29C    basis set group =>   1
Atom  30C    basis set group =>   1
Atom  31C    basis set group =>   1
Atom  32C    basis set group =>   1
Atom  33C    basis set group =>   1
Atom  34C    basis set group =>   1
Atom  35C    basis set group =>   1
Atom  36C    basis set group =>   1
Atom  37C    basis set group =>   1
Atom  38C    basis set group =>   1
Atom  39C    basis set group =>   1
Atom  40C    basis set group =>   1
Atom  41C    basis set group =>   1
Atom  42C    basis set group =>   1
Atom  43C    basis set group =>   1
Atom  44C    basis set group =>   1
Atom  45C    basis set group =>   1
Atom  46C    basis set group =>   1
Atom  47C    basis set group =>   1
Atom  48C    basis set group =>   1
Atom  49C    basis set group =>   1
Atom  50C    basis set group =>   1
Atom  51C    basis set group =>   1
Atom  52H    basis set group =>   3
Atom  53H    basis set group =>   3
Atom  54H    basis set group =>   3
Atom  55H    basis set group =>   3
Atom  56H    basis set group =>   3
Atom  57H    basis set group =>   3
Atom  58H    basis set group =>   3
Atom  59H    basis set group =>   3
Atom  60H    basis set group =>   3
Atom  61H    basis set group =>   3
Atom  62H    basis set group =>   3
Atom  63H    basis set group =>   3
Atom  64H    basis set group =>   3
Atom  65H    basis set group =>   3
Atom  66H    basis set group =>   3
Atom  67H    basis set group =>   3
Atom  68H    basis set group =>   3
Atom  69H    basis set group =>   3
Atom  70H    basis set group =>   3
Atom  71H    basis set group =>   3
Atom  72H    basis set group =>   3
Atom  73H    basis set group =>   3
Atom  74H    basis set group =>   3
Atom  75H    basis set group =>   3
Atom  76H    basis set group =>   3
Atom  77H    basis set group =>   3
Atom  78H    basis set group =>   3
Atom  79H    basis set group =>   3
Atom  80H    basis set group =>   3
Atom  81H    basis set group =>   3
Atom  82H    basis set group =>   3
Atom  83H    basis set group =>   3
Atom  84H    basis set group =>   3
Atom  85H    basis set group =>   3
Atom  86H    basis set group =>   3
Atom  87H    basis set group =>   3
Atom  88H    basis set group =>   3
Atom  89H    basis set group =>   3


           ************************************************************
           *        Program running with 16 parallel MPI-processes    *
           *              working on a common directory               *
           ************************************************************
------------------------------------------------------------------------------
                           ORCA GTO INTEGRAL CALCULATION
------------------------------------------------------------------------------
------------------------------------------------------------------------------
                   ___                                                        
                  /   \      - P O W E R E D   B Y -                         
                 /     \                                                     
                 |  |  |   _    _      __       _____    __    __             
                 |  |  |  | |  | |    /  \     |  _  \  |  |  /  |          
                  \  \/   | |  | |   /    \    | | | |  |  | /  /          
                 / \  \   | |__| |  /  /\  \   | |_| |  |  |/  /          
                |  |  |   |  __  | /  /__\  \  |    /   |      \           
                |  |  |   | |  | | |   __   |  |    \   |  |\   \          
                \     /   | |  | | |  |  |  |  | |\  \  |  | \   \       
                 \___/    |_|  |_| |__|  |__|  |_| \__\ |__|  \__/        
                                                                              
                      - O R C A' S   B I G   F R I E N D -                    
                                      &                                       
                       - I N T E G R A L  F E E D E R -                       
                                                                              
 v1 FN, 2020, v2 2021                                                         
------------------------------------------------------------------------------


Reading SHARK input file /scratch/allen/tmpyp4_amber_gaff2/conf1/conf1/Conf280.orca.SHARKINP.tmp ... ok
----------------------
SHARK INTEGRAL PACKAGE
----------------------

Number of atoms                             ...     90
Number of basis functions                   ...   1230
Number of shells                            ...    738
Maximum angular momentum                    ...      2
Integral batch strategy                     ... SHARK/LIBINT Hybrid
RI-J (if used) integral strategy            ... SPLIT-RIJ (Revised 2003 algorithm where possible)
Printlevel                                  ...      1
Contraction scheme used                     ... PARTIAL GENERAL contraction
Coulomb Range Separation                    ... NOT USED
Exchange Range Separation                   ... NOT USED
Finite Nucleus Model                        ... NOT USED
Auxiliary Coulomb fitting basis             ... NOT available
Auxiliary J/K fitting basis                 ... NOT available
Auxiliary Correlation fitting basis         ... NOT available
Auxiliary 'external' fitting basis          ... NOT available
Integral threshold                          ...     2.500000e-11
Primitive cut-off                           ...     2.500000e-12
Primitive pair pre-selection threshold      ...     2.500000e-12

Calculating pre-screening integrals         ... done (  0.1 sec) Dimension = 738
Calculating pre-screening integrals (ORCA)  ... done (  0.3 sec) Dimension = 426
Organizing shell pair data                  ... done (  0.7 sec)
Shell pair information
Total number of shell pairs                 ...    272691
Shell pairs after pre-screening             ...     71598
Total number of primitive shell pairs       ...    422091
Primitive shell pairs kept                  ...     92356
          la=0 lb=0:  29417 shell pairs
          la=1 lb=0:  25956 shell pairs
          la=1 lb=1:   4686 shell pairs
          la=2 lb=0:   7893 shell pairs
          la=2 lb=1:   3115 shell pairs
          la=2 lb=2:    531 shell pairs

Calculating one electron integrals          ... done (  0.2 sec)
Calculating Nuclear repulsion               ... done (  0.0 sec) ENN=   6222.010954679612 Eh

SHARK setup successfully completed in   2.3 seconds

Maximum memory used throughout the entire GTOINT-calculation: 98.9 MB


           ************************************************************
           *        Program running with 16 parallel MPI-processes    *
           *              working on a common directory               *
           ************************************************************
-------------------------------------------------------------------------------
                                 ORCA SCF
-------------------------------------------------------------------------------

------------
SCF SETTINGS
------------
Hamiltonian:
 Ab initio Hamiltonian  Method          .... Hartree-Fock(GTOs)


General Settings:
 Integral files         IntName         .... /scratch/allen/tmpyp4_amber_gaff2/conf1/conf1/Conf280.orca
 Hartree-Fock type      HFTyp           .... RHF
 Total Charge           Charge          ....    0
 Multiplicity           Mult            ....    1
 Number of Electrons    NEL             ....  358
 Basis Dimension        Dim             ....  918
 Nuclear Repulsion      ENuc            ....   6222.0109546796 Eh

Convergence Acceleration:
 DIIS                   CNVDIIS         .... on
   Start iteration      DIISMaxIt       ....    12
   Startup error        DIISStart       ....  0.200000
   # of expansion vecs  DIISMaxEq       ....     5
   Bias factor          DIISBfac        ....   1.050
   Max. coefficient     DIISMaxC        ....  10.000
 Trust-Rad. Augm. Hess. CNVTRAH         .... auto
   Auto Start mean grad. ratio tolernc. ....  1.125000
   Auto Start start iteration           ....    20
   Auto Start num. interpolation iter.  ....    10
   Max. Number of Micro iterations      ....    16
   Max. Number of Macro iterations      .... Maxiter - #DIIS iter
   Number of Davidson start vectors     ....     2
   Converg. threshold I  (grad. norm)   ....   1.000e-05
   Converg. threshold II (energy diff.) ....   1.000e-08
   Grad. Scal. Fac. for Micro threshold ....   0.100
   Minimum threshold for Micro iter.    ....   0.010
   NR start threshold (gradient norm)   ....   0.001
   Initial trust radius                 ....   0.400
   Minimum AH scaling param. (alpha)    ....   1.000
   Maximum AH scaling param. (alpha)    .... 1000.000
   Orbital update algorithm             .... Taylor
   White noise on init. David. guess    .... on
   Maximum white noise                  ....   0.010
   Quad. conv. algorithm                .... NR
 SOSCF                  CNVSOSCF        .... on
   Start iteration      SOSCFMaxIt      ....   150
   Startup grad/error   SOSCFStart      ....  0.003300
 Level Shifting         CNVShift        .... on
   Level shift para.    LevelShift      ....    0.2500
   Turn off err/grad.   ShiftErr        ....    0.0010
 Zerner damping         CNVZerner       .... off
 Static damping         CNVDamp         .... on
   Fraction old density DampFac         ....    0.7000
   Max. Damping (<1)    DampMax         ....    0.9800
   Min. Damping (>=0)   DampMin         ....    0.0000
   Turn off err/grad.   DampErr         ....    0.1000
 Fernandez-Rico         CNVRico         .... off

SCF Procedure:
 Maximum # iterations   MaxIter         ....   125
 SCF integral mode      SCFMode         .... Direct
   Integral package                     .... SHARK and LIBINT hybrid scheme
 Reset frequency        DirectResetFreq ....    20
 Integral Threshold     Thresh          ....  2.500e-11 Eh
 Primitive CutOff       TCut            ....  2.500e-12 Eh

Convergence Tolerance:
 Convergence Check Mode ConvCheckMode   .... Total+1el-Energy
 Convergence forced     ConvForced      .... 1
 Energy Change          TolE            ....  1.000e-08 Eh
 1-El. energy change                    ....  1.000e-05 Eh
 Orbital Gradient       TolG            ....  1.000e-05
 Orbital Rotation angle TolX            ....  1.000e-05
 DIIS Error             TolErr          ....  5.000e-07


Diagonalization of the overlap matrix:
Smallest eigenvalue                        ... 2.263e-04
Time for diagonalization                   ...    0.484 sec
Threshold for overlap eigenvalues          ... 1.000e-08
Number of eigenvalues below threshold      ... 0
Time for construction of square roots      ...    0.270 sec
Total time needed                          ...    0.761 sec

Time for model grid setup =    1.290 sec

------------------------------
INITIAL GUESS: MODEL POTENTIAL
------------------------------
Loading Hartree-Fock densities                     ... done
Calculating cut-offs                               ... done
Initializing the effective Hamiltonian             ... done
Setting up the integral package (SHARK)            ... done
Starting the Coulomb interaction                   ... done (   1.4 sec)
Reading the grid                                   ... done
Mapping shells                                     ... done
Starting the XC term evaluation                    ... done (   0.2 sec)
Transforming the Hamiltonian                       ... done (   0.3 sec)
Diagonalizing the Hamiltonian                      ... done (   0.4 sec)
Back transforming the eigenvectors                 ... done (   0.1 sec)
Now organizing SCF variables                       ... done
                      ------------------
                      INITIAL GUESS DONE (   3.8 sec)
                      ------------------
--------------
SCF ITERATIONS
--------------
ITER       Energy         Delta-E        Max-DP      RMS-DP      [F,P]     Damp
               ***  Starting incremental Fock matrix formation  ***
  0  -2121.6447951005   0.000000000000 0.06931738  0.00121160  0.2349004 0.7000
  1  -2122.3138607216  -0.669065621116 0.05268572  0.00098176  0.1452913 0.7000
                               ***Turning on DIIS***
  2  -2122.7300010349  -0.416140313338 0.11717979  0.00221992  0.0806621 0.0000
  3  -2117.7302615925   4.999739442459 0.03397553  0.00068634  0.0443391 0.0000
  4  -2123.4058866178  -5.675625025282 0.00915205  0.00023033  0.0072675 0.0000
  5  -2123.5807621663  -0.174875548502 0.00527119  0.00013813  0.0051212 0.0000
  6  -2123.5613174525   0.019444713751 0.00425170  0.00009348  0.0023421 0.0000
  7  -2123.6663407606  -0.105023308059 0.00376976  0.00007781  0.0018328 0.0000
  8  -2123.6941373269  -0.027796566346 0.00362075  0.00007830  0.0017195 0.0000
  9  -2123.6533974467   0.040739880225 0.00287456  0.00005697  0.0013787 0.0000
                      *** Initiating the SOSCF procedure ***
                           *** Shutting down DIIS ***
                      *** Re-Reading the Fockian *** 
                      *** Removing any level shift *** 
ITER      Energy       Delta-E        Grad      Rot      Max-DP    RMS-DP
 10  -2123.67594344  -0.0225459910  0.003174  0.003174  0.002872  0.000055
               *** Restarting incremental Fock matrix formation ***
 11  -2123.61055351   0.0653899323  0.001841  0.016640  0.005182  0.000084
 12  -2123.61095590  -0.0004023951  0.001140  0.041941  0.010135  0.000193
 13  -2123.61157615  -0.0006202474  0.000662  0.022200  0.006356  0.000101
 14  -2123.61177884  -0.0002026874  0.000732  0.015513  0.004757  0.000077
 15  -2123.61189894  -0.0001201057  0.000578  0.012653  0.002955  0.000051
 16  -2123.61196720  -0.0000682560  0.000283  0.011795  0.002278  0.000050
 17  -2123.61201467  -0.0000474748  0.000340  0.011542  0.002119  0.000039
 18  -2123.61204225  -0.0000275773  0.000291  0.006129  0.001378  0.000022
 19  -2123.61205358  -0.0000113335  0.000173  0.004389  0.000840  0.000014
 20  -2123.61205898  -0.0000053991  0.000151  0.002793  0.000527  0.000010
 21  -2123.61206276  -0.0000037768  0.000095  0.004872  0.000813  0.000016
 22  -2123.61206617  -0.0000034075  0.000061  0.003317  0.000586  0.000011
 23  -2123.61206763  -0.0000014655  0.000050  0.002408  0.000425  0.000008
 24  -2123.61206840  -0.0000007683  0.000036  0.000696  0.000213  0.000003
 25  -2123.61206873  -0.0000003322  0.000031  0.000941  0.000232  0.000003
 26  -2123.61206897  -0.0000002375  0.000025  0.001115  0.000288  0.000004
 27  -2123.61206917  -0.0000002007  0.000017  0.000903  0.000232  0.000003
 28  -2123.61206930  -0.0000001289  0.000015  0.000449  0.000111  0.000002
 29  -2123.61206936  -0.0000000588  0.000010  0.000100  0.000026  0.000001
 30  -2123.61206938  -0.0000000200  0.000004  0.000053  0.000016  0.000000
               *** Restarting incremental Fock matrix formation ***
 31  -2123.61206934   0.0000000356  0.000003  0.000084  0.000024  0.000000
                  ***Gradient check signals convergence***
              ***Rediagonalizing the Fockian in SOSCF/NRSCF***

               *****************************************************
               *                     SUCCESS                       *
               *           SCF CONVERGED AFTER  32 CYCLES          *
               *****************************************************


----------------
TOTAL SCF ENERGY
----------------

Total Energy       :        -2123.61206934 Eh          -57786.42221 eV

Components:
Nuclear Repulsion  :         6222.01095468 Eh          169309.52561 eV
Electronic Energy  :        -8345.62302402 Eh         -227095.94782 eV
One Electron Energy:       -15285.50557225 Eh         -415939.75259 eV
Two Electron Energy:         6939.88254823 Eh          188843.80477 eV

Virial components:
Potential Energy   :        -4245.59261839 Eh         -115528.44850 eV
Kinetic Energy     :         2121.98054905 Eh           57742.02629 eV
Virial Ratio       :            2.00076887


---------------
SCF CONVERGENCE
---------------

  Last Energy change         ...    6.9122e-10  Tolerance :   1.0000e-08
  Last MAX-Density change    ...    1.6084e-05  Tolerance :   1.0000e-07
  Last RMS-Density change    ...    2.9814e-07  Tolerance :   5.0000e-09
  Last Orbital Gradient      ...    2.4930e-06  Tolerance :   1.0000e-05
  Last Orbital Rotation      ...    8.0358e-05  Tolerance :   1.0000e-05

             **** THE GBW FILE WAS UPDATED (/scratch/allen/tmpyp4_amber_gaff2/conf1/conf1/Conf280.orca.gbw) ****
             **** DENSITY /scratch/allen/tmpyp4_amber_gaff2/conf1/conf1/Conf280.orca.scfp WAS UPDATED ****
             **** ENERGY FILE WAS UPDATED (/scratch/allen/tmpyp4_amber_gaff2/conf1/conf1/Conf280.orca.en.tmp) ****
             **** THE GBW FILE WAS UPDATED (/scratch/allen/tmpyp4_amber_gaff2/conf1/conf1/Conf280.orca.gbw) ****
             **** DENSITY /scratch/allen/tmpyp4_amber_gaff2/conf1/conf1/Conf280.orca.scfp WAS UPDATED ****
----------------
ORBITAL ENERGIES
----------------

  NO   OCC          E(Eh)            E(eV) 
   0   2.0000     -15.703718      -427.3199 
   1   2.0000     -15.631556      -425.3563 
   2   2.0000     -15.620833      -425.0645 
   3   2.0000     -15.585210      -424.0951 
   4   2.0000     -15.519380      -422.3038 
   5   2.0000     -15.506297      -421.9478 
   6   2.0000     -15.450061      -420.4175 
   7   2.0000     -15.429061      -419.8461 
   8   2.0000     -11.345193      -308.7184 
   9   2.0000     -11.344732      -308.7059 
  10   2.0000     -11.340730      -308.5970 
  11   2.0000     -11.299293      -307.4694 
  12   2.0000     -11.298153      -307.4384 
  13   2.0000     -11.292432      -307.2827 
  14   2.0000     -11.290950      -307.2424 
  15   2.0000     -11.283708      -307.0453 
  16   2.0000     -11.282580      -307.0146 
  17   2.0000     -11.276903      -306.8601 
  18   2.0000     -11.276693      -306.8544 
  19   2.0000     -11.274099      -306.7838 
  20   2.0000     -11.268653      -306.6356 
  21   2.0000     -11.250467      -306.1408 
  22   2.0000     -11.246824      -306.0416 
  23   2.0000     -11.235173      -305.7246 
  24   2.0000     -11.228864      -305.5529 
  25   2.0000     -11.228000      -305.5294 
  26   2.0000     -11.225039      -305.4488 
  27   2.0000     -11.220418      -305.3231 
  28   2.0000     -11.220170      -305.3164 
  29   2.0000     -11.207683      -304.9765 
  30   2.0000     -11.206691      -304.9496 
  31   2.0000     -11.194722      -304.6239 
  32   2.0000     -11.193947      -304.6028 
  33   2.0000     -11.191397      -304.5334 
  34   2.0000     -11.190928      -304.5206 
  35   2.0000     -11.189608      -304.4847 
  36   2.0000     -11.189597      -304.4844 
  37   2.0000     -11.182943      -304.3033 
  38   2.0000     -11.182827      -304.3002 
  39   2.0000     -11.173421      -304.0443 
  40   2.0000     -11.166048      -303.8436 
  41   2.0000     -11.165399      -303.8260 
  42   2.0000     -11.162725      -303.7532 
  43   2.0000     -11.161131      -303.7098 
  44   2.0000     -11.158490      -303.6379 
  45   2.0000     -11.148165      -303.3570 
  46   2.0000     -11.147513      -303.3392 
  47   2.0000     -11.143701      -303.2355 
  48   2.0000     -11.142188      -303.1943 
  49   2.0000     -11.135066      -303.0006 
  50   2.0000     -11.119903      -302.5879 
  51   2.0000     -11.115226      -302.4607 
  52   2.0000      -1.378696       -37.5162 
  53   2.0000      -1.319291       -35.8997 
  54   2.0000      -1.309511       -35.6336 
  55   2.0000      -1.279293       -34.8113 
  56   2.0000      -1.222062       -33.2540 
  57   2.0000      -1.202625       -32.7251 
  58   2.0000      -1.174053       -31.9476 
  59   2.0000      -1.155905       -31.4538 
  60   2.0000      -1.139726       -31.0135 
  61   2.0000      -1.108104       -30.1531 
  62   2.0000      -1.098998       -29.9052 
  63   2.0000      -1.097716       -29.8704 
  64   2.0000      -1.072511       -29.1845 
  65   2.0000      -1.049053       -28.5462 
  66   2.0000      -1.043538       -28.3961 
  67   2.0000      -1.034304       -28.1448 
  68   2.0000      -1.014085       -27.5947 
  69   2.0000      -1.006217       -27.3806 
  70   2.0000      -1.004467       -27.3329 
  71   2.0000      -0.991368       -26.9765 
  72   2.0000      -0.984045       -26.7772 
  73   2.0000      -0.978984       -26.6395 
  74   2.0000      -0.964996       -26.2589 
  75   2.0000      -0.961314       -26.1587 
  76   2.0000      -0.951464       -25.8907 
  77   2.0000      -0.942083       -25.6354 
  78   2.0000      -0.923856       -25.1394 
  79   2.0000      -0.922299       -25.0970 
  80   2.0000      -0.914911       -24.8960 
  81   2.0000      -0.889198       -24.1963 
  82   2.0000      -0.881841       -23.9961 
  83   2.0000      -0.870229       -23.6801 
  84   2.0000      -0.861653       -23.4468 
  85   2.0000      -0.848626       -23.0923 
  86   2.0000      -0.833821       -22.6894 
  87   2.0000      -0.828666       -22.5492 
  88   2.0000      -0.821538       -22.3552 
  89   2.0000      -0.795012       -21.6334 
  90   2.0000      -0.788138       -21.4463 
  91   2.0000      -0.764097       -20.7921 
  92   2.0000      -0.733552       -19.9610 
  93   2.0000      -0.729348       -19.8466 
  94   2.0000      -0.727288       -19.7905 
  95   2.0000      -0.721486       -19.6326 
  96   2.0000      -0.716679       -19.5018 
  97   2.0000      -0.707266       -19.2457 
  98   2.0000      -0.703159       -19.1339 
  99   2.0000      -0.698324       -19.0024 
 100   2.0000      -0.695659       -18.9298 
 101   2.0000      -0.690436       -18.7877 
 102   2.0000      -0.683815       -18.6076 
 103   2.0000      -0.674718       -18.3600 
 104   2.0000      -0.672969       -18.3124 
 105   2.0000      -0.669000       -18.2044 
 106   2.0000      -0.664229       -18.0746 
 107   2.0000      -0.660487       -17.9728 
 108   2.0000      -0.653355       -17.7787 
 109   2.0000      -0.650944       -17.7131 
 110   2.0000      -0.648652       -17.6507 
 111   2.0000      -0.643677       -17.5153 
 112   2.0000      -0.640495       -17.4287 
 113   2.0000      -0.638089       -17.3633 
 114   2.0000      -0.631679       -17.1889 
 115   2.0000      -0.625518       -17.0212 
 116   2.0000      -0.624839       -17.0027 
 117   2.0000      -0.620082       -16.8733 
 118   2.0000      -0.612943       -16.6790 
 119   2.0000      -0.610884       -16.6230 
 120   2.0000      -0.609557       -16.5869 
 121   2.0000      -0.602332       -16.3903 
 122   2.0000      -0.590896       -16.0791 
 123   2.0000      -0.585730       -15.9385 
 124   2.0000      -0.583221       -15.8703 
 125   2.0000      -0.579705       -15.7746 
 126   2.0000      -0.576226       -15.6799 
 127   2.0000      -0.576110       -15.6767 
 128   2.0000      -0.572224       -15.5710 
 129   2.0000      -0.560680       -15.2569 
 130   2.0000      -0.556753       -15.1500 
 131   2.0000      -0.548537       -14.9264 
 132   2.0000      -0.542381       -14.7589 
 133   2.0000      -0.539280       -14.6746 
 134   2.0000      -0.534215       -14.5367 
 135   2.0000      -0.530368       -14.4321 
 136   2.0000      -0.518510       -14.1094 
 137   2.0000      -0.515727       -14.0336 
 138   2.0000      -0.514880       -14.0106 
 139   2.0000      -0.512419       -13.9436 
 140   2.0000      -0.510293       -13.8858 
 141   2.0000      -0.503537       -13.7019 
 142   2.0000      -0.501818       -13.6552 
 143   2.0000      -0.500085       -13.6080 
 144   2.0000      -0.495313       -13.4782 
 145   2.0000      -0.493773       -13.4363 
 146   2.0000      -0.490760       -13.3543 
 147   2.0000      -0.476599       -12.9689 
 148   2.0000      -0.475221       -12.9314 
 149   2.0000      -0.464865       -12.6496 
 150   2.0000      -0.462226       -12.5778 
 151   2.0000      -0.459602       -12.5064 
 152   2.0000      -0.451230       -12.2786 
 153   2.0000      -0.441485       -12.0134 
 154   2.0000      -0.435222       -11.8430 
 155   2.0000      -0.433517       -11.7966 
 156   2.0000      -0.421224       -11.4621 
 157   2.0000      -0.414773       -11.2866 
 158   2.0000      -0.410790       -11.1782 
 159   2.0000      -0.400373       -10.8947 
 160   2.0000      -0.382533       -10.4093 
 161   2.0000      -0.370597       -10.0844 
 162   2.0000      -0.355123        -9.6634 
 163   2.0000      -0.354253        -9.6397 
 164   2.0000      -0.347129        -9.4458 
 165   2.0000      -0.340016        -9.2523 
 166   2.0000      -0.338818        -9.2197 
 167   2.0000      -0.322921        -8.7871 
 168   2.0000      -0.314366        -8.5543 
 169   2.0000      -0.302052        -8.2193 
 170   2.0000      -0.298427        -8.1206 
 171   2.0000      -0.283497        -7.7143 
 172   2.0000      -0.278043        -7.5659 
 173   2.0000      -0.264751        -7.2042 
 174   2.0000      -0.231916        -6.3108 
 175   2.0000      -0.183800        -5.0014 
 176   2.0000      -0.173799        -4.7293 
 177   2.0000      -0.062257        -1.6941 
 178   2.0000      -0.051121        -1.3911 
 179   0.0000       0.034765         0.9460 
 180   0.0000       0.057926         1.5762 
 181   0.0000       0.083358         2.2683 
 182   0.0000       0.097958         2.6656 
 183   0.0000       0.102386         2.7861 
 184   0.0000       0.130869         3.5611 
 185   0.0000       0.139437         3.7943 
 186   0.0000       0.147676         4.0185 
 187   0.0000       0.163332         4.4445 
 188   0.0000       0.165903         4.5145 
 189   0.0000       0.170532         4.6404 
 190   0.0000       0.172129         4.6839 
 191   0.0000       0.173532         4.7220 
 192   0.0000       0.174036         4.7358 
 193   0.0000       0.191137         5.2011 
 194   0.0000       0.204701         5.5702 
 195   0.0000       0.207192         5.6380 
 196   0.0000       0.210602         5.7308 
 197   0.0000       0.211598         5.7579 
 198   0.0000       0.216612         5.8943 
 199   0.0000       0.224373         6.1055 
 200   0.0000       0.232048         6.3143 
 201   0.0000       0.235140         6.3985 
 202   0.0000       0.236157         6.4262 
 203   0.0000       0.240268         6.5380 
 204   0.0000       0.244594         6.6558 
 205   0.0000       0.246609         6.7106 
 206   0.0000       0.254226         6.9179 
 207   0.0000       0.254600         6.9280 
 208   0.0000       0.256011         6.9664 
 209   0.0000       0.258127         7.0240 
 210   0.0000       0.263471         7.1694 
 211   0.0000       0.264448         7.1960 
 212   0.0000       0.266849         7.2613 
 213   0.0000       0.273273         7.4361 
 214   0.0000       0.278356         7.5744 
 215   0.0000       0.280147         7.6232 
 216   0.0000       0.282309         7.6820 
 217   0.0000       0.285343         7.7646 
 218   0.0000       0.287771         7.8306 
 219   0.0000       0.288520         7.8510 
 220   0.0000       0.292669         7.9639 
 221   0.0000       0.293782         7.9942 
 222   0.0000       0.297474         8.0947 
 223   0.0000       0.298272         8.1164 
 224   0.0000       0.300380         8.1737 
 225   0.0000       0.302979         8.2445 
 226   0.0000       0.304917         8.2972 
 227   0.0000       0.305567         8.3149 
 228   0.0000       0.314753         8.5649 
 229   0.0000       0.317409         8.6371 
 230   0.0000       0.326067         8.8727 
 231   0.0000       0.326413         8.8821 
 232   0.0000       0.328869         8.9490 
 233   0.0000       0.333935         9.0868 
 234   0.0000       0.338109         9.2004 
 235   0.0000       0.354920         9.6579 
 236   0.0000       0.358923         9.7668 
 237   0.0000       0.363044         9.8789 
 238   0.0000       0.383170        10.4266 
 239   0.0000       0.393976        10.7206 
 240   0.0000       0.399727        10.8771 
 241   0.0000       0.401290        10.9197 
 242   0.0000       0.406859        11.0712 
 243   0.0000       0.419428        11.4132 
 244   0.0000       0.425767        11.5857 
 245   0.0000       0.428140        11.6503 
 246   0.0000       0.436234        11.8705 
 247   0.0000       0.438104        11.9214 
 248   0.0000       0.441887        12.0244 
 249   0.0000       0.445196        12.1144 
 250   0.0000       0.450319        12.2538 
 251   0.0000       0.456127        12.4118 
 252   0.0000       0.465551        12.6683 
 253   0.0000       0.466481        12.6936 
 254   0.0000       0.470388        12.7999 
 255   0.0000       0.473842        12.8939 
 256   0.0000       0.477066        12.9816 
 257   0.0000       0.483923        13.1682 
 258   0.0000       0.487900        13.2764 
 259   0.0000       0.492990        13.4149 
 260   0.0000       0.502268        13.6674 
 261   0.0000       0.503895        13.7117 
 262   0.0000       0.507382        13.8066 
 263   0.0000       0.508416        13.8347 
 264   0.0000       0.513646        13.9770 
 265   0.0000       0.516142        14.0449 
 266   0.0000       0.521279        14.1847 
 267   0.0000       0.524940        14.2843 
 268   0.0000       0.530753        14.4425 
 269   0.0000       0.541047        14.7226 
 270   0.0000       0.543150        14.7799 
 271   0.0000       0.546498        14.8710 
 272   0.0000       0.548583        14.9277 
 273   0.0000       0.550560        14.9815 
 274   0.0000       0.555435        15.1142 
 275   0.0000       0.559117        15.2144 
 276   0.0000       0.567304        15.4371 
 277   0.0000       0.570240        15.5170 
 278   0.0000       0.578490        15.7415 
 279   0.0000       0.584415        15.9027 
 280   0.0000       0.588421        16.0117 
 281   0.0000       0.593501        16.1500 
 282   0.0000       0.595203        16.1963 
 283   0.0000       0.598108        16.2753 
 284   0.0000       0.601419        16.3654 
 285   0.0000       0.603801        16.4303 
 286   0.0000       0.607517        16.5314 
 287   0.0000       0.608746        16.5648 
 288   0.0000       0.613099        16.6833 
 289   0.0000       0.619221        16.8499 
 290   0.0000       0.624799        17.0017 
 291   0.0000       0.629194        17.1212 
 292   0.0000       0.629530        17.1304 
 293   0.0000       0.634571        17.2676 
 294   0.0000       0.644485        17.5373 
 295   0.0000       0.647489        17.6191 
 296   0.0000       0.656149        17.8547 
 297   0.0000       0.658425        17.9166 
 298   0.0000       0.659155        17.9365 
 299   0.0000       0.664181        18.0733 
 300   0.0000       0.667630        18.1671 
 301   0.0000       0.670369        18.2417 
 302   0.0000       0.672148        18.2901 
 303   0.0000       0.674867        18.3641 
 304   0.0000       0.677670        18.4403 
 305   0.0000       0.679933        18.5019 
 306   0.0000       0.683533        18.5999 
 307   0.0000       0.688755        18.7420 
 308   0.0000       0.690412        18.7871 
 309   0.0000       0.696113        18.9422 
 310   0.0000       0.699967        19.0471 
 311   0.0000       0.701837        19.0980 
 312   0.0000       0.705645        19.2016 
 313   0.0000       0.707338        19.2476 
 314   0.0000       0.713460        19.4142 
 315   0.0000       0.714292        19.4369 
 316   0.0000       0.715587        19.4721 
 317   0.0000       0.717940        19.5361 
 318   0.0000       0.719535        19.5796 
 319   0.0000       0.722842        19.6695 
 320   0.0000       0.724718        19.7206 
 321   0.0000       0.728914        19.8348 
 322   0.0000       0.730888        19.8885 
 323   0.0000       0.734825        19.9956 
 324   0.0000       0.740677        20.1549 
 325   0.0000       0.741819        20.1859 
 326   0.0000       0.745666        20.2906 
 327   0.0000       0.748199        20.3595 
 328   0.0000       0.749040        20.3824 
 329   0.0000       0.754167        20.5219 
 330   0.0000       0.757182        20.6040 
 331   0.0000       0.760112        20.6837 
 332   0.0000       0.760960        20.7068 
 333   0.0000       0.763056        20.7638 
 334   0.0000       0.765427        20.8283 
 335   0.0000       0.767089        20.8736 
 336   0.0000       0.775488        21.1021 
 337   0.0000       0.778390        21.1811 
 338   0.0000       0.781909        21.2768 
 339   0.0000       0.786947        21.4139 
 340   0.0000       0.789252        21.4766 
 341   0.0000       0.793065        21.5804 
 342   0.0000       0.794005        21.6060 
 343   0.0000       0.796543        21.6750 
 344   0.0000       0.798209        21.7204 
 345   0.0000       0.801575        21.8120 
 346   0.0000       0.803228        21.8569 
 347   0.0000       0.808721        22.0064 
 348   0.0000       0.810792        22.0628 
 349   0.0000       0.815848        22.2004 
 350   0.0000       0.816468        22.2172 
 351   0.0000       0.821443        22.3526 
 352   0.0000       0.823362        22.4048 
 353   0.0000       0.824782        22.4435 
 354   0.0000       0.827998        22.5310 
 355   0.0000       0.828562        22.5463 
 356   0.0000       0.831368        22.6227 
 357   0.0000       0.835544        22.7363 
 358   0.0000       0.839224        22.8364 
 359   0.0000       0.839969        22.8567 
 360   0.0000       0.843810        22.9612 
 361   0.0000       0.844964        22.9927 
 362   0.0000       0.848193        23.0805 
 363   0.0000       0.849996        23.1296 
 364   0.0000       0.851013        23.1572 
 365   0.0000       0.855929        23.2910 
 366   0.0000       0.858258        23.3544 
 367   0.0000       0.860606        23.4183 
 368   0.0000       0.863752        23.5039 
 369   0.0000       0.866693        23.5839 
 370   0.0000       0.867714        23.6117 
 371   0.0000       0.870504        23.6876 
 372   0.0000       0.870730        23.6938 
 373   0.0000       0.874044        23.7839 
 374   0.0000       0.875777        23.8311 
 375   0.0000       0.876371        23.8473 
 376   0.0000       0.877429        23.8760 
 377   0.0000       0.880084        23.9483 
 378   0.0000       0.888321        24.1724 
 379   0.0000       0.889661        24.2089 
 380   0.0000       0.890389        24.2287 
 381   0.0000       0.895706        24.3734 
 382   0.0000       0.899140        24.4668 
 383   0.0000       0.904024        24.5997 
 384   0.0000       0.904802        24.6209 
 385   0.0000       0.906609        24.6701 
 386   0.0000       0.908666        24.7261 
 387   0.0000       0.915359        24.9082 
 388   0.0000       0.915871        24.9221 
 389   0.0000       0.918083        24.9823 
 390   0.0000       0.919679        25.0257 
 391   0.0000       0.925569        25.1860 
 392   0.0000       0.925667        25.1887 
 393   0.0000       0.930179        25.3115 
 394   0.0000       0.932971        25.3874 
 395   0.0000       0.933601        25.4046 
 396   0.0000       0.935266        25.4499 
 397   0.0000       0.937516        25.5111 
 398   0.0000       0.940600        25.5950 
 399   0.0000       0.941603        25.6223 
 400   0.0000       0.947366        25.7791 
 401   0.0000       0.950933        25.8762 
 402   0.0000       0.951649        25.8957 
 403   0.0000       0.954995        25.9867 
 404   0.0000       0.958396        26.0793 
 405   0.0000       0.959407        26.1068 
 406   0.0000       0.963372        26.2147 
 407   0.0000       0.964860        26.2552 
 408   0.0000       0.965292        26.2669 
 409   0.0000       0.971469        26.4350 
 410   0.0000       0.978886        26.6368 
 411   0.0000       0.984213        26.7818 
 412   0.0000       0.986976        26.8570 
 413   0.0000       0.993381        27.0313 
 414   0.0000       0.995747        27.0957 
 415   0.0000       0.997754        27.1503 
 416   0.0000       1.003932        27.3184 
 417   0.0000       1.007447        27.4140 
 418   0.0000       1.009006        27.4565 
 419   0.0000       1.013278        27.5727 
 420   0.0000       1.020756        27.7762 
 421   0.0000       1.026383        27.9293 
 422   0.0000       1.034462        28.1491 
 423   0.0000       1.036941        28.2166 
 424   0.0000       1.040669        28.3180 
 425   0.0000       1.045845        28.4589 
 426   0.0000       1.055030        28.7088 
 427   0.0000       1.064386        28.9634 
 428   0.0000       1.069961        29.1151 
 429   0.0000       1.073006        29.1980 
 430   0.0000       1.074505        29.2388 
 431   0.0000       1.082730        29.4626 
 432   0.0000       1.085873        29.5481 
 433   0.0000       1.086829        29.5741 
 434   0.0000       1.093230        29.7483 
 435   0.0000       1.098554        29.8932 
 436   0.0000       1.106525        30.1101 
 437   0.0000       1.111362        30.2417 
 438   0.0000       1.113676        30.3047 
 439   0.0000       1.115038        30.3417 
 440   0.0000       1.117072        30.3971 
 441   0.0000       1.119041        30.4507 
 442   0.0000       1.124734        30.6056 
 443   0.0000       1.128649        30.7121 
 444   0.0000       1.133524        30.8447 
 445   0.0000       1.136270        30.9195 
 446   0.0000       1.140937        31.0465 
 447   0.0000       1.143126        31.1060 
 448   0.0000       1.146976        31.2108 
 449   0.0000       1.148459        31.2512 
 450   0.0000       1.155836        31.4519 
 451   0.0000       1.157225        31.4897 
 452   0.0000       1.157417        31.4949 
 453   0.0000       1.159661        31.5560 
 454   0.0000       1.164172        31.6787 
 455   0.0000       1.168815        31.8051 
 456   0.0000       1.171468        31.8773 
 457   0.0000       1.176983        32.0273 
 458   0.0000       1.183129        32.1946 
 459   0.0000       1.188951        32.3530 
 460   0.0000       1.190512        32.3955 
 461   0.0000       1.194293        32.4984 
 462   0.0000       1.196630        32.5620 
 463   0.0000       1.203104        32.7381 
 464   0.0000       1.204786        32.7839 
 465   0.0000       1.209983        32.9253 
 466   0.0000       1.211143        32.9569 
 467   0.0000       1.214373        33.0448 
 468   0.0000       1.221097        33.2277 
 469   0.0000       1.225240        33.3405 
 470   0.0000       1.227888        33.4125 
 471   0.0000       1.231776        33.5183 
 472   0.0000       1.232832        33.5471 
 473   0.0000       1.238196        33.6930 
 474   0.0000       1.240575        33.7578 
 475   0.0000       1.242449        33.8088 
 476   0.0000       1.245276        33.8857 
 477   0.0000       1.248428        33.9714 
 478   0.0000       1.256423        34.1890 
 479   0.0000       1.256924        34.2026 
 480   0.0000       1.259980        34.2858 
 481   0.0000       1.263455        34.3803 
 482   0.0000       1.264389        34.4058 
 483   0.0000       1.269154        34.5354 
 484   0.0000       1.277093        34.7515 
 485   0.0000       1.279925        34.8285 
 486   0.0000       1.282576        34.9007 
 487   0.0000       1.285729        34.9865 
 488   0.0000       1.288056        35.0498 
 489   0.0000       1.292801        35.1789 
 490   0.0000       1.297607        35.3097 
 491   0.0000       1.299206        35.3532 
 492   0.0000       1.301315        35.4106 
 493   0.0000       1.305771        35.5318 
 494   0.0000       1.313109        35.7315 
 495   0.0000       1.314254        35.7627 
 496   0.0000       1.316858        35.8335 
 497   0.0000       1.320515        35.9330 
 498   0.0000       1.328342        36.1460 
 499   0.0000       1.330474        36.2040 
 500   0.0000       1.332831        36.2682 
 501   0.0000       1.339022        36.4366 
[...]
      pz      :     0.021772  p :     0.079281
      px      :     0.042868
      py      :     0.014641
 77 H s       :     0.895348  s :     0.895348
      pz      :     0.047140  p :     0.078359
      px      :     0.015003
      py      :     0.016215
 78 H s       :     0.895757  s :     0.895757
      pz      :     0.025454  p :     0.078270
      px      :     0.020701
      py      :     0.032114
 79 H s       :     0.907196  s :     0.907196
      pz      :     0.022573  p :     0.087246
      px      :     0.021895
      py      :     0.042778
 80 H s       :     0.879453  s :     0.879453
      pz      :     0.038179  p :     0.083220
      px      :     0.029501
      py      :     0.015540
 81 H s       :     0.888573  s :     0.888573
      pz      :     0.037568  p :     0.083325
      px      :     0.016073
      py      :     0.029684
 82 H s       :     0.914341  s :     0.914341
      pz      :     0.022489  p :     0.087133
      px      :     0.030927
      py      :     0.033717
 83 H s       :     0.872211  s :     0.872211
      pz      :     0.039177  p :     0.083667
      px      :     0.015244
      py      :     0.029246
 84 H s       :     0.888631  s :     0.888631
      pz      :     0.035810  p :     0.084389
      px      :     0.031792
      py      :     0.016786
 85 H s       :     0.895900  s :     0.895900
      pz      :     0.022509  p :     0.079608
      px      :     0.014149
      py      :     0.042951
 86 H s       :     0.890725  s :     0.890725
      pz      :     0.024701  p :     0.078891
      px      :     0.032995
      py      :     0.021195
 87 H s       :     0.891202  s :     0.891202
      pz      :     0.047818  p :     0.078596
      px      :     0.015655
      py      :     0.015122
 88 H s       :     0.918292  s :     0.918292
      pz      :     0.022560  p :     0.086847
      px      :     0.041973
      py      :     0.022313
 89 H s       :     0.875021  s :     0.875021
      pz      :     0.037815  p :     0.084031
      px      :     0.030476
      py      :     0.015741


                      *****************************
                      * MAYER POPULATION ANALYSIS *
                      *****************************

  NA   - Mulliken gross atomic population
  ZA   - Total nuclear charge
  QA   - Mulliken gross atomic charge
  VA   - Mayer's total valence
  BVA  - Mayer's bonded valence
  FA   - Mayer's free valence

  ATOM       NA         ZA         QA         VA         BVA        FA
  0 C      5.7691     6.0000     0.2309     3.8052     3.8052    -0.0000
  1 N      7.4163     7.0000    -0.4163     3.4648     3.4648     0.0000
  2 C      6.0672     6.0000    -0.0672     3.9193     3.9193     0.0000
  3 N      7.3434     7.0000    -0.3434     3.4234     3.4234    -0.0000
  4 C      6.0753     6.0000    -0.0753     3.9616     3.9616    -0.0000
  5 N      7.5653     7.0000    -0.5653     3.0689     3.0689    -0.0000
  6 C      6.0291     6.0000    -0.0291     3.9654     3.9654    -0.0000
  7 N      7.3370     7.0000    -0.3370     3.4451     3.4451    -0.0000
  8 C      5.7698     6.0000     0.2302     3.8043     3.8043    -0.0000
  9 N      7.5658     7.0000    -0.5658     3.0916     3.0916     0.0000
 10 C      5.8951     6.0000     0.1049     3.8640     3.8640    -0.0000
 11 N      7.4394     7.0000    -0.4394     3.3748     3.3748    -0.0000
 12 C      6.0586     6.0000    -0.0586     3.9099     3.9099    -0.0000
 13 N      7.4502     7.0000    -0.4502     3.3225     3.3225    -0.0000
 14 C      5.7798     6.0000     0.2202     3.8100     3.8100     0.0000
 15 N      7.4415     7.0000    -0.4415     3.3645     3.3645     0.0000
 16 C      5.7451     6.0000     0.2549     3.8048     3.8048     0.0000
 17 C      6.0299     6.0000    -0.0299     3.9648     3.9648     0.0000
 18 C      6.1749     6.0000    -0.1749     3.6818     3.6818     0.0000
 19 C      5.7727     6.0000     0.2273     3.9015     3.9015     0.0000
 20 C      5.8100     6.0000     0.1900     3.8212     3.8212     0.0000
 21 C      6.0664     6.0000    -0.0664     3.8919     3.8919    -0.0000
 22 C      6.0901     6.0000    -0.0901     3.9851     3.9851     0.0000
 23 C      6.0661     6.0000    -0.0661     3.9882     3.9882     0.0000
 24 C      5.7830     6.0000     0.2170     3.8297     3.8297     0.0000
 25 C      5.8853     6.0000     0.1147     3.8931     3.8931     0.0000
 26 C      6.0672     6.0000    -0.0672     3.9078     3.9078     0.0000
 27 C      5.7544     6.0000     0.2456     3.9018     3.9018    -0.0000
 28 C      6.0405     6.0000    -0.0405     3.9904     3.9904     0.0000
 29 C      6.1959     6.0000    -0.1959     3.7283     3.7283    -0.0000
 30 C      5.7781     6.0000     0.2219     3.7798     3.7798    -0.0000
 31 C      5.8103     6.0000     0.1897     3.8334     3.8334     0.0000
 32 C      6.0646     6.0000    -0.0646     3.9134     3.9134     0.0000
 33 C      6.1012     6.0000    -0.1012     3.9848     3.9848    -0.0000
 34 C      6.0502     6.0000    -0.0502     3.9991     3.9991     0.0000
 35 C      5.8200     6.0000     0.1800     3.8296     3.8296    -0.0000
 36 C      5.8795     6.0000     0.1205     3.9092     3.9092     0.0000
 37 C      6.0702     6.0000    -0.0702     3.9141     3.9141    -0.0000
 38 C      5.7558     6.0000     0.2442     3.7951     3.7951    -0.0000
 39 C      6.0653     6.0000    -0.0653     3.9985     3.9985     0.0000
 40 C      6.2030     6.0000    -0.2030     3.7520     3.7520    -0.0000
 41 C      5.7839     6.0000     0.2161     3.8743     3.8743    -0.0000
 42 C      5.7884     6.0000     0.2116     3.8321     3.8321    -0.0000
 43 C      6.0771     6.0000    -0.0771     3.9051     3.9051     0.0000
 44 C      6.0915     6.0000    -0.0915     3.9836     3.9836     0.0000
 45 C      6.0394     6.0000    -0.0394     3.9956     3.9956    -0.0000
 46 C      5.8140     6.0000     0.1860     3.8205     3.8205    -0.0000
 47 C      5.8834     6.0000     0.1166     3.8967     3.8967     0.0000
 48 C      6.0821     6.0000    -0.0821     3.8976     3.8976     0.0000
 49 C      5.7910     6.0000     0.2090     3.8648     3.8648     0.0000
 50 C      6.0661     6.0000    -0.0661     3.9901     3.9901    -0.0000
 51 C      6.1893     6.0000    -0.1893     3.7411     3.7411     0.0000
 52 H      0.9206     1.0000     0.0794     0.9825     0.9825    -0.0000
 53 H      1.0079     1.0000    -0.0079     1.0021     1.0021     0.0000
 54 H      0.9358     1.0000     0.0642     1.0056     1.0056    -0.0000
 55 H      0.9220     1.0000     0.0780     0.9831     0.9831    -0.0000
 56 H      0.9180     1.0000     0.0820     0.9728     0.9728    -0.0000
 57 H      0.9261     1.0000     0.0739     0.9844     0.9844    -0.0000
 58 H      0.9271     1.0000     0.0729     0.9870     0.9870    -0.0000
 59 H      1.0282     1.0000    -0.0282     0.9964     0.9964    -0.0000
 60 H      0.9348     1.0000     0.0652     1.0047     1.0047     0.0000
 61 H      0.8233     1.0000     0.1767     1.0437     1.0437     0.0000
 62 H      0.8317     1.0000     0.1683     1.0433     1.0433     0.0000
 63 H      0.9468     1.0000     0.0532     0.9862     0.9862     0.0000
 64 H      1.0336     1.0000    -0.0336     0.9929     0.9929    -0.0000
 65 H      0.9589     1.0000     0.0411     1.0079     1.0079     0.0000
 66 H      0.9448     1.0000     0.0552     0.9847     0.9847     0.0000
 67 H      0.9413     1.0000     0.0587     0.9716     0.9716     0.0000
 68 H      0.9438     1.0000     0.0562     0.9864     0.9864    -0.0000
 69 H      0.9410     1.0000     0.0590     0.9830     0.9830     0.0000
 70 H      1.0146     1.0000    -0.0146     0.9978     0.9978     0.0000
 71 H      0.9530     1.0000     0.0470     1.0075     1.0075    -0.0000
 72 H      0.9612     1.0000     0.0388     0.9860     0.9860     0.0000
 73 H      1.0190     1.0000    -0.0190     0.9964     0.9964     0.0000
 74 H      0.9694     1.0000     0.0306     1.0092     1.0092     0.0000
 75 H      0.9625     1.0000     0.0375     0.9867     0.9867    -0.0000
 76 H      0.9527     1.0000     0.0473     0.9703     0.9703    -0.0000
 77 H      0.9531     1.0000     0.0469     0.9843     0.9843    -0.0000
 78 H      0.9539     1.0000     0.0461     0.9836     0.9836    -0.0000
 79 H      1.0117     1.0000    -0.0117     1.0017     1.0017     0.0000
 80 H      0.9696     1.0000     0.0304     1.0063     1.0063     0.0000
 81 H      0.9493     1.0000     0.0507     0.9852     0.9852    -0.0000
 82 H      1.0232     1.0000    -0.0232     0.9951     0.9951     0.0000
 83 H      0.9572     1.0000     0.0428     1.0107     1.0107    -0.0000
 84 H      0.9503     1.0000     0.0497     0.9863     0.9863     0.0000
 85 H      0.9453     1.0000     0.0547     0.9713     0.9713    -0.0000
 86 H      0.9436     1.0000     0.0564     0.9841     0.9841     0.0000
 87 H      0.9453     1.0000     0.0547     0.9852     0.9852     0.0000
 88 H      1.0302     1.0000    -0.0302     0.9913     0.9913     0.0000
 89 H      0.9603     1.0000     0.0397     1.0059     1.0059    -0.0000

  Mayer bond orders larger than 0.100000
B(  0-C ,  1-N ) :   1.1914 B(  0-C , 17-C ) :   1.5343 B(  0-C , 52-H ) :   0.9671 
B(  1-N ,  8-C ) :   1.1896 B(  1-N , 10-C ) :   0.9310 B(  2-C , 12-C ) :   1.5739 
B(  2-C , 16-C ) :   1.2792 B(  2-C , 53-H ) :   0.9791 B(  3-N , 14-C ) :   1.1776 
B(  3-N , 16-C ) :   1.2020 B(  3-N , 61-H ) :   0.8957 B(  4-C ,  6-C ) :   1.3459 
B(  4-C , 17-C ) :   1.3475 B(  4-C , 18-C ) :   1.0772 B(  5-N , 19-C ) :   1.3699 
B(  5-N , 27-C ) :   1.4446 B(  6-C ,  8-C ) :   1.5344 B(  6-C , 54-H ) :   0.9708 
B(  7-N , 30-C ) :   1.1846 B(  7-N , 38-C ) :   1.2143 B(  7-N , 62-H ) :   0.9010 
B(  8-C , 55-H ) :   0.9681 B(  9-N , 41-C ) :   1.4312 B(  9-N , 49-C ) :   1.3964 
B( 10-C , 56-H ) :   0.9765 B( 10-C , 57-H ) :   0.9810 B( 10-C , 58-H ) :   0.9817 
B( 11-N , 20-C ) :   1.1009 B( 11-N , 24-C ) :   1.1345 B( 11-N , 25-C ) :   0.9613 
B( 12-C , 14-C ) :   1.2801 B( 12-C , 59-H ) :   0.9772 B( 13-N , 31-C ) :   1.0868 
B( 13-N , 35-C ) :   1.0764 B( 13-N , 36-C ) :   0.9799 B( 14-C , 18-C ) :   1.2563 
B( 15-N , 42-C ) :   1.1255 B( 15-N , 46-C ) :   1.0930 B( 15-N , 47-C ) :   0.9656 
B( 16-C , 51-C ) :   1.2417 B( 17-C , 60-H ) :   0.9710 B( 18-C , 19-C ) :   1.3001 
B( 19-C , 21-C ) :   1.1696 B( 20-C , 28-C ) :   1.6273 B( 20-C , 63-H ) :   0.9708 
B( 21-C , 26-C ) :   1.6763 B( 21-C , 64-H ) :   0.9724 B( 22-C , 23-C ) :   1.2592 
B( 22-C , 28-C ) :   1.2803 B( 22-C , 29-C ) :   1.2528 B( 23-C , 24-C ) :   1.6320 
B( 23-C , 65-H ) :   0.9721 B( 24-C , 66-H ) :   0.9690 B( 25-C , 67-H ) :   0.9763 
B( 25-C , 68-H ) :   0.9833 B( 25-C , 69-H ) :   0.9819 B( 26-C , 27-C ) :   1.1771 
B( 26-C , 70-H ) :   0.9754 B( 27-C , 29-C ) :   1.2389 B( 28-C , 71-H ) :   0.9709 
B( 29-C , 30-C ) :   1.1812 B( 30-C , 32-C ) :   1.3452 B( 31-C , 39-C ) :   1.6785 
B( 31-C , 72-H ) :   0.9708 B( 32-C , 37-C ) :   1.5143 B( 32-C , 73-H ) :   0.9772 
B( 33-C , 34-C ) :   1.2375 B( 33-C , 39-C ) :   1.2296 B( 33-C , 40-C ) :   1.3446 
B( 34-C , 35-C ) :   1.6768 B( 34-C , 74-H ) :   0.9709 B( 35-C , 75-H ) :   0.9708 
B( 36-C , 76-H ) :   0.9756 B( 36-C , 77-H ) :   0.9825 B( 36-C , 78-H ) :   0.9837 
B( 37-C , 38-C ) :   1.3401 B( 37-C , 79-H ) :   0.9791 B( 38-C , 40-C ) :   1.1827 
B( 39-C , 80-H ) :   0.9721 B( 40-C , 41-C ) :   1.1736 B( 41-C , 43-C ) :   1.2525 
B( 42-C , 50-C ) :   1.6405 B( 42-C , 81-H ) :   0.9696 B( 43-C , 48-C ) :   1.5986 
B( 43-C , 82-H ) :   0.9754 B( 44-C , 45-C ) :   1.2800 B( 44-C , 50-C ) :   1.2518 
B( 44-C , 51-C ) :   1.2487 B( 45-C , 46-C ) :   1.6324 B( 45-C , 83-H ) :   0.9703 
B( 46-C , 84-H ) :   0.9708 B( 47-C , 85-H ) :   0.9760 B( 47-C , 86-H ) :   0.9826 
B( 47-C , 87-H ) :   0.9829 B( 48-C , 49-C ) :   1.2473 B( 48-C , 88-H ) :   0.9727 
B( 49-C , 51-C ) :   1.1918 B( 50-C , 89-H ) :   0.9721 

-------
TIMINGS
-------

Total SCF time: 0 days 0 hours 33 min 26 sec 

Total time                  ....    2006.688 sec
Sum of individual times     ....    2001.641 sec  ( 99.7%)

Fock matrix formation       ....    1971.852 sec  ( 98.3%)
Diagonalization             ....       8.066 sec  (  0.4%)
Density matrix formation    ....       0.604 sec  (  0.0%)
Population analysis         ....       0.587 sec  (  0.0%)
Initial guess               ....       2.511 sec  (  0.1%)
Orbital Transformation      ....       0.000 sec  (  0.0%)
Orbital Orthonormalization  ....       0.000 sec  (  0.0%)
DIIS solution               ....       3.612 sec  (  0.2%)
SOSCF solution              ....      13.119 sec  (  0.7%)

Maximum memory used throughout the entire SCF-calculation: 302.6 MB


           ************************************************************
           *        Program running with 16 parallel MPI-processes    *
           *              working on a common directory               *
           ************************************************************

------------------------------------------------------------------------------
                                ORCA  MP2 
------------------------------------------------------------------------------

Freezing NCore=104 chemical core electrons

----------
MP2 ENERGY (disk based algorithm)
----------

Dimension of the basis                    ...  918
Memory devoted to MP2                     ... 2000 MB   
Data format for buffers                   ... DOUBLE
Compression type for matrix containers    ... UNCOMPRESSED

-------------------------------
PARTIAL EXCHANGE TRANSFORMATION
-------------------------------

Transformation type                        ... one-operator
Generation of integrals (i,mue|j,nue)      ... ON
Generation of integrals (mue,kappa|nue,tau)... OFF
Generation of integrals (i,mue|a,nue)      ... OFF
Dimension of the basis                     ...  918
Number of internal MOs                     ...  127 (  52- 178)
Pair cutoff                                ... 2.500e-12 Eh
Number of AO pairs in the trafo            ... 421821
Total Number of distinct AO pairs          ... 421821
Memory devoted for trafo                   ... 2000.0 MB 
Max. Number of MO pairs treated together   ...  311      
Number Format for Storage                  ... Double (8 Byte)
Integral package used                      ... LIBINT

Starting integral evaluation:
    ... done with AO integral generation
Closing buffer AOK     (37.81 GB; CompressionRatio= 1.34)
Collecting buffer AOK 
Number of MO pairs included in the trafo   ... 8128
------------------------
SORTING OF (i,mue|j,nue)
------------------------

IBATCH = 1 of  2
IBATCH = 2 of  2
Closing buffer KAO     (51.03 GB; CompressionRatio= 1.00)
Collecting buffer KAO 
N(AO-Batches) Done                         ...  85694002 
N(AO-Batches) Skipped                      ...  81802110 
N(IJ)-pairs Skipped                        ...         0 
TOTAL TIME for half transformation         ...  2269.109 sec
AO-integral generation                     ...   210.253 sec
Half transformation                        ...   423.747 sec
K-integral sorting                         ...  1413.420 sec
Process 10:   Internal MO 132
Process  4:   Internal MO  84
Process 13:   Internal MO 156

Finished integral transformation - now doing MP2 part

OPERATOR COMBINATION   0   0: ij=( 52..178, 52..178)
Process  1:   Internal MO  60
Process  7:   Internal MO 108
Process  2:   Internal MO  69
Process  5:   Internal MO  93
Process  0:   Internal MO  54
Process  3:   Internal MO  78
Process  2:   Internal MO  72
Process  0:   Internal MO  57
Process  8:   Internal MO 117
Process 11:   Internal MO 141
Process  6:   Internal MO 102
Process 14:   Internal MO 165
Process  1:   Internal MO  63
Process  4:   Internal MO  87
Process  9:   Internal MO 126
Process  2:   Internal MO  75
Process  3:   Internal MO  81
Process  1:   Internal MO  66
Process  7:   Internal MO 111
Process  5:   Internal MO  96
Process 12:   Internal MO 150
Process  4:   Internal MO  90
Process 15:   Internal MO 174
Process 10:   Internal MO 135
Process  6:   Internal MO 105
Process  8:   Internal MO 120
Process  5:   Internal MO  99
Process  7:   Internal MO 114
Process  9:   Internal MO 129
Process 13:   Internal MO 159
Process 11:   Internal MO 144
Process 12:   Internal MO 153
Process 14:   Internal MO 168
Process 10:   Internal MO 138
Process  8:   Internal MO 123
Process 15:   Internal MO 177
Process 13:   Internal MO 162
Process 11:   Internal MO 147
Process 14:   Internal MO 171
-----------------------------------------------
 MP2 CORRELATION ENERGY   :     -7.268460361 Eh
-----------------------------------------------


-------
TIMINGS
-------
Total time                : 2552.684 sec
Integral trafo            : 2271.836 sec ( 89.0%)
K(i,j)                    :   25.148 sec (  1.0%)
T(i,j)                    :    0.963 sec (  0.0%)

---------------------------------------
MP2 TOTAL ENERGY:    -2130.880529703 Eh
---------------------------------------

Maximum memory used throughout the entire MP2-calculation: 2275.2 MB

-------------------------   --------------------
FINAL SINGLE POINT ENERGY     -2130.880529702604
-------------------------   --------------------


                            ***************************************
                            *     ORCA property calculations      *
                            ***************************************


  WARNING: The energy has been calculated at the MP2 level but the densities
           used in the property calculations are still SCF densities
           MP2 response densities have not been calculated 
           use %mp2 Density relaxed end
           or  %mp2 Density unrelaxed end

                                    ---------------------
                                    Active property flags
                                    ---------------------
   (+) Dipole Moment


------------------------------------------------------------------------------
                       ORCA ELECTRIC PROPERTIES CALCULATION
------------------------------------------------------------------------------

Dipole Moment Calculation                       ... on
Quadrupole Moment Calculation                   ... off
Polarizability Calculation                      ... off
GBWName                                         ... /scratch/allen/tmpyp4_amber_gaff2/conf1/conf1/Conf280.orca.gbw
Electron density                                ... /scratch/allen/tmpyp4_amber_gaff2/conf1/conf1/Conf280.orca.scfp
The origin for moment calculation is the CENTER OF MASS  = (-0.000074, -0.004059 -0.001467)

-------------
DIPOLE MOMENT
-------------
                                X             Y             Z
Electronic contribution:     -4.08104       4.44795      -0.05995
Nuclear contribution   :      0.04923       0.22090       0.08304
                        -----------------------------------------
Total Dipole Moment    :     -4.03181       4.66885       0.02309
                        -----------------------------------------
Magnitude (a.u.)       :      6.16881
Magnitude (Debye)      :     15.67986



--------------------
Rotational spectrum 
--------------------
 
Rotational constants in cm-1:     0.001498     0.001472     0.000763 
Rotational constants in MHz :    44.919947    44.124489    22.866769 

 Dipole components along the rotational axes: 
x,y,z [a.u.] :    -5.494420    -2.804442     0.025235 
x,y,z [Debye]:   -13.965705    -7.128326     0.064142 

 

Timings for individual modules:

Sum of individual times         ...     4582.302 sec (=  76.372 min)
GTO integral calculation        ...        3.505 sec (=   0.058 min)   0.1 %
SCF iterations                  ...     2007.945 sec (=  33.466 min)  43.8 %
MP2 module                      ...     2570.852 sec (=  42.848 min)  56.1 %
                             ****ORCA TERMINATED NORMALLY****
TOTAL RUN TIME: 0 days 1 hours 16 minutes 25 seconds 848 msec
# of primitive gaussian functions

