
                                 *****************
                                 * O   R   C   A *
                                 *****************

                                            #,                                       
                                            ###                                      
                                            ####                                     
                                            #####                                    
                                            ######                                   
                                           ########,                                 
                                     ,,################,,,,,                         
                               ,,#################################,,                 
                          ,,##########################################,,             
                       ,#########################################, ''#####,          
                    ,#############################################,,   '####,        
                  ,##################################################,,,,####,       
                ,###########''''           ''''###############################       
              ,#####''   ,,,,##########,,,,          '''####'''          '####       
            ,##' ,,,,###########################,,,                        '##       
           ' ,,###''''                  '''############,,,                           
         ,,##''                                '''############,,,,        ,,,,,,###''
      ,#''                                            '''#######################'''  
     '                                                          ''''####''''         
             ,#######,   #######,   ,#######,      ##                                
            ,#'     '#,  ##    ##  ,#'     '#,    #''#        ######   ,####,        
            ##       ##  ##   ,#'  ##            #'  '#       #        #'  '#        
            ##       ##  #######   ##           ,######,      #####,   #    #        
            '#,     ,#'  ##    ##  '#,     ,#' ,#      #,         ##   #,  ,#        
             '#######'   ##     ##  '#######'  #'      '#     #####' # '####'        



                  #######################################################
                  #                        -***-                        #
                  #          Department of theory and spectroscopy      #
                  #    Directorship and core code : Frank Neese         #
                  #        Max Planck Institute fuer Kohlenforschung    #
                  #                Kaiser Wilhelm Platz 1               #
                  #                 D-45470 Muelheim/Ruhr               #
                  #                      Germany                        #
                  #                                                     #
                  #                  All rights reserved                #
                  #                        -***-                        #
                  #######################################################


                         Program Version 5.0.4 -  RELEASE  -


 With contributions from (in alphabetic order):
   Daniel Aravena         : Magnetic Suceptibility
   Michael Atanasov       : Ab Initio Ligand Field Theory (pilot matlab implementation)
   Alexander A. Auer      : GIAO ZORA, VPT2 properties, NMR spectrum
   Ute Becker             : Parallelization
   Giovanni Bistoni       : ED, misc. LED, open-shell LED, HFLD
   Martin Brehm           : Molecular dynamics
   Dmytro Bykov           : SCF Hessian
   Vijay G. Chilkuri      : MRCI spin determinant printing, contributions to CSF-ICE
   Dipayan Datta          : RHF DLPNO-CCSD density
   Achintya Kumar Dutta   : EOM-CC, STEOM-CC
   Dmitry Ganyushin       : Spin-Orbit,Spin-Spin,Magnetic field MRCI
   Miquel Garcia          : C-PCM and meta-GGA Hessian, CC/C-PCM, Gaussian charge scheme
   Yang Guo               : DLPNO-NEVPT2, F12-NEVPT2, CIM, IAO-localization
   Andreas Hansen         : Spin unrestricted coupled pair/coupled cluster methods
   Benjamin Helmich-Paris : MC-RPA, TRAH-SCF, COSX integrals
   Lee Huntington         : MR-EOM, pCC
   Robert Izsak           : Overlap fitted RIJCOSX, COSX-SCS-MP3, EOM
   Marcus Kettner         : VPT2
   Christian Kollmar      : KDIIS, OOCD, Brueckner-CCSD(T), CCSD density, CASPT2, CASPT2-K
   Simone Kossmann        : Meta GGA functionals, TD-DFT gradient, OOMP2, MP2 Hessian
   Martin Krupicka        : Initial AUTO-CI
   Lucas Lang             : DCDCAS
   Marvin Lechner         : AUTO-CI (C++ implementation), FIC-MRCC
   Dagmar Lenk            : GEPOL surface, SMD
   Dimitrios Liakos       : Extrapolation schemes; Compound Job, initial MDCI parallelization
   Dimitrios Manganas     : Further ROCIS development; embedding schemes
   Dimitrios Pantazis     : SARC Basis sets
   Anastasios Papadopoulos: AUTO-CI, single reference methods and gradients
   Taras Petrenko         : DFT Hessian,TD-DFT gradient, ASA, ECA, R-Raman, ABS, FL, XAS/XES, NRVS
   Peter Pinski           : DLPNO-MP2, DLPNO-MP2 Gradient
   Christoph Reimann      : Effective Core Potentials
   Marius Retegan         : Local ZFS, SOC
   Christoph Riplinger    : Optimizer, TS searches, QM/MM, DLPNO-CCSD(T), (RO)-DLPNO pert. Triples
   Tobias Risthaus        : Range-separated hybrids, TD-DFT gradient, RPA, STAB
   Michael Roemelt        : Original ROCIS implementation
   Masaaki Saitow         : Open-shell DLPNO-CCSD energy and density
   Barbara Sandhoefer     : DKH picture change effects
   Avijit Sen             : IP-ROCIS
   Kantharuban Sivalingam : CASSCF convergence, NEVPT2, FIC-MRCI
   Bernardo de Souza      : ESD, SOC TD-DFT
   Georgi Stoychev        : AutoAux, RI-MP2 NMR, DLPNO-MP2 response
   Willem Van den Heuvel  : Paramagnetic NMR
   Boris Wezisla          : Elementary symmetry handling
   Frank Wennmohs         : Technical directorship


 We gratefully acknowledge several colleagues who have allowed us to
 interface, adapt or use parts of their codes:
   Stefan Grimme, W. Hujo, H. Kruse, P. Pracht,  : VdW corrections, initial TS optimization,
                  C. Bannwarth, S. Ehlert          DFT functionals, gCP, sTDA/sTD-DF
   Ed Valeev, F. Pavosevic, A. Kumar             : LibInt (2-el integral package), F12 methods
   Garnet Chan, S. Sharma, J. Yang, R. Olivares  : DMRG
   Ulf Ekstrom                                   : XCFun DFT Library
   Mihaly Kallay                                 : mrcc  (arbitrary order and MRCC methods)
   Jiri Pittner, Ondrej Demel                    : Mk-CCSD
   Frank Weinhold                                : gennbo (NPA and NBO analysis)
   Christopher J. Cramer and Donald G. Truhlar   : smd solvation model
   Lars Goerigk                                  : TD-DFT with DH, B97 family of functionals
   V. Asgeirsson, H. Jonsson                     : NEB implementation
   FAccTs GmbH                                   : IRC, NEB, NEB-TS, DLPNO-Multilevel, CI-OPT
                                                   MM, QMMM, 2- and 3-layer-ONIOM, Crystal-QMMM,
                                                   LR-CPCM, SF, NACMEs, symmetry and pop. for TD-DFT,
                                                   nearIR, NL-DFT gradient (VV10), updates on ESD,
                                                   ML-optimized integration grids
   S Lehtola, MJT Oliveira, MAL Marques          : LibXC Library
   Liviu Ungur et al                             : ANISO software


 Your calculation uses the libint2 library for the computation of 2-el integrals
 For citations please refer to: http://libint.valeyev.net

 Your ORCA version has been built with support for libXC version: 5.1.0
 For citations please refer to: https://tddft.org/programs/libxc/

 This ORCA versions uses:
   CBLAS   interface :  Fast vector & matrix operations
   LAPACKE interface :  Fast linear algebra routines
   SCALAPACK package :  Parallel linear algebra routines
   Shared memory     :  Shared parallel matrices
   BLAS/LAPACK       :  OpenBLAS 0.3.15  USE64BITINT DYNAMIC_ARCH NO_AFFINITY Sandybridge SINGLE_THREADED
        Core in use  :  Sandybridge
   Copyright (c) 2011-2014, The OpenBLAS Project


================================================================================

----- Orbital basis set information -----
Your calculation utilizes the basis: cc-pVDZ 
       H, B-Ne : Obtained from the ccRepo (grant-hill.group.shef.ac.uk/ccrepo) Feb. 2017
                 T. H. Dunning, Jr., J. Chem. Phys. 90, 1007 (1989)
            He : Obtained from the ccRepo (grant-hill.group.shef.ac.uk/ccrepo) Feb. 2017
                 D. E. Woon, T. H. Dunning, Jr., J. Chem. Phys. 100, 2975 (1994)
  Li-Be, Na-Mg : Obtained from the ccRepo (grant-hill.group.shef.ac.uk/ccrepo) Feb. 2017
                 B. P. Prascher, D. E. Woon, K. A. Peterson, T. H. Dunning, Jr., A. K. Wilson, Theor. Chem. Acc. 128, 69 (2011)
         Al-Ar : Obtained from the ccRepo (grant-hill.group.shef.ac.uk/ccrepo) Feb. 2017
                 D. E. Woon, T. H. Dunning, Jr., J. Chem. Phys. 98, 1358 (1993)
            Ca : Obtained from the Peterson Research Group Website (tyr0.chem.wsu.edu/~kipeters) Feb. 2017
                 J. Koput, K. A. Peterson, J. Phys. Chem. 106, 9595 (2002)
         Sc-Zn : Obtained from the ccRepo (grant-hill.group.shef.ac.uk/ccrepo) Feb. 2017
                 N. B. Balabanov, K. A. Peterson, J. Chem. Phys. 123, 064107 (2005)
                 N. B. Balabanov, K. A. Peterson, J. Chem. Phys. 125, 074110 (2006)
         Ga-Kr : Obtained from the ccRepo (grant-hill.group.shef.ac.uk/ccrepo) Feb. 2017
                 A. K. Wilson, D. E. Woon, K. A. Peterson, T. H. Dunning, Jr., J. Chem. Phys. 110, 7667 (1999)

================================================================================
                                        WARNINGS
                       Please study these warnings very carefully!
================================================================================


WARNING: No MP2 level density has been requested!
         To caclulate MP2 level properties use
         %mp2 Density relaxed end
         or
         %mp2 Density unrelaxed end

WARNING: Post HF methods need fully converged wavefunctions
  ===> : Setting SCFConvForced true
         You can overwrite this default with %scf ConvForced false 


INFO   : the flag for use of the SHARK integral package has been found!

================================================================================
                                       INPUT FILE
================================================================================
NAME = /scratch/allen/tmpyp4_amber_gaff2/2.Mdgx/conf11/conf11/Conf204.orca
|  1> ! PAL2
|  2> ! mp2 cc-pvdz TightSCF  NoKeepInts
|  3> 
|  4> %scf
|  5>   MaxCore 2000
|  6> end
|  7> %mp2
|  8>   MaxCore 2000
|  9> end
| 10> * xyz 0 1
| 11>    C       -4.88900         5.21800         0.49700
| 12>    C        1.47400         4.04100         0.05700
| 13>    C       -2.80200         4.09300         0.04900
| 14>    C       -2.28900         5.32600        -0.38200
| 15>    C       -3.08300         6.45500        -0.35700
| 16>    C       -5.17800         7.62600         0.12500
| 17>    C        0.13200         4.30700         0.06100
| 18>    C       -0.56900         3.05600         0.04700
| 19>    C        1.64900         2.61800         0.02300
| 20>    C       -4.13200         4.06300         0.49600
| 21>    N       -4.36400         6.39100         0.07500
| 22>    N        0.38800         2.06700         0.02500
| 23>    N       -2.01000         0.39500        -0.07500
| 24>    N       -0.38800        -2.07400        -0.02700
| 25>    N        2.01000        -0.40100         0.06500
| 26>    C       -1.96000         2.86100         0.02400
| 27>    C       -2.62300         1.61500        -0.01800
| 28>    C       -5.57300        -4.32900         1.06600
| 29>    C       -4.07300         1.47100         0.05600
| 30>    C       -4.10600        -2.75600        -0.02600
| 31>    C       -4.99500        -2.75700        -1.11100
| 32>    C       -6.13200        -3.54200        -1.07600
| 33>    C       -7.65100        -5.11300         0.04000
| 34>    C       -4.32400         0.14100         0.03700
| 35>    C       -3.02500        -0.52000        -0.04800
| 36>    C       -4.42200        -3.56600         1.07500
| 37>    N       -6.40700        -4.31300         0.00100
| 38>    C       -2.86700        -1.92200        -0.04000
| 39>    C       -1.65000        -2.62400        -0.02700
| 40>    C        3.56800        -6.14200        -1.04000
| 41>    C       -1.47600        -4.04900        -0.03400
| 42>    C        2.80300        -4.09900        -0.00800
| 43>    C        3.65700        -4.38400         1.06900
| 44>    C        4.42700        -5.53000         1.05900
| 45>    C        5.24500        -7.58800         0.01400
| 46>    C       -0.13400        -4.31500        -0.02200
| 47>    C        0.56800        -3.06400        -0.02700
| 48>    C        2.77500        -5.01200        -1.07400
| 49>    N        4.37600        -6.39100         0.01700
| 50>    C        1.95900        -2.86900        -0.00900
| 51>    C        2.62100        -1.62200         0.00900
| 52>    C        5.54300         4.33900        -1.13000
| 53>    C        4.07000        -1.47900        -0.09400
| 54>    C        4.10400         2.75100        -0.02100
| 55>    C        5.02700         2.72900         1.03600
| 56>    C        6.16600         3.50900         0.97800
| 57>    C        7.61900         5.15300        -0.11500
| 58>    C        4.32100        -0.14800        -0.09200
| 59>    C        3.02500         0.51400         0.01500
| 60>    C        4.38700         3.58200        -1.11500
| 61>    C        2.86600         1.91600         0.01300
| 62>    N        6.41300         4.29600        -0.09500
| 63>    H       -5.92200         5.24000         0.82200
| 64>    H        2.27400         4.76600         0.08100
| 65>    H       -1.26700         5.41500        -0.72900
| 66>    H       -2.72900         7.42800        -0.67000
| 67>    H       -4.99300         8.13500         1.07400
| 68>    H       -4.89200         8.26900        -0.70700
| 69>    H       -6.23000         7.35600         0.04400
| 70>    H       -0.33200         5.28200         0.06900
| 71>    H       -4.59000         3.13900         0.82800
| 72>    H        0.18200         1.07200         0.00500
| 73>    H       -0.18300        -1.08000        -0.02100
| 74>    H       -5.86400        -4.96200         1.89500
| 75>    H       -4.79400         2.27200         0.13900
| 76>    H       -4.80000        -2.16000        -1.99400
| 77>    H       -6.84100        -3.58200        -1.89300
| 78>    H       -8.42800        -4.53600         0.54600
| 79>    H       -7.95600        -5.33700        -0.98100
| 80>    H       -7.45600        -6.03700         0.58400
| 81>    H       -5.28700        -0.34400         0.10000
| 82>    H       -3.78000        -3.60100         1.94700
| 83>    H        3.58700        -6.86800        -1.84300
| 84>    H       -2.27600        -4.77400        -0.05000
| 85>    H        3.71400        -3.72400         1.92600
| 86>    H        5.09200        -5.79500         1.87100
| 87>    H        6.20500        -7.32900        -0.43900
| 88>    H        5.39300        -7.91700         1.04200
| 89>    H        4.75900        -8.37300        -0.56400
| 90>    H        0.32900        -5.29000        -0.00800
| 91>    H        2.14600        -4.84200        -1.94000
| 92>    H        5.80800         4.98600        -1.95600
| 93>    H        4.78800        -2.28100        -0.18500
| 94>    H        4.86000         2.11400         1.91200
| 95>    H        6.90100         3.53100         1.77200
| 96>    H        7.38300         6.10900         0.35600
| 97>    H        8.41400         4.65200         0.43500
| 98>    H        7.92100         5.31000        -1.15000
| 99>    H        5.28300         0.33600        -0.17900
|100>    H        3.72000         3.63200        -1.96700
|101> *
|102> 
|103>                          ****END OF INPUT****
================================================================================

                       ****************************
                       * Single Point Calculation *
                       ****************************

---------------------------------
CARTESIAN COORDINATES (ANGSTROEM)
---------------------------------
  C     -4.889000    5.218000    0.497000
  C      1.474000    4.041000    0.057000
  C     -2.802000    4.093000    0.049000
  C     -2.289000    5.326000   -0.382000
  C     -3.083000    6.455000   -0.357000
  C     -5.178000    7.626000    0.125000
  C      0.132000    4.307000    0.061000
  C     -0.569000    3.056000    0.047000
  C      1.649000    2.618000    0.023000
  C     -4.132000    4.063000    0.496000
  N     -4.364000    6.391000    0.075000
  N      0.388000    2.067000    0.025000
  N     -2.010000    0.395000   -0.075000
  N     -0.388000   -2.074000   -0.027000
  N      2.010000   -0.401000    0.065000
  C     -1.960000    2.861000    0.024000
  C     -2.623000    1.615000   -0.018000
  C     -5.573000   -4.329000    1.066000
  C     -4.073000    1.471000    0.056000
  C     -4.106000   -2.756000   -0.026000
  C     -4.995000   -2.757000   -1.111000
  C     -6.132000   -3.542000   -1.076000
  C     -7.651000   -5.113000    0.040000
  C     -4.324000    0.141000    0.037000
  C     -3.025000   -0.520000   -0.048000
  C     -4.422000   -3.566000    1.075000
  N     -6.407000   -4.313000    0.001000
  C     -2.867000   -1.922000   -0.040000
  C     -1.650000   -2.624000   -0.027000
  C      3.568000   -6.142000   -1.040000
  C     -1.476000   -4.049000   -0.034000
  C      2.803000   -4.099000   -0.008000
  C      3.657000   -4.384000    1.069000
  C      4.427000   -5.530000    1.059000
  C      5.245000   -7.588000    0.014000
  C     -0.134000   -4.315000   -0.022000
  C      0.568000   -3.064000   -0.027000
  C      2.775000   -5.012000   -1.074000
  N      4.376000   -6.391000    0.017000
  C      1.959000   -2.869000   -0.009000
  C      2.621000   -1.622000    0.009000
  C      5.543000    4.339000   -1.130000
  C      4.070000   -1.479000   -0.094000
  C      4.104000    2.751000   -0.021000
  C      5.027000    2.729000    1.036000
  C      6.166000    3.509000    0.978000
  C      7.619000    5.153000   -0.115000
  C      4.321000   -0.148000   -0.092000
  C      3.025000    0.514000    0.015000
  C      4.387000    3.582000   -1.115000
  C      2.866000    1.916000    0.013000
  N      6.413000    4.296000   -0.095000
  H     -5.922000    5.240000    0.822000
  H      2.274000    4.766000    0.081000
  H     -1.267000    5.415000   -0.729000
  H     -2.729000    7.428000   -0.670000
  H     -4.993000    8.135000    1.074000
  H     -4.892000    8.269000   -0.707000
  H     -6.230000    7.356000    0.044000
  H     -0.332000    5.282000    0.069000
  H     -4.590000    3.139000    0.828000
  H      0.182000    1.072000    0.005000
  H     -0.183000   -1.080000   -0.021000
  H     -5.864000   -4.962000    1.895000
  H     -4.794000    2.272000    0.139000
  H     -4.800000   -2.160000   -1.994000
  H     -6.841000   -3.582000   -1.893000
  H     -8.428000   -4.536000    0.546000
  H     -7.956000   -5.337000   -0.981000
  H     -7.456000   -6.037000    0.584000
  H     -5.287000   -0.344000    0.100000
  H     -3.780000   -3.601000    1.947000
  H      3.587000   -6.868000   -1.843000
  H     -2.276000   -4.774000   -0.050000
  H      3.714000   -3.724000    1.926000
  H      5.092000   -5.795000    1.871000
  H      6.205000   -7.329000   -0.439000
  H      5.393000   -7.917000    1.042000
  H      4.759000   -8.373000   -0.564000
  H      0.329000   -5.290000   -0.008000
  H      2.146000   -4.842000   -1.940000
  H      5.808000    4.986000   -1.956000
  H      4.788000   -2.281000   -0.185000
  H      4.860000    2.114000    1.912000
  H      6.901000    3.531000    1.772000
  H      7.383000    6.109000    0.356000
  H      8.414000    4.652000    0.435000
  H      7.921000    5.310000   -1.150000
  H      5.283000    0.336000   -0.179000
  H      3.720000    3.632000   -1.967000

----------------------------
CARTESIAN COORDINATES (A.U.)
----------------------------
  NO LB      ZA    FRAG     MASS         X           Y           Z
   0 C     6.0000    0    12.011   -9.238871    9.860591    0.939194
   1 C     6.0000    0    12.011    2.785456    7.636383    0.107714
   2 C     6.0000    0    12.011   -5.295013    7.734649    0.092597
   3 C     6.0000    0    12.011   -4.325583   10.064681   -0.721875
   4 C     6.0000    0    12.011   -5.826026   12.198182   -0.674632
   5 C     6.0000    0    12.011   -9.785002   14.411051    0.236216
   6 C     6.0000    0    12.011    0.249444    8.139050    0.115273
   7 C     6.0000    0    12.011   -1.075254    5.775003    0.088817
   8 C     6.0000    0    12.011    3.116158    4.947303    0.043464
   9 C     6.0000    0    12.011   -7.808348    7.677957    0.937304
  10 N     7.0000    0    14.007   -8.246765   12.077240    0.141729
  11 N     7.0000    0    14.007    0.733214    3.906064    0.047243
  12 N     7.0000    0    14.007   -3.798350    0.746442   -0.141729
  13 N     7.0000    0    14.007   -0.733214   -3.919292   -0.051023
  14 N     7.0000    0    14.007    3.798350   -0.757780    0.122832
  15 C     6.0000    0    12.011   -3.703863    5.406506    0.045353
  16 C     6.0000    0    12.011   -4.956752    3.051908   -0.034015
  17 C     6.0000    0    12.011  -10.531444   -8.180624    2.014448
  18 C     6.0000    0    12.011   -7.696855    2.779787    0.105825
  19 C     6.0000    0    12.011   -7.759216   -5.208085   -0.049133
  20 C     6.0000    0    12.011   -9.439182   -5.209975   -2.099486
  21 C     6.0000    0    12.011  -11.587801   -6.693410   -2.033345
  22 C     6.0000    0    12.011  -14.458295   -9.662170    0.075589
  23 C     6.0000    0    12.011   -8.171176    0.266451    0.069920
  24 C     6.0000    0    12.011   -5.716422   -0.982658   -0.090707
  25 C     6.0000    0    12.011   -8.356369   -6.738763    2.031456
  26 N     7.0000    0    14.007  -12.107475   -8.150389    0.001890
  27 C     6.0000    0    12.011   -5.417845   -3.632054   -0.075589
  28 C     6.0000    0    12.011   -3.118048   -4.958641   -0.051023
  29 C     6.0000    0    12.011    6.742543  -11.606698   -1.965315
  30 C     6.0000    0    12.011   -2.789236   -7.651501   -0.064251
  31 C     6.0000    0    12.011    5.296902   -7.745987   -0.015118
  32 C     6.0000    0    12.011    6.910728   -8.284559    2.020117
  33 C     6.0000    0    12.011    8.365818  -10.450186    2.001220
  34 C     6.0000    0    12.011    9.911614  -14.339242    0.026456
  35 C     6.0000    0    12.011   -0.253223   -8.154168   -0.041574
  36 C     6.0000    0    12.011    1.073364   -5.790121   -0.051023
  37 C     6.0000    0    12.011    5.243990   -9.471307   -2.029566
  38 N     7.0000    0    14.007    8.269442  -12.077240    0.032125
  39 C     6.0000    0    12.011    3.701973   -5.421624   -0.017008
  40 C     6.0000    0    12.011    4.952972   -3.065136    0.017008
  41 C     6.0000    0    12.011   10.474752    8.199522   -2.135391
  42 C     6.0000    0    12.011    7.691185   -2.794905   -0.177634
  43 C     6.0000    0    12.011    7.755436    5.198637   -0.039684
  44 C     6.0000    0    12.011    9.499653    5.157063    1.957756
  45 C     6.0000    0    12.011   11.652051    6.631049    1.848152
  46 C     6.0000    0    12.011   14.397823    9.737759   -0.217319
  47 C     6.0000    0    12.011    8.165507   -0.279679   -0.173855
  48 C     6.0000    0    12.011    5.716422    0.971319    0.028346
  49 C     6.0000    0    12.011    8.290229    6.768999   -2.107045
  50 C     6.0000    0    12.011    5.415955    3.620715    0.024566
  51 N     7.0000    0    14.007   12.118814    8.118263   -0.179524
  52 H     1.0000    0     1.008  -11.190958    9.902165    1.553355
  53 H     1.0000    0     1.008    4.297237    9.006435    0.153068
  54 H     1.0000    0     1.008   -2.394283   10.232867   -1.377610
  55 H     1.0000    0     1.008   -5.157063   14.036886   -1.266117
  56 H     1.0000    0     1.008   -9.435403   15.372922    2.029566
  57 H     1.0000    0     1.008   -9.244540   15.626145   -1.336036
  58 H     1.0000    0     1.008  -11.772994   13.900825    0.083148
  59 H     1.0000    0     1.008   -0.627389    9.981533    0.130391
  60 H     1.0000    0     1.008   -8.673843    5.931850    1.564693
  61 H     1.0000    0     1.008    0.343930    2.025786    0.009449
  62 H     1.0000    0     1.008   -0.345820   -2.040904   -0.039684
  63 H     1.0000    0     1.008  -11.081354   -9.376821    3.581031
  64 H     1.0000    0     1.008   -9.059347    4.293458    0.262672
  65 H     1.0000    0     1.008   -9.070685   -4.081808   -3.768114
  66 H     1.0000    0     1.008  -12.927616   -6.768999   -3.577252
  67 H     1.0000    0     1.008  -15.926612   -8.571798    1.031790
  68 H     1.0000    0     1.008  -15.034661  -10.085468   -1.853821
  69 H     1.0000    0     1.008  -14.089798  -11.408277    1.103600
  70 H     1.0000    0     1.008   -9.990982   -0.650066    0.188973
  71 H     1.0000    0     1.008   -7.143165   -6.804904    3.679297
  72 H     1.0000    0     1.008    6.778448  -12.978639   -3.482765
  73 H     1.0000    0     1.008   -4.301017   -9.021553   -0.094486
  74 H     1.0000    0     1.008    7.018443   -7.037340    3.639613
  75 H     1.0000    0     1.008    9.622485  -10.950963    3.535678
  76 H     1.0000    0     1.008   11.725751  -13.849803   -0.829590
  77 H     1.0000    0     1.008   10.191293  -14.960962    1.969095
  78 H     1.0000    0     1.008    8.993207  -15.822677   -1.065806
  79 H     1.0000    0     1.008    0.621720   -9.996651   -0.015118
  80 H     1.0000    0     1.008    4.055352   -9.150054   -3.666069
  81 H     1.0000    0     1.008   10.975529    9.422175   -3.696304
  82 H     1.0000    0     1.008    9.048009   -4.310465   -0.349599
  83 H     1.0000    0     1.008    9.184069    3.994881    3.613156
  84 H     1.0000    0     1.008   13.041000    6.672623    3.348595
  85 H     1.0000    0     1.008   13.951848   11.544337    0.672743
  86 H     1.0000    0     1.008   15.900156    8.791006    0.822031
  87 H     1.0000    0     1.008   14.968521   10.034446   -2.173185
  88 H     1.0000    0     1.008    9.983423    0.634948   -0.338261
  89 H     1.0000    0     1.008    7.029781    6.863485   -3.717091

--------------------------------
INTERNAL COORDINATES (ANGSTROEM)
--------------------------------
 C      0   0   0     0.000000000000     0.00000000     0.00000000
 C      1   0   0     6.485884519478     0.00000000     0.00000000
 C      1   2   0     2.412860957453    18.95612110     0.00000000
 C      3   1   2     1.403288637451    87.91130129   321.62588467
 C      4   3   1     1.380471658528   120.18322145     0.15945286
 C      5   4   3     2.447976715576   152.50028912     1.59706013
 C      2   1   3     1.368114030335     3.79347581    79.10638875
 C      7   2   4     1.434084376876   108.05010202   138.92937152
 C      2   1   3     1.434123425651   107.54084502   338.17685595
 C      1   2   7     1.380968862792    46.40107307   104.78092778
 N      1   2   7     1.352641120179    75.84355450   298.90495610
 N      9   2   1     1.376127174356   106.58526707     3.15901684
 N     12   9   2     2.925062050624   168.53581413   171.12065651
 N     13  12   9     2.954513327098    91.55032014    11.12112580
 N     14  13  12     2.925371258490    88.43092389   359.84326247
 C      8   7   2     1.404790019896   127.24786865   181.11170171
 C     13  12   9     1.366535034311    81.72106996   188.00453233
 C     14  13  12     5.758810554272    80.56209567   166.76250791
 C     17  13  12     1.459010623676   111.08861209   183.82872609
 C     18  14  13     2.412235892279    27.27532823    36.33507194
 C     20  18  14     1.402692767501    87.95206320   148.94598259
 C     21  20  18     1.382106725257   120.14573887   359.70382047
 C     18  14  13     2.446510985056   144.15733107    82.80075377
 C     19  17  13     1.353610726908   106.29293361   359.75308708
 C     13  12   9     1.366813447402   172.21332906    33.46711076
 C     18  14  13     1.380960173213    15.08449437   309.23336894
 N     22  21  20     1.352773077792   120.73759875     0.27865223
 C     25  13  17     1.410897586645   125.60330303   182.37774668
 C     14  13  12     1.376642291955    80.24689249   177.85461986
 C     14  13  12     5.764089607215   164.51507311   312.20821879
 C     29  14  13     1.435600919476   106.58649366   178.76395472
 C     30  14  13     2.413316804732    27.10625047    82.12560436
 C     32  30  14     1.403734305344    87.90059683   149.76154742
 C     33  32  30     1.380694028378   120.14881443   359.74174632
 C     34  33  32     2.448777858443   152.49203239     2.45173620
 C     31  29  14     1.368160809262   108.16950133     0.70383075
 C     14  13  12     1.376239804685   169.26375223   353.09862627
 C     30  14  13     1.380907310430    14.68948582   353.70041132
 N     34  33  32     1.352658863128   120.85575621     0.19603406
 C     37  14  29     1.404717053360   126.01551127   180.90772073
 C     15  14  13     1.366491126938    81.61824056   183.09049352
 C      2   1   3     4.249062720177   161.03259889   116.40386062
 C     41  15  14     1.459677704153   111.05201287   175.08990246
 C     42   2   1     2.412953791518    41.78584867   195.85952054
 C     44  42   2     1.403446472082    87.95153797   233.97558675
 C     45  44  42     1.381696421071   120.11137308     0.19721020
 C     42   2   1     2.450019795838   135.97209175   106.17436964
 C     43  41  15     1.354461516618   106.26758155     0.30894352
 C     15  14  13     1.367461151185   171.87382904   332.35056460
 C     42   2   1     1.381886391857    32.59078432   244.71479973
 C      9   2   1     1.404988612053   126.98745415   184.16335437
 N     42   2   1     1.352765315936   113.57249190   133.91095883
 H      1   2   7     1.083142649885   163.67410633   158.02898393
 H      2   1   3     1.079907866440   127.11591041   162.53385952
 H      4   3   1     1.082965373408   121.03827121   179.51655270
 H      5   4   3     1.081671854122   122.83323420   179.39940350
 H      6   5   4     1.092660514524   104.41513680   100.11044992
 H      6   5   4     1.089710512017    84.68199858   209.53687454
 H      6   5   4     1.089112023623   133.90104123   322.39959774
 H      7   2  54     1.079807853278   126.66122480     1.30600390
 H     10   1   2     1.083403895138   118.77411749   164.84772520
 H     12   9   2     1.016297692608   125.29023241   180.00180175
 H     14  13  12     1.014936943854    44.97226959   359.42596618
 H     18  14  13     1.082871645210   128.03556573   234.20482432
 H     19  17  13     1.080893611786   126.41830519   178.11313280
 H     21  20  18     1.083569563987   121.05669627   180.67006309
 H     22  21  20     1.082483256222   122.73097286   180.59748951
 H     23  18  14     1.092105306278   103.92715769   234.93429879
 H     23  18  14     1.088871893291   134.19244188    12.25587044
 H     23  18  14     1.089833473518    84.85857450   125.45241208
 H     24  19  17     1.080075460327   127.28078426   178.44613241
 H     26  18  14     1.083408048706   118.76995697   244.94906660
 H     30  14  13     1.082703098730   127.99711412   279.66882698
 H     31  29  14     1.079759695488   125.22293469   180.92530585
 H     33  32  30     1.083188810873   121.01964473   180.74284758
 H     34  33  32     1.082494341787   122.70821597   180.59516895
 H     35  34  33     1.092652735319   105.73575241    97.19771933
 H     35  34  33     1.089462711615    84.05943581   206.43036958
 H     35  34  33     1.089268102902   133.08365142   318.50306270
 H     36  31  29     1.079439669458   126.61599965   178.98859863
 H     38  30  73     1.083742127999   118.77264435   359.90091293
 H     42   2   1     1.082178358682   119.31790784   350.54248929
 H     43  41  15     1.080281907652   126.36969097   182.06329380
 H     45  44  42     1.083277434455   121.10105945   179.58025624
 H     46  45  44     1.082194529648   122.72144639   179.46906377
 H     47  42   2     1.091546151109   106.65128841   315.16475048
 H     47  42   2     1.088818625851   132.46019523    94.52397119
 H     47  42   2     1.089531091801    83.63838232   206.04504406
 H     48  43  41     1.080402239909   127.23657387   181.62955349
 H     50  42   2     1.083186502870   118.77001737    94.71359229

---------------------------
INTERNAL COORDINATES (A.U.)
---------------------------
 C      0   0   0     0.000000000000     0.00000000     0.00000000
 C      1   0   0    12.256545478052     0.00000000     0.00000000
 C      1   2   0     4.559646408817    18.95612110     0.00000000
 C      3   1   2     2.651831211627    87.91130129   321.62588467
 C      4   3   1     2.608713370259   120.18322145     0.15945286
 C      5   4   3     4.626005574654   152.50028912     1.59706013
 C      2   1   3     2.585360837309     3.79347581    79.10638875
 C      7   2   4     2.710026725231   108.05010202   138.92937152
 C      2   1   3     2.710100516721   107.54084502   338.17685595
 C      1   2   7     2.609652950149    46.40107307   104.78092778
 N      1   2   7     2.556121274619    75.84355450   298.90495610
 N      9   2   1     2.600503484979   106.58526707     3.15901684
 N     12   9   2     5.527566200405   168.53581413   171.12065651
 N     13  12   9     5.583221047236    91.55032014    11.12112580
 N     14  13  12     5.528150518591    88.43092389   359.84326247
 C      8   7   2     2.654668413270   127.24786865   181.11170171
 C     13  12   9     2.582376967257    81.72106996   188.00453233
 C     14  13  12    10.882574804710    80.56209567   166.76250791
 C     17  13  12     2.757130505230   111.08861209   183.82872609
 C     18  14  13     4.558465206823    27.27532823    36.33507194
 C     20  18  14     2.650705180609    87.95206320   148.94598259
 C     21  20  18     2.611803198586   120.14573887   359.70382047
 C     18  14  13     4.623235745386   144.15733107    82.80075377
 C     19  17  13     2.557953565794   106.29293361   359.75308708
 C     13  12   9     2.582903091751   172.21332906    33.46711076
 C     18  14  13     2.609636529225    15.08449437   309.23336894
 N     22  21  20     2.556370638369   120.73759875     0.27865223
 C     25  13  17     2.666210041769   125.60330303   182.37774668
 C     14  13  12     2.601476916169    80.24689249   177.85461986
 C     14  13  12    10.892550769017   164.51507311   312.20821879
 C     29  14  13     2.712892575415   106.58649366   178.76395472
 C     30  14  13     4.560507835333    27.10625047    82.12560436
 C     32  30  14     2.652673401891    87.90059683   149.76154742
 C     33  32  30     2.609133588376   120.14881443   359.74174632
 C     34  33  32     4.627519515267   152.49203239     2.45173620
 C     31  29  14     2.585449236669   108.16950133     0.70383075
 C     14  13  12     2.600716325456   169.26375223   353.09862627
 C     30  14  13     2.609536633043    14.68948582   353.70041132
 N     34  33  32     2.556154803934   120.85575621     0.19603406
 C     37  14  29     2.654530526499   126.01551127   180.90772073
 C     15  14  13     2.582293994346    81.61824056   183.09049352
 C      2   1   3     8.029564866989   161.03259889   116.40386062
 C     41  15  14     2.758391104639   111.05201287   175.08990246
 C     42   2   1     4.559821839776    41.78584867   195.85952054
 C     44  42   2     2.652129475853    87.95153797   233.97558675
 C     45  44  42     2.611027836043   120.11137308     0.19721020
 C     42   2   1     4.629866436820   135.97209175   106.17436964
 C     43  41  15     2.559561325344   106.26758155     0.30894352
 C     15  14  13     2.584127074516   171.87382904   332.35056460
 C     42   2   1     2.611386828803    32.59078432   244.71479973
 C      9   2   1     2.655043698059   126.98745415   184.16335437
 N     42   2   1     2.556355970587   113.57249190   133.91095883
 H      1   2   7     2.046842972252   163.67410633   158.02898393
 H      2   1   3     2.040730117440   127.11591041   162.53385952
 H      4   3   1     2.046507968260   121.03827121   179.51655270
 H      5   4   3     2.044063571062   122.83323420   179.39940350
 H      6   5   4     2.064829129800   104.41513680   100.11044992
 H      6   5   4     2.059254432967    84.68199858   209.53687454
 H      6   5   4     2.058123453808   133.90104123   322.39959774
 H      7   2  54     2.040541119952   126.66122480     1.30600390
 H     10   1   2     2.047336654234   118.77411749   164.84772520
 H     12   9   2     1.920524309565   125.29023241   180.00180175
 H     14  13  12     1.917952867083    44.97226959   359.42596618
 H     18  14  13     2.046330847636   128.03556573   234.20482432
 H     19  17  13     2.042592906181   126.41830519   178.11313280
 H     21  20  18     2.047649722989   121.05669627   180.67006309
 H     22  21  20     2.045596898814   122.73097286   180.59748951
 H     23  18  14     2.063779938267   103.92715769   234.93429879
 H     23  18  14     2.057669673245   134.19244188    12.25587044
 H     23  18  14     2.059486796529    84.85857450   125.45241208
 H     24  19  17     2.041046823986   127.28078426   178.44613241
 H     26  18  14     2.047344503340   118.76995697   244.94906660
 H     30  14  13     2.046012340948   127.99711412   279.66882698
 H     31  29  14     2.040450114918   125.22293469   180.92530585
 H     33  32  30     2.046930203877   121.01964473   180.74284758
 H     34  33  32     2.045617847496   122.70821597   180.59516895
 H     35  34  33     2.064814429233   105.73575241    97.19771933
 H     35  34  33     2.058786158072    84.05943581   206.43036958
 H     35  34  33     2.058418400901   133.08365142   318.50306270
 H     36  31  29     2.039845353366   126.61599965   178.98859863
 H     38  30  73     2.047975821711   118.77264435   359.90091293
 H     42   2   1     2.045020725966   119.31790784   350.54248929
 H     43  41  15     2.041436952892   126.36969097   182.06329380
 H     45  44  42     2.047097678177   121.10105945   179.58025624
 H     46  45  44     2.045051284662   122.72144639   179.46906377
 H     47  42   2     2.062723288131   106.65128841   315.16475048
 H     47  42   2     2.057569012371   132.46019523    94.52397119
 H     47  42   2     2.058915377895    83.63838232   206.04504406
 H     48  43  41     2.041664347903   127.23657387   181.62955349
 H     50  42   2     2.046925842384   118.77001737    94.71359229

---------------------
BASIS SET INFORMATION
---------------------
There are 3 groups of distinct atoms

 Group   1 Type C   : 17s4p1d contracted to 3s2p1d pattern {881/31/1}
 Group   2 Type N   : 17s4p1d contracted to 3s2p1d pattern {881/31/1}
 Group   3 Type H   : 4s1p contracted to 2s1p pattern {31/1}

Atom   0C    basis set group =>   1
Atom   1N    basis set group =>   2
Atom   2C    basis set group =>   1
Atom   3N    basis set group =>   2
Atom   4C    basis set group =>   1
Atom   5N    basis set group =>   2
Atom   6C    basis set group =>   1
Atom   7N    basis set group =>   2
Atom   8C    basis set group =>   1
Atom   9N    basis set group =>   2
Atom  10C    basis set group =>   1
Atom  11N    basis set group =>   2
Atom  12C    basis set group =>   1
Atom  13N    basis set group =>   2
Atom  14C    basis set group =>   1
Atom  15N    basis set group =>   2
Atom  16C    basis set group =>   1
Atom  17C    basis set group =>   1
Atom  18C    basis set group =>   1
Atom  19C    basis set group =>   1
Atom  20C    basis set group =>   1
Atom  21C    basis set group =>   1
Atom  22C    basis set group =>   1
Atom  23C    basis set group =>   1
Atom  24C    basis set group =>   1
Atom  25C    basis set group =>   1
Atom  26C    basis set group =>   1
Atom  27C    basis set group =>   1
Atom  28C    basis set group =>   1
Atom  29C    basis set group =>   1
Atom  30C    basis set group =>   1
Atom  31C    basis set group =>   1
Atom  32C    basis set group =>   1
Atom  33C    basis set group =>   1
Atom  34C    basis set group =>   1
Atom  35C    basis set group =>   1
Atom  36C    basis set group =>   1
Atom  37C    basis set group =>   1
Atom  38C    basis set group =>   1
Atom  39C    basis set group =>   1
Atom  40C    basis set group =>   1
Atom  41C    basis set group =>   1
Atom  42C    basis set group =>   1
Atom  43C    basis set group =>   1
Atom  44C    basis set group =>   1
Atom  45C    basis set group =>   1
Atom  46C    basis set group =>   1
Atom  47C    basis set group =>   1
Atom  48C    basis set group =>   1
Atom  49C    basis set group =>   1
Atom  50C    basis set group =>   1
Atom  51C    basis set group =>   1
Atom  52H    basis set group =>   3
Atom  53H    basis set group =>   3
Atom  54H    basis set group =>   3
Atom  55H    basis set group =>   3
Atom  56H    basis set group =>   3
Atom  57H    basis set group =>   3
Atom  58H    basis set group =>   3
Atom  59H    basis set group =>   3
Atom  60H    basis set group =>   3
Atom  61H    basis set group =>   3
Atom  62H    basis set group =>   3
Atom  63H    basis set group =>   3
Atom  64H    basis set group =>   3
Atom  65H    basis set group =>   3
Atom  66H    basis set group =>   3
Atom  67H    basis set group =>   3
Atom  68H    basis set group =>   3
Atom  69H    basis set group =>   3
Atom  70H    basis set group =>   3
Atom  71H    basis set group =>   3
Atom  72H    basis set group =>   3
Atom  73H    basis set group =>   3
Atom  74H    basis set group =>   3
Atom  75H    basis set group =>   3
Atom  76H    basis set group =>   3
Atom  77H    basis set group =>   3
Atom  78H    basis set group =>   3
Atom  79H    basis set group =>   3
Atom  80H    basis set group =>   3
Atom  81H    basis set group =>   3
Atom  82H    basis set group =>   3
Atom  83H    basis set group =>   3
Atom  84H    basis set group =>   3
Atom  85H    basis set group =>   3
Atom  86H    basis set group =>   3
Atom  87H    basis set group =>   3
Atom  88H    basis set group =>   3
Atom  89H    basis set group =>   3


           ************************************************************
           *        Program running with 16 parallel MPI-processes    *
           *              working on a common directory               *
           ************************************************************
------------------------------------------------------------------------------
                           ORCA GTO INTEGRAL CALCULATION
------------------------------------------------------------------------------
------------------------------------------------------------------------------
                   ___                                                        
                  /   \      - P O W E R E D   B Y -                         
                 /     \                                                     
                 |  |  |   _    _      __       _____    __    __             
                 |  |  |  | |  | |    /  \     |  _  \  |  |  /  |          
                  \  \/   | |  | |   /    \    | | | |  |  | /  /          
                 / \  \   | |__| |  /  /\  \   | |_| |  |  |/  /          
                |  |  |   |  __  | /  /__\  \  |    /   |      \           
                |  |  |   | |  | | |   __   |  |    \   |  |\   \          
                \     /   | |  | | |  |  |  |  | |\  \  |  | \   \       
                 \___/    |_|  |_| |__|  |__|  |_| \__\ |__|  \__/        
                                                                              
                      - O R C A' S   B I G   F R I E N D -                    
                                      &                                       
                       - I N T E G R A L  F E E D E R -                       
                                                                              
 v1 FN, 2020, v2 2021                                                         
------------------------------------------------------------------------------


Reading SHARK input file /scratch/allen/tmpyp4_amber_gaff2/conf1/conf1/Conf204.orca.SHARKINP.tmp ... ok
----------------------
SHARK INTEGRAL PACKAGE
----------------------

Number of atoms                             ...     90
Number of basis functions                   ...   1230
Number of shells                            ...    738
Maximum angular momentum                    ...      2
Integral batch strategy                     ... SHARK/LIBINT Hybrid
RI-J (if used) integral strategy            ... SPLIT-RIJ (Revised 2003 algorithm where possible)
Printlevel                                  ...      1
Contraction scheme used                     ... PARTIAL GENERAL contraction
Coulomb Range Separation                    ... NOT USED
Exchange Range Separation                   ... NOT USED
Finite Nucleus Model                        ... NOT USED
Auxiliary Coulomb fitting basis             ... NOT available
Auxiliary J/K fitting basis                 ... NOT available
Auxiliary Correlation fitting basis         ... NOT available
Auxiliary 'external' fitting basis          ... NOT available
Integral threshold                          ...     2.500000e-11
Primitive cut-off                           ...     2.500000e-12
Primitive pair pre-selection threshold      ...     2.500000e-12

Calculating pre-screening integrals         ... done (  0.1 sec) Dimension = 738
Calculating pre-screening integrals (ORCA)  ... done (  0.3 sec) Dimension = 426
Organizing shell pair data                  ... done (  0.7 sec)
Shell pair information
Total number of shell pairs                 ...    272691
Shell pairs after pre-screening             ...     71706
Total number of primitive shell pairs       ...    422091
Primitive shell pairs kept                  ...     92581
          la=0 lb=0:  29433 shell pairs
          la=1 lb=0:  26024 shell pairs
          la=1 lb=1:   4705 shell pairs
          la=2 lb=0:   7891 shell pairs
          la=2 lb=1:   3124 shell pairs
          la=2 lb=2:    529 shell pairs

Calculating one electron integrals          ... done (  0.2 sec)
Calculating Nuclear repulsion               ... done (  0.0 sec) ENN=   6233.386967905482 Eh

SHARK setup successfully completed in   2.4 seconds

Maximum memory used throughout the entire GTOINT-calculation: 99.1 MB


           ************************************************************
           *        Program running with 16 parallel MPI-processes    *
           *              working on a common directory               *
           ************************************************************
-------------------------------------------------------------------------------
                                 ORCA SCF
-------------------------------------------------------------------------------

------------
SCF SETTINGS
------------
Hamiltonian:
 Ab initio Hamiltonian  Method          .... Hartree-Fock(GTOs)


General Settings:
 Integral files         IntName         .... /scratch/allen/tmpyp4_amber_gaff2/conf1/conf1/Conf204.orca
 Hartree-Fock type      HFTyp           .... RHF
 Total Charge           Charge          ....    0
 Multiplicity           Mult            ....    1
 Number of Electrons    NEL             ....  358
 Basis Dimension        Dim             ....  918
 Nuclear Repulsion      ENuc            ....   6233.3869679055 Eh

Convergence Acceleration:
 DIIS                   CNVDIIS         .... on
   Start iteration      DIISMaxIt       ....    12
   Startup error        DIISStart       ....  0.200000
   # of expansion vecs  DIISMaxEq       ....     5
   Bias factor          DIISBfac        ....   1.050
   Max. coefficient     DIISMaxC        ....  10.000
 Trust-Rad. Augm. Hess. CNVTRAH         .... auto
   Auto Start mean grad. ratio tolernc. ....  1.125000
   Auto Start start iteration           ....    20
   Auto Start num. interpolation iter.  ....    10
   Max. Number of Micro iterations      ....    16
   Max. Number of Macro iterations      .... Maxiter - #DIIS iter
   Number of Davidson start vectors     ....     2
   Converg. threshold I  (grad. norm)   ....   1.000e-05
   Converg. threshold II (energy diff.) ....   1.000e-08
   Grad. Scal. Fac. for Micro threshold ....   0.100
   Minimum threshold for Micro iter.    ....   0.010
   NR start threshold (gradient norm)   ....   0.001
   Initial trust radius                 ....   0.400
   Minimum AH scaling param. (alpha)    ....   1.000
   Maximum AH scaling param. (alpha)    .... 1000.000
   Orbital update algorithm             .... Taylor
   White noise on init. David. guess    .... on
   Maximum white noise                  ....   0.010
   Quad. conv. algorithm                .... NR
 SOSCF                  CNVSOSCF        .... on
   Start iteration      SOSCFMaxIt      ....   150
   Startup grad/error   SOSCFStart      ....  0.003300
 Level Shifting         CNVShift        .... on
   Level shift para.    LevelShift      ....    0.2500
   Turn off err/grad.   ShiftErr        ....    0.0010
 Zerner damping         CNVZerner       .... off
 Static damping         CNVDamp         .... on
   Fraction old density DampFac         ....    0.7000
   Max. Damping (<1)    DampMax         ....    0.9800
   Min. Damping (>=0)   DampMin         ....    0.0000
   Turn off err/grad.   DampErr         ....    0.1000
 Fernandez-Rico         CNVRico         .... off

SCF Procedure:
 Maximum # iterations   MaxIter         ....   125
 SCF integral mode      SCFMode         .... Direct
   Integral package                     .... SHARK and LIBINT hybrid scheme
 Reset frequency        DirectResetFreq ....    20
 Integral Threshold     Thresh          ....  2.500e-11 Eh
 Primitive CutOff       TCut            ....  2.500e-12 Eh

Convergence Tolerance:
 Convergence Check Mode ConvCheckMode   .... Total+1el-Energy
 Convergence forced     ConvForced      .... 1
 Energy Change          TolE            ....  1.000e-08 Eh
 1-El. energy change                    ....  1.000e-05 Eh
 Orbital Gradient       TolG            ....  1.000e-05
 Orbital Rotation angle TolX            ....  1.000e-05
 DIIS Error             TolErr          ....  5.000e-07


Diagonalization of the overlap matrix:
Smallest eigenvalue                        ... 2.082e-04
Time for diagonalization                   ...    0.482 sec
Threshold for overlap eigenvalues          ... 1.000e-08
Number of eigenvalues below threshold      ... 0
Time for construction of square roots      ...    0.268 sec
Total time needed                          ...    0.757 sec

Time for model grid setup =    1.284 sec

------------------------------
INITIAL GUESS: MODEL POTENTIAL
------------------------------
Loading Hartree-Fock densities                     ... done
Calculating cut-offs                               ... done
Initializing the effective Hamiltonian             ... done
Setting up the integral package (SHARK)            ... done
Starting the Coulomb interaction                   ... done (   1.4 sec)
Reading the grid                                   ... done
Mapping shells                                     ... done
Starting the XC term evaluation                    ... done (   0.2 sec)
Transforming the Hamiltonian                       ... done (   0.3 sec)
Diagonalizing the Hamiltonian                      ... done (   0.4 sec)
Back transforming the eigenvectors                 ... done (   0.1 sec)
Now organizing SCF variables                       ... done
                      ------------------
                      INITIAL GUESS DONE (   3.8 sec)
                      ------------------
--------------
SCF ITERATIONS
--------------
ITER       Energy         Delta-E        Max-DP      RMS-DP      [F,P]     Damp
               ***  Starting incremental Fock matrix formation  ***
  0  -2121.6522631868   0.000000000000 0.07503879  0.00124034  0.2316151 0.7000
  1  -2122.3004076251  -0.648144438364 0.05690844  0.00101089  0.1436171 0.7000
                               ***Turning on DIIS***
  2  -2122.7040570305  -0.403649405394 0.13292040  0.00229205  0.0802699 0.0000
  3  -2117.9900167124   4.714040318157 0.05608338  0.00068989  0.0436302 0.0000
  4  -2123.3889791194  -5.398962407080 0.01645174  0.00022874  0.0089002 0.0000
  5  -2123.5344149123  -0.145435792872 0.00776771  0.00013329  0.0048980 0.0000
  6  -2123.5187807051   0.015634207253 0.00457198  0.00008547  0.0021521 0.0000
  7  -2123.6132504551  -0.094469750053 0.00308603  0.00006739  0.0015999 0.0000
  8  -2123.6219225775  -0.008672122343 0.00327694  0.00006417  0.0014966 0.0000
  9  -2123.5936028099   0.028319767516 0.00262230  0.00004533  0.0012018 0.0000
 10  -2123.6020276186  -0.008424808648 0.00526521  0.00009472  0.0009364 0.0000
                      *** Initiating the SOSCF procedure ***
                           *** Shutting down DIIS ***
                      *** Re-Reading the Fockian *** 
                      *** Removing any level shift *** 
ITER      Energy       Delta-E        Grad      Rot      Max-DP    RMS-DP
 11  -2123.49478558   0.1072420421  0.000181  0.000181  0.000240  0.000005
               *** Restarting incremental Fock matrix formation ***
 12  -2123.56082557  -0.0660399892  0.000892  0.006233  0.001423  0.000035
 13  -2123.56093473  -0.0001091645  0.001107  0.030867  0.006540  0.000136
 14  -2123.56111950  -0.0001847700  0.000367  0.001474  0.000614  0.000012
 15  -2123.56113491  -0.0000154057  0.000175  0.002349  0.000599  0.000015
 16  -2123.56114288  -0.0000079762  0.000148  0.002467  0.000461  0.000009
 17  -2123.56114565  -0.0000027696  0.000131  0.001806  0.000310  0.000007
 18  -2123.56114704  -0.0000013892  0.000064  0.000901  0.000251  0.000004
 19  -2123.56114777  -0.0000007239  0.000045  0.001087  0.000207  0.000004
 20  -2123.56114812  -0.0000003529  0.000025  0.000713  0.000111  0.000003
 21  -2123.56114830  -0.0000001771  0.000024  0.000903  0.000143  0.000003
 22  -2123.56114846  -0.0000001622  0.000021  0.000834  0.000135  0.000003
 23  -2123.56114856  -0.0000001005  0.000014  0.000466  0.000077  0.000002
 24  -2123.56114861  -0.0000000490  0.000008  0.000354  0.000055  0.000001
 25  -2123.56114864  -0.0000000326  0.000008  0.000161  0.000038  0.000001
 26  -2123.56114865  -0.0000000150  0.000006  0.000113  0.000032  0.000001
 27  -2123.56114866  -0.0000000043  0.000003  0.000089  0.000022  0.000000
                  ***Gradient check signals convergence***
              ***Rediagonalizing the Fockian in SOSCF/NRSCF***

               *****************************************************
               *                     SUCCESS                       *
               *           SCF CONVERGED AFTER  28 CYCLES          *
               *****************************************************


----------------
TOTAL SCF ENERGY
----------------

Total Energy       :        -2123.56114866 Eh          -57785.03659 eV

Components:
Nuclear Repulsion  :         6233.38696791 Eh          169619.08266 eV
Electronic Energy  :        -8356.94811656 Eh         -227404.11925 eV
One Electron Energy:       -15307.41788409 Eh         -416536.01691 eV
Two Electron Energy:         6950.46976753 Eh          189131.89765 eV

Virial components:
Potential Energy   :        -4245.91821816 Eh         -115537.30852 eV
Kinetic Energy     :         2122.35706950 Eh           57752.27193 eV
Virial Ratio       :            2.00056733


---------------
SCF CONVERGENCE
---------------

  Last Energy change         ...    1.1096e-09  Tolerance :   1.0000e-08
  Last MAX-Density change    ...    1.1025e-05  Tolerance :   1.0000e-07
  Last RMS-Density change    ...    2.2180e-07  Tolerance :   5.0000e-09
  Last Orbital Gradient      ...    2.0859e-06  Tolerance :   1.0000e-05
  Last Orbital Rotation      ...    5.4593e-05  Tolerance :   1.0000e-05

             **** THE GBW FILE WAS UPDATED (/scratch/allen/tmpyp4_amber_gaff2/conf1/conf1/Conf204.orca.gbw) ****
             **** DENSITY /scratch/allen/tmpyp4_amber_gaff2/conf1/conf1/Conf204.orca.scfp WAS UPDATED ****
             **** ENERGY FILE WAS UPDATED (/scratch/allen/tmpyp4_amber_gaff2/conf1/conf1/Conf204.orca.en.tmp) ****
             **** THE GBW FILE WAS UPDATED (/scratch/allen/tmpyp4_amber_gaff2/conf1/conf1/Conf204.orca.gbw) ****
             **** DENSITY /scratch/allen/tmpyp4_amber_gaff2/conf1/conf1/Conf204.orca.scfp WAS UPDATED ****
----------------
ORBITAL ENERGIES
----------------

  NO   OCC          E(Eh)            E(eV) 
   0   2.0000     -15.677295      -426.6009 
   1   2.0000     -15.634020      -425.4233 
   2   2.0000     -15.631536      -425.3557 
   3   2.0000     -15.589296      -424.2063 
   4   2.0000     -15.524948      -422.4553 
   5   2.0000     -15.515937      -422.2101 
   6   2.0000     -15.453378      -420.5078 
   7   2.0000     -15.440324      -420.1526 
   8   2.0000     -11.327400      -308.2342 
   9   2.0000     -11.326392      -308.2068 
  10   2.0000     -11.326215      -308.2020 
  11   2.0000     -11.299351      -307.4710 
  12   2.0000     -11.298173      -307.4389 
  13   2.0000     -11.292928      -307.2962 
  14   2.0000     -11.290791      -307.2381 
  15   2.0000     -11.286699      -307.1267 
  16   2.0000     -11.286473      -307.1206 
  17   2.0000     -11.279712      -306.9366 
  18   2.0000     -11.271381      -306.7099 
  19   2.0000     -11.261641      -306.4448 
  20   2.0000     -11.260660      -306.4181 
  21   2.0000     -11.253042      -306.2108 
  22   2.0000     -11.252350      -306.1920 
  23   2.0000     -11.237736      -305.7943 
  24   2.0000     -11.236321      -305.7558 
  25   2.0000     -11.231201      -305.6165 
  26   2.0000     -11.230401      -305.5947 
  27   2.0000     -11.229542      -305.5714 
  28   2.0000     -11.229417      -305.5680 
  29   2.0000     -11.210525      -305.0539 
  30   2.0000     -11.209208      -305.0181 
  31   2.0000     -11.196698      -304.6776 
  32   2.0000     -11.190648      -304.5130 
  33   2.0000     -11.190498      -304.5089 
  34   2.0000     -11.188705      -304.4601 
  35   2.0000     -11.187508      -304.4276 
  36   2.0000     -11.186231      -304.3928 
  37   2.0000     -11.185381      -304.3697 
  38   2.0000     -11.181495      -304.2640 
  39   2.0000     -11.173862      -304.0562 
  40   2.0000     -11.172215      -304.0114 
  41   2.0000     -11.170574      -303.9668 
  42   2.0000     -11.167903      -303.8941 
  43   2.0000     -11.160885      -303.7031 
  44   2.0000     -11.160400      -303.6899 
  45   2.0000     -11.157489      -303.6107 
  46   2.0000     -11.155855      -303.5662 
  47   2.0000     -11.155105      -303.5458 
  48   2.0000     -11.147400      -303.3362 
  49   2.0000     -11.136998      -303.0531 
  50   2.0000     -11.130425      -302.8743 
  51   2.0000     -11.118826      -302.5586 
  52   2.0000      -1.358261       -36.9602 
  53   2.0000      -1.321258       -35.9533 
  54   2.0000      -1.319365       -35.9018 
  55   2.0000      -1.282530       -34.8994 
  56   2.0000      -1.225817       -33.3562 
  57   2.0000      -1.210434       -32.9376 
  58   2.0000      -1.172761       -31.9124 
  59   2.0000      -1.151069       -31.3222 
  60   2.0000      -1.141897       -31.0726 
  61   2.0000      -1.110289       -30.2125 
  62   2.0000      -1.108731       -30.1701 
  63   2.0000      -1.080113       -29.3914 
  64   2.0000      -1.078930       -29.3592 
  65   2.0000      -1.045434       -28.4477 
  66   2.0000      -1.044053       -28.4101 
  67   2.0000      -1.039952       -28.2985 
  68   2.0000      -1.014752       -27.6128 
  69   2.0000      -1.013193       -27.5704 
  70   2.0000      -1.009351       -27.4658 
  71   2.0000      -0.993180       -27.0258 
  72   2.0000      -0.986231       -26.8367 
  73   2.0000      -0.980936       -26.6926 
  74   2.0000      -0.972513       -26.4634 
  75   2.0000      -0.961552       -26.1652 
  76   2.0000      -0.954028       -25.9604 
  77   2.0000      -0.945962       -25.7409 
  78   2.0000      -0.935607       -25.4592 
  79   2.0000      -0.918121       -24.9833 
  80   2.0000      -0.908730       -24.7278 
  81   2.0000      -0.895271       -24.3616 
  82   2.0000      -0.875502       -23.8236 
  83   2.0000      -0.872076       -23.7304 
  84   2.0000      -0.869889       -23.6709 
  85   2.0000      -0.858076       -23.3494 
  86   2.0000      -0.841742       -22.9050 
  87   2.0000      -0.835694       -22.7404 
  88   2.0000      -0.825563       -22.4647 
  89   2.0000      -0.797231       -21.6938 
  90   2.0000      -0.790339       -21.5062 
  91   2.0000      -0.753466       -20.5029 
  92   2.0000      -0.749117       -20.3845 
  93   2.0000      -0.733247       -19.9527 
  94   2.0000      -0.725547       -19.7431 
  95   2.0000      -0.722507       -19.6604 
  96   2.0000      -0.717279       -19.5182 
  97   2.0000      -0.714248       -19.4357 
  98   2.0000      -0.709760       -19.3136 
  99   2.0000      -0.697560       -18.9816 
 100   2.0000      -0.696451       -18.9514 
 101   2.0000      -0.687391       -18.7049 
 102   2.0000      -0.683553       -18.6004 
 103   2.0000      -0.682674       -18.5765 
 104   2.0000      -0.678495       -18.4628 
 105   2.0000      -0.673951       -18.3391 
 106   2.0000      -0.671179       -18.2637 
 107   2.0000      -0.660401       -17.9704 
 108   2.0000      -0.657343       -17.8872 
 109   2.0000      -0.653043       -17.7702 
 110   2.0000      -0.651471       -17.7274 
 111   2.0000      -0.644486       -17.5373 
 112   2.0000      -0.644205       -17.5297 
 113   2.0000      -0.638212       -17.3666 
 114   2.0000      -0.637459       -17.3461 
 115   2.0000      -0.628002       -17.0888 
 116   2.0000      -0.622739       -16.9456 
 117   2.0000      -0.621032       -16.8991 
 118   2.0000      -0.612915       -16.6783 
 119   2.0000      -0.612336       -16.6625 
 120   2.0000      -0.611281       -16.6338 
 121   2.0000      -0.609725       -16.5915 
 122   2.0000      -0.600708       -16.3461 
 123   2.0000      -0.587011       -15.9734 
 124   2.0000      -0.581681       -15.8284 
 125   2.0000      -0.580584       -15.7985 
 126   2.0000      -0.579785       -15.7767 
 127   2.0000      -0.571969       -15.5641 
 128   2.0000      -0.568778       -15.4772 
 129   2.0000      -0.559547       -15.2261 
 130   2.0000      -0.552378       -15.0310 
 131   2.0000      -0.547568       -14.9001 
 132   2.0000      -0.542112       -14.7516 
 133   2.0000      -0.541991       -14.7483 
 134   2.0000      -0.538469       -14.6525 
 135   2.0000      -0.535862       -14.5815 
 136   2.0000      -0.530053       -14.4235 
 137   2.0000      -0.521033       -14.1780 
 138   2.0000      -0.516910       -14.0658 
 139   2.0000      -0.514518       -14.0008 
 140   2.0000      -0.512120       -13.9355 
 141   2.0000      -0.510742       -13.8980 
 142   2.0000      -0.509141       -13.8544 
 143   2.0000      -0.504032       -13.7154 
 144   2.0000      -0.502371       -13.6702 
 145   2.0000      -0.496549       -13.5118 
 146   2.0000      -0.490857       -13.3569 
 147   2.0000      -0.482606       -13.1324 
 148   2.0000      -0.478621       -13.0239 
 149   2.0000      -0.467033       -12.7086 
 150   2.0000      -0.466384       -12.6910 
 151   2.0000      -0.457046       -12.4369 
 152   2.0000      -0.451146       -12.2763 
 153   2.0000      -0.444858       -12.1052 
 154   2.0000      -0.440066       -11.9748 
 155   2.0000      -0.427969       -11.6456 
 156   2.0000      -0.418670       -11.3926 
 157   2.0000      -0.407733       -11.0950 
 158   2.0000      -0.398518       -10.8442 
 159   2.0000      -0.388247       -10.5647 
 160   2.0000      -0.386033       -10.5045 
 161   2.0000      -0.378419       -10.2973 
 162   2.0000      -0.370160       -10.0726 
 163   2.0000      -0.356673        -9.7056 
 164   2.0000      -0.355673        -9.6784 
 165   2.0000      -0.341380        -9.2894 
 166   2.0000      -0.337643        -9.1877 
 167   2.0000      -0.325179        -8.8486 
 168   2.0000      -0.322614        -8.7788 
 169   2.0000      -0.304862        -8.2957 
 170   2.0000      -0.299552        -8.1512 
 171   2.0000      -0.285565        -7.7706 
 172   2.0000      -0.280235        -7.6256 
 173   2.0000      -0.263402        -7.1675 
 174   2.0000      -0.241805        -6.5798 
 175   2.0000      -0.189958        -5.1690 
 176   2.0000      -0.180583        -4.9139 
 177   2.0000      -0.077781        -2.1165 
 178   2.0000      -0.059078        -1.6076 
 179   0.0000       0.028348         0.7714 
 180   0.0000       0.065701         1.7878 
 181   0.0000       0.090705         2.4682 
 182   0.0000       0.107845         2.9346 
 183   0.0000       0.112725         3.0674 
 184   0.0000       0.136986         3.7276 
 185   0.0000       0.139559         3.7976 
 186   0.0000       0.142234         3.8704 
 187   0.0000       0.163759         4.4561 
 188   0.0000       0.165075         4.4919 
 189   0.0000       0.165819         4.5122 
 190   0.0000       0.171470         4.6659 
 191   0.0000       0.181680         4.9438 
 192   0.0000       0.185082         5.0363 
 193   0.0000       0.188089         5.1182 
 194   0.0000       0.204857         5.5744 
 195   0.0000       0.205724         5.5980 
 196   0.0000       0.208225         5.6661 
 197   0.0000       0.208763         5.6807 
 198   0.0000       0.217745         5.9251 
 199   0.0000       0.227832         6.1996 
 200   0.0000       0.232325         6.3219 
 201   0.0000       0.234993         6.3945 
 202   0.0000       0.239021         6.5041 
 203   0.0000       0.239902         6.5281 
 204   0.0000       0.247008         6.7214 
 205   0.0000       0.255916         6.9638 
 206   0.0000       0.256590         6.9822 
 207   0.0000       0.257278         7.0009 
 208   0.0000       0.259730         7.0676 
 209   0.0000       0.261341         7.1114 
 210   0.0000       0.263768         7.1775 
 211   0.0000       0.267492         7.2788 
 212   0.0000       0.269115         7.3230 
 213   0.0000       0.270474         7.3600 
 214   0.0000       0.273174         7.4334 
 215   0.0000       0.276483         7.5235 
 216   0.0000       0.278772         7.5858 
 217   0.0000       0.280879         7.6431 
 218   0.0000       0.285525         7.7695 
 219   0.0000       0.287810         7.8317 
 220   0.0000       0.288921         7.8620 
 221   0.0000       0.292055         7.9472 
 222   0.0000       0.294386         8.0107 
 223   0.0000       0.296636         8.0719 
 224   0.0000       0.297581         8.0976 
 225   0.0000       0.300477         8.1764 
 226   0.0000       0.304942         8.2979 
 227   0.0000       0.308584         8.3970 
 228   0.0000       0.310828         8.4581 
 229   0.0000       0.324655         8.8343 
 230   0.0000       0.327226         8.9043 
 231   0.0000       0.332608         9.0507 
 232   0.0000       0.342140         9.3101 
 233   0.0000       0.351265         9.5584 
 234   0.0000       0.354768         9.6537 
 235   0.0000       0.358903         9.7662 
 236   0.0000       0.376239        10.2380 
 237   0.0000       0.388966        10.5843 
 238   0.0000       0.394603        10.7377 
 239   0.0000       0.397078        10.8050 
 240   0.0000       0.402448        10.9512 
 241   0.0000       0.409564        11.1448 
 242   0.0000       0.412742        11.2313 
 243   0.0000       0.419401        11.4125 
 244   0.0000       0.429228        11.6799 
 245   0.0000       0.434216        11.8156 
 246   0.0000       0.436464        11.8768 
 247   0.0000       0.441103        12.0030 
 248   0.0000       0.441752        12.0207 
 249   0.0000       0.448486        12.2039 
 250   0.0000       0.458283        12.4705 
 251   0.0000       0.464804        12.6480 
 252   0.0000       0.467186        12.7128 
 253   0.0000       0.471282        12.8242 
 254   0.0000       0.472610        12.8604 
 255   0.0000       0.474206        12.9038 
 256   0.0000       0.476760        12.9733 
 257   0.0000       0.480307        13.0698 
 258   0.0000       0.487867        13.2755 
 259   0.0000       0.496301        13.5050 
 260   0.0000       0.503404        13.6983 
 261   0.0000       0.505399        13.7526 
 262   0.0000       0.506584        13.7849 
 263   0.0000       0.513163        13.9639 
 264   0.0000       0.514708        14.0059 
 265   0.0000       0.518470        14.1083 
 266   0.0000       0.524512        14.2727 
 267   0.0000       0.530267        14.4293 
 268   0.0000       0.532874        14.5002 
 269   0.0000       0.536121        14.5886 
 270   0.0000       0.541283        14.7291 
 271   0.0000       0.545013        14.8306 
 272   0.0000       0.557190        15.1619 
 273   0.0000       0.559463        15.2238 
 274   0.0000       0.561825        15.2880 
 275   0.0000       0.565785        15.3958 
 276   0.0000       0.570032        15.5114 
 277   0.0000       0.573605        15.6086 
 278   0.0000       0.578141        15.7320 
 279   0.0000       0.586351        15.9554 
 280   0.0000       0.590721        16.0743 
 281   0.0000       0.591971        16.1083 
 282   0.0000       0.594442        16.1756 
 283   0.0000       0.595568        16.2062 
 284   0.0000       0.598226        16.2786 
 285   0.0000       0.602345        16.3906 
 286   0.0000       0.607738        16.5374 
 287   0.0000       0.611109        16.6291 
 288   0.0000       0.614491        16.7211 
 289   0.0000       0.624263        16.9871 
 290   0.0000       0.626358        17.0441 
 291   0.0000       0.629314        17.1245 
 292   0.0000       0.634991        17.2790 
 293   0.0000       0.637196        17.3390 
 294   0.0000       0.645444        17.5634 
 295   0.0000       0.647863        17.6292 
 296   0.0000       0.653115        17.7722 
 297   0.0000       0.655454        17.8358 
 298   0.0000       0.661823        18.0091 
 299   0.0000       0.666560        18.1380 
 300   0.0000       0.671903        18.2834 
 301   0.0000       0.675259        18.3747 
 302   0.0000       0.676990        18.4218 
 303   0.0000       0.678382        18.4597 
 304   0.0000       0.679713        18.4959 
 305   0.0000       0.684425        18.6242 
 306   0.0000       0.689374        18.7588 
 307   0.0000       0.692533        18.8448 
 308   0.0000       0.695669        18.9301 
 309   0.0000       0.698786        19.0149 
 310   0.0000       0.702281        19.1100 
 311   0.0000       0.703919        19.1546 
 312   0.0000       0.706229        19.2175 
 313   0.0000       0.711423        19.3588 
 314   0.0000       0.712097        19.3771 
 315   0.0000       0.715669        19.4743 
 316   0.0000       0.717565        19.5259 
 317   0.0000       0.717835        19.5333 
 318   0.0000       0.722419        19.6580 
 319   0.0000       0.724117        19.7042 
 320   0.0000       0.727191        19.7879 
 321   0.0000       0.729966        19.8634 
 322   0.0000       0.730966        19.8906 
 323   0.0000       0.732952        19.9446 
 324   0.0000       0.736289        20.0354 
 325   0.0000       0.740633        20.1537 
 326   0.0000       0.742568        20.2063 
 327   0.0000       0.747190        20.3321 
 328   0.0000       0.752496        20.4765 
 329   0.0000       0.753855        20.5134 
 330   0.0000       0.757877        20.6229 
 331   0.0000       0.760300        20.6888 
 332   0.0000       0.761774        20.7289 
 333   0.0000       0.766082        20.8462 
 334   0.0000       0.767970        20.8975 
 335   0.0000       0.771739        21.0001 
 336   0.0000       0.777089        21.1457 
 337   0.0000       0.781693        21.2710 
 338   0.0000       0.786601        21.4045 
 339   0.0000       0.788776        21.4637 
 340   0.0000       0.791826        21.5467 
 341   0.0000       0.794754        21.6264 
 342   0.0000       0.797852        21.7106 
 343   0.0000       0.802382        21.8339 
 344   0.0000       0.805896        21.9296 
 345   0.0000       0.808403        21.9978 
 346   0.0000       0.809193        22.0193 
 347   0.0000       0.812005        22.0958 
 348   0.0000       0.816197        22.2098 
 349   0.0000       0.817681        22.2502 
 350   0.0000       0.818341        22.2682 
 351   0.0000       0.820654        22.3311 
 352   0.0000       0.824261        22.4293 
 353   0.0000       0.826928        22.5018 
 354   0.0000       0.829351        22.5678 
 355   0.0000       0.831661        22.6306 
 356   0.0000       0.833615        22.6838 
 357   0.0000       0.836467        22.7614 
 358   0.0000       0.837977        22.8025 
 359   0.0000       0.838184        22.8082 
 360   0.0000       0.840090        22.8600 
 361   0.0000       0.842047        22.9133 
 362   0.0000       0.843943        22.9648 
 363   0.0000       0.847798        23.0698 
 364   0.0000       0.851239        23.1634 
 365   0.0000       0.856643        23.3104 
 366   0.0000       0.859561        23.3898 
 367   0.0000       0.861475        23.4419 
 368   0.0000       0.864888        23.5348 
 369   0.0000       0.866638        23.5824 
 370   0.0000       0.869148        23.6507 
 371   0.0000       0.872595        23.7445 
 372   0.0000       0.873960        23.7817 
 373   0.0000       0.877308        23.8728 
 374   0.0000       0.879613        23.9355 
 375   0.0000       0.883136        24.0314 
 376   0.0000       0.887273        24.1439 
 377   0.0000       0.888395        24.1745 
 378   0.0000       0.891118        24.2485 
 379   0.0000       0.891683        24.2639 
 380   0.0000       0.896672        24.3997 
 381   0.0000       0.898251        24.4426 
 382   0.0000       0.900679        24.5087 
 383   0.0000       0.902487        24.5579 
 384   0.0000       0.905552        24.6413 
 385   0.0000       0.905748        24.6467 
 386   0.0000       0.907226        24.6869 
 387   0.0000       0.909758        24.7558 
 388   0.0000       0.915518        24.9125 
 389   0.0000       0.916539        24.9403 
 390   0.0000       0.920698        25.0535 
 391   0.0000       0.923934        25.1415 
 392   0.0000       0.926571        25.2133 
 393   0.0000       0.928025        25.2528 
 394   0.0000       0.929147        25.2834 
 395   0.0000       0.931618        25.3506 
 396   0.0000       0.933039        25.3893 
 397   0.0000       0.938535        25.5388 
 398   0.0000       0.942994        25.6602 
 399   0.0000       0.945171        25.7194 
 400   0.0000       0.946669        25.7602 
 401   0.0000       0.952594        25.9214 
 402   0.0000       0.953961        25.9586 
 403   0.0000       0.955647        26.0045 
 404   0.0000       0.959977        26.1223 
 405   0.0000       0.963149        26.2086 
 406   0.0000       0.969226        26.3740 
 407   0.0000       0.973349        26.4862 
 408   0.0000       0.980464        26.6798 
 409   0.0000       0.981936        26.7198 
 410   0.0000       0.986252        26.8373 
 411   0.0000       0.986830        26.8530 
 412   0.0000       0.996255        27.1095 
 413   0.0000       0.999849        27.2073 
 414   0.0000       1.002712        27.2852 
 415   0.0000       1.006185        27.3797 
 416   0.0000       1.012020        27.5385 
 417   0.0000       1.015172        27.6242 
 418   0.0000       1.023423        27.8488 
 419   0.0000       1.030384        28.0382 
 420   0.0000       1.033187        28.1144 
 421   0.0000       1.035183        28.1688 
 422   0.0000       1.040831        28.3225 
 423   0.0000       1.050533        28.5865 
 424   0.0000       1.058098        28.7923 
 425   0.0000       1.058522        28.8039 
 426   0.0000       1.064852        28.9761 
 427   0.0000       1.069030        29.0898 
 428   0.0000       1.077141        29.3105 
 429   0.0000       1.084935        29.5226 
 430   0.0000       1.085733        29.5443 
 431   0.0000       1.089321        29.6419 
 432   0.0000       1.096054        29.8251 
 433   0.0000       1.096769        29.8446 
 434   0.0000       1.100672        29.9508 
 435   0.0000       1.105366        30.0785 
 436   0.0000       1.109338        30.1866 
 437   0.0000       1.111967        30.2582 
 438   0.0000       1.116894        30.3922 
 439   0.0000       1.121102        30.5067 
 440   0.0000       1.121635        30.5212 
 441   0.0000       1.124154        30.5898 
 442   0.0000       1.127528        30.6816 
 443   0.0000       1.128962        30.7206 
 444   0.0000       1.132835        30.8260 
 445   0.0000       1.136819        30.9344 
 446   0.0000       1.140592        31.0371 
 447   0.0000       1.147460        31.2240 
 448   0.0000       1.149488        31.2792 
 449   0.0000       1.150162        31.2975 
 450   0.0000       1.154974        31.4284 
 451   0.0000       1.159678        31.5564 
 452   0.0000       1.165389        31.7118 
 453   0.0000       1.167736        31.7757 
 454   0.0000       1.169518        31.8242 
 455   0.0000       1.172737        31.9118 
 456   0.0000       1.175785        31.9947 
 457   0.0000       1.183229        32.1973 
 458   0.0000       1.186998        32.2999 
 459   0.0000       1.195687        32.5363 
 460   0.0000       1.196360        32.5546 
 461   0.0000       1.198652        32.6170 
 462   0.0000       1.202550        32.7231 
 463   0.0000       1.204079        32.7647 
 464   0.0000       1.208551        32.8863 
 465   0.0000       1.212992        33.0072 
 466   0.0000       1.216129        33.0926 
 467   0.0000       1.216739        33.1092 
 468   0.0000       1.223806        33.3015 
 469   0.0000       1.228869        33.4392 
 470   0.0000       1.230101        33.4727 
 471   0.0000       1.234856        33.6021 
 472   0.0000       1.236581        33.6491 
 473   0.0000       1.240481        33.7552 
 474   0.0000       1.243364        33.8337 
 475   0.0000       1.244478        33.8640 
 476   0.0000       1.249880        34.0110 
 477   0.0000       1.250257        34.0212 
 478   0.0000       1.252388        34.0792 
 479   0.0000       1.256029        34.1783 
 480   0.0000       1.260457        34.2988 
 481   0.0000       1.263383        34.3784 
 482   0.0000       1.264648        34.4128 
 483   0.0000       1.272503        34.6266 
 484   0.0000       1.276726        34.7415 
 485   0.0000       1.280639        34.8480 
 486   0.0000       1.282706        34.9042 
 487   0.0000       1.287380        35.0314 
 488   0.0000       1.288964        35.0745 
 489   0.0000       1.293171        35.1890 
 490   0.0000       1.296534        35.2805 
 491   0.0000       1.299340        35.3568 
 492   0.0000       1.302208        35.4349 
 493   0.0000       1.310122        35.6502 
 494   0.0000       1.311610        35.6907 
 495   0.0000       1.317901        35.8619 
 496   0.0000       1.319926        35.9170 
 497   0.0000       1.320996        35.9461 
 498   0.0000       1.326465        36.0949 
 499   0.0000       1.330460        36.2037 
 500   0.0000       1.332471        36.2584 
 501   0.0000       1.340730        36.4831 
 502   0.0000       1.342838        36.5405 
 503   0.0000       1.345168        36.6039 
 504   0.0000       1.346888        36.6507 
 505   0.0000       1.350706        36.7546 
 506   0.0000       1.351622        36.7795 
 507   0.0000       1.355257        36.8784 
 508   0.0000       1.358901        36.9776 
 509   0.0000       1.360310        37.0159 
[...]
      pz      :     0.022112  p :     0.079770
      px      :     0.043596
      py      :     0.014062
 77 H s       :     0.884757  s :     0.884757
      pz      :     0.047960  p :     0.079271
      px      :     0.015023
      py      :     0.016288
 78 H s       :     0.885104  s :     0.885104
      pz      :     0.025874  p :     0.079239
      px      :     0.020460
      py      :     0.032905
 79 H s       :     0.910651  s :     0.910651
      pz      :     0.021810  p :     0.086325
      px      :     0.021665
      py      :     0.042850
 80 H s       :     0.864741  s :     0.864741
      pz      :     0.039364  p :     0.084791
      px      :     0.030264
      py      :     0.015163
 81 H s       :     0.886857  s :     0.886857
      pz      :     0.037817  p :     0.084113
      px      :     0.016181
      py      :     0.030115
 82 H s       :     0.915959  s :     0.915959
      pz      :     0.021956  p :     0.086733
      px      :     0.031640
      py      :     0.033137
 83 H s       :     0.873335  s :     0.873335
      pz      :     0.039279  p :     0.084090
      px      :     0.015273
      py      :     0.029538
 84 H s       :     0.886668  s :     0.886668
      pz      :     0.035774  p :     0.083451
      px      :     0.031698
      py      :     0.015979
 85 H s       :     0.892835  s :     0.892835
      pz      :     0.022492  p :     0.079787
      px      :     0.014069
      py      :     0.043226
 86 H s       :     0.890965  s :     0.890965
      pz      :     0.024731  p :     0.078831
      px      :     0.032982
      py      :     0.021119
 87 H s       :     0.889883  s :     0.889883
      pz      :     0.048011  p :     0.078738
      px      :     0.015588
      py      :     0.015139
 88 H s       :     0.910685  s :     0.910685
      pz      :     0.021636  p :     0.087012
      px      :     0.042924
      py      :     0.022453
 89 H s       :     0.871378  s :     0.871378
      pz      :     0.037943  p :     0.083837
      px      :     0.030482
      py      :     0.015412


                      *****************************
                      * MAYER POPULATION ANALYSIS *
                      *****************************

  NA   - Mulliken gross atomic population
  ZA   - Total nuclear charge
  QA   - Mulliken gross atomic charge
  VA   - Mayer's total valence
  BVA  - Mayer's bonded valence
  FA   - Mayer's free valence

  ATOM       NA         ZA         QA         VA         BVA        FA
  0 C      5.7895     6.0000     0.2105     3.8435     3.8435     0.0000
  1 N      7.4562     7.0000    -0.4562     3.3361     3.3361    -0.0000
  2 C      6.0701     6.0000    -0.0701     3.9218     3.9218     0.0000
  3 N      7.3391     7.0000    -0.3391     3.4566     3.4566     0.0000
  4 C      6.0512     6.0000    -0.0512     4.0593     4.0593    -0.0000
  5 N      7.5662     7.0000    -0.5662     3.0948     3.0948    -0.0000
  6 C      6.1181     6.0000    -0.1181     3.9759     3.9759    -0.0000
  7 N      7.3406     7.0000    -0.3406     3.4333     3.4333    -0.0000
  8 C      5.7887     6.0000     0.2113     3.8461     3.8461    -0.0000
  9 N      7.5623     7.0000    -0.5623     3.0773     3.0773     0.0000
 10 C      5.8808     6.0000     0.1192     3.9091     3.9091     0.0000
 11 N      7.4384     7.0000    -0.4384     3.3782     3.3782     0.0000
 12 C      6.0740     6.0000    -0.0740     3.8792     3.8792    -0.0000
 13 N      7.4300     7.0000    -0.4300     3.4257     3.4257    -0.0000
 14 C      5.7726     6.0000     0.2274     3.7888     3.7888    -0.0000
 15 N      7.4410     7.0000    -0.4410     3.3722     3.3722     0.0000
 16 C      5.7707     6.0000     0.2293     3.7771     3.7771     0.0000
 17 C      6.1131     6.0000    -0.1131     3.9661     3.9661     0.0000
 18 C      6.1884     6.0000    -0.1884     3.7648     3.7648     0.0000
 19 C      5.7793     6.0000     0.2207     3.8649     3.8649     0.0000
 20 C      5.7867     6.0000     0.2133     3.8291     3.8291    -0.0000
 21 C      6.0823     6.0000    -0.0823     3.8626     3.8626    -0.0000
 22 C      6.0911     6.0000    -0.0911     3.9828     3.9828     0.0000
 23 C      6.0398     6.0000    -0.0398     3.9926     3.9926    -0.0000
 24 C      5.8060     6.0000     0.1940     3.8213     3.8213    -0.0000
 25 C      5.8854     6.0000     0.1146     3.8916     3.8916     0.0000
 26 C      6.0866     6.0000    -0.0866     3.9111     3.9111    -0.0000
 27 C      5.7860     6.0000     0.2140     3.8625     3.8625     0.0000
 28 C      6.0614     6.0000    -0.0614     3.9886     3.9886     0.0000
 29 C      6.1808     6.0000    -0.1808     3.7452     3.7452     0.0000
 30 C      5.7543     6.0000     0.2457     3.8006     3.8006    -0.0000
 31 C      5.7707     6.0000     0.2293     3.8177     3.8177     0.0000
 32 C      6.0619     6.0000    -0.0619     3.9229     3.9229    -0.0000
 33 C      6.0614     6.0000    -0.0614     3.9722     3.9722    -0.0000
 34 C      6.0511     6.0000    -0.0511     3.9840     3.9840    -0.0000
 35 C      5.7728     6.0000     0.2272     3.8170     3.8170     0.0000
 36 C      5.8915     6.0000     0.1085     3.8756     3.8756     0.0000
 37 C      6.0644     6.0000    -0.0644     3.9178     3.9178    -0.0000
 38 C      5.7686     6.0000     0.2314     3.8005     3.8005     0.0000
 39 C      6.0579     6.0000    -0.0579     3.9835     3.9835     0.0000
 40 C      6.1817     6.0000    -0.1817     3.7279     3.7279     0.0000
 41 C      5.7743     6.0000     0.2257     3.8867     3.8867     0.0000
 42 C      5.8024     6.0000     0.1976     3.8259     3.8259    -0.0000
 43 C      6.0724     6.0000    -0.0724     3.9001     3.9001    -0.0000
 44 C      6.0894     6.0000    -0.0894     3.9850     3.9850    -0.0000
 45 C      6.0610     6.0000    -0.0610     3.9922     3.9922    -0.0000
 46 C      5.7887     6.0000     0.2113     3.8284     3.8284    -0.0000
 47 C      5.8846     6.0000     0.1154     3.8929     3.8929     0.0000
 48 C      6.0672     6.0000    -0.0672     3.9094     3.9094    -0.0000
 49 C      5.7615     6.0000     0.2385     3.8935     3.8935    -0.0000
 50 C      6.0467     6.0000    -0.0467     3.9904     3.9904    -0.0000
 51 C      6.1926     6.0000    -0.1926     3.7361     3.7361    -0.0000
 52 H      0.9621     1.0000     0.0379     0.9859     0.9859    -0.0000
 53 H      1.0173     1.0000    -0.0173     0.9986     0.9986     0.0000
 54 H      0.9529     1.0000     0.0471     1.0171     1.0171    -0.0000
 55 H      0.9639     1.0000     0.0361     0.9866     0.9866    -0.0000
 56 H      0.9505     1.0000     0.0495     0.9695     0.9695    -0.0000
 57 H      0.9528     1.0000     0.0472     0.9827     0.9827     0.0000
 58 H      0.9523     1.0000     0.0477     0.9848     0.9848     0.0000
 59 H      1.0015     1.0000    -0.0015     1.0013     1.0013    -0.0000
 60 H      0.9509     1.0000     0.0491     1.0191     1.0191    -0.0000
 61 H      0.8288     1.0000     0.1712     1.0421     1.0421    -0.0000
 62 H      0.8246     1.0000     0.1754     1.0436     1.0436     0.0000
 63 H      0.9448     1.0000     0.0552     0.9853     0.9853     0.0000
 64 H      1.0142     1.0000    -0.0142     0.9933     0.9933    -0.0000
 65 H      0.9527     1.0000     0.0473     1.0097     1.0097     0.0000
 66 H      0.9443     1.0000     0.0557     0.9855     0.9855    -0.0000
 67 H      0.9377     1.0000     0.0623     0.9719     0.9719     0.0000
 68 H      0.9428     1.0000     0.0572     0.9868     0.9868     0.0000
 69 H      0.9436     1.0000     0.0564     0.9828     0.9828    -0.0000
 70 H      1.0302     1.0000    -0.0302     0.9938     0.9938     0.0000
 71 H      0.9553     1.0000     0.0447     1.0059     1.0059     0.0000
 72 H      0.9294     1.0000     0.0706     0.9836     0.9836     0.0000
 73 H      1.0082     1.0000    -0.0082     1.0009     1.0009     0.0000
 74 H      0.9402     1.0000     0.0598     1.0101     1.0101    -0.0000
 75 H      0.9299     1.0000     0.0701     0.9839     0.9839     0.0000
 76 H      0.9257     1.0000     0.0743     0.9721     0.9721     0.0000
 77 H      0.9325     1.0000     0.0675     0.9855     0.9855    -0.0000
 78 H      0.9332     1.0000     0.0668     0.9854     0.9854    -0.0000
 79 H      1.0165     1.0000    -0.0165     0.9976     0.9976     0.0000
 80 H      0.9393     1.0000     0.0607     1.0072     1.0072     0.0000
 81 H      0.9458     1.0000     0.0542     0.9856     0.9856    -0.0000
 82 H      1.0248     1.0000    -0.0248     0.9935     0.9935    -0.0000
 83 H      0.9580     1.0000     0.0420     1.0083     1.0083    -0.0000
 84 H      0.9458     1.0000     0.0542     0.9852     0.9852    -0.0000
 85 H      0.9391     1.0000     0.0609     0.9716     0.9716    -0.0000
 86 H      0.9444     1.0000     0.0556     0.9839     0.9839    -0.0000
 87 H      0.9428     1.0000     0.0572     0.9856     0.9856     0.0000
 88 H      1.0147     1.0000    -0.0147     0.9967     0.9967     0.0000
 89 H      0.9536     1.0000     0.0464     1.0075     1.0075    -0.0000

  Mayer bond orders larger than 0.100000
B(  0-C ,  1-N ) :   1.0913 B(  0-C , 17-C ) :   1.7123 B(  0-C , 52-H ) :   0.9649 
B(  1-N ,  8-C ) :   1.0929 B(  1-N , 10-C ) :   0.9773 B(  2-C , 12-C ) :   1.4990 
B(  2-C , 16-C ) :   1.3631 B(  2-C , 53-H ) :   0.9741 B(  3-N , 14-C ) :   1.2199 
B(  3-N , 16-C ) :   1.1859 B(  3-N , 61-H ) :   0.8989 B(  4-C ,  6-C ) :   1.2137 
B(  4-C , 17-C ) :   1.2118 B(  4-C , 18-C ) :   1.4538 B(  5-N , 19-C ) :   1.4548 
B(  5-N , 27-C ) :   1.3755 B(  6-C ,  8-C ) :   1.7082 B(  6-C , 54-H ) :   0.9382 
B(  7-N , 30-C ) :   1.1957 B(  7-N , 38-C ) :   1.1901 B(  7-N , 62-H ) :   0.8968 
B(  8-C , 55-H ) :   0.9659 B(  9-N , 41-C ) :   1.3945 B(  9-N , 49-C ) :   1.4251 
B( 10-C , 56-H ) :   0.9773 B( 10-C , 57-H ) :   0.9822 B( 10-C , 58-H ) :   0.9843 
B( 11-N , 20-C ) :   1.1307 B( 11-N , 24-C ) :   1.1073 B( 11-N , 25-C ) :   0.9602 
B( 12-C , 14-C ) :   1.3569 B( 12-C , 59-H ) :   0.9633 B( 13-N , 31-C ) :   1.1595 
B( 13-N , 35-C ) :   1.1579 B( 13-N , 36-C ) :   0.9423 B( 14-C , 18-C ) :   1.1250 
B( 15-N , 42-C ) :   1.1080 B( 15-N , 46-C ) :   1.1237 B( 15-N , 47-C ) :   0.9613 
B( 16-C , 51-C ) :   1.1695 B( 17-C , 60-H ) :   0.9285 B( 18-C , 19-C ) :   1.1269 
B( 19-C , 21-C ) :   1.2494 B( 20-C , 28-C ) :   1.6286 B( 20-C , 63-H ) :   0.9703 
B( 21-C , 26-C ) :   1.5942 B( 21-C , 64-H ) :   0.9513 B( 22-C , 23-C ) :   1.2890 
B( 22-C , 28-C ) :   1.2640 B( 22-C , 29-C ) :   1.2248 B( 23-C , 24-C ) :   1.6203 
B( 23-C , 65-H ) :   0.9703 B( 24-C , 66-H ) :   0.9695 B( 25-C , 67-H ) :   0.9760 
B( 25-C , 68-H ) :   0.9828 B( 25-C , 69-H ) :   0.9823 B( 26-C , 27-C ) :   1.2511 
B( 26-C , 70-H ) :   0.9694 B( 27-C , 29-C ) :   1.2091 B( 28-C , 71-H ) :   0.9720 
B( 29-C , 30-C ) :   1.2442 B( 30-C , 32-C ) :   1.2809 B( 31-C , 39-C ) :   1.5900 
B( 31-C , 72-H ) :   0.9682 B( 32-C , 37-C ) :   1.5778 B( 32-C , 73-H ) :   0.9786 
B( 33-C , 34-C ) :   1.3055 B( 33-C , 39-C ) :   1.3022 B( 33-C , 40-C ) :   1.1797 
B( 34-C , 35-C ) :   1.5875 B( 34-C , 74-H ) :   0.9697 B( 35-C , 75-H ) :   0.9682 
B( 36-C , 76-H ) :   0.9767 B( 36-C , 77-H ) :   0.9816 B( 36-C , 78-H ) :   0.9824 
B( 37-C , 38-C ) :   1.2865 B( 37-C , 79-H ) :   0.9765 B( 38-C , 40-C ) :   1.2324 
B( 39-C , 80-H ) :   0.9706 B( 40-C , 41-C ) :   1.2494 B( 41-C , 43-C ) :   1.1856 
B( 42-C , 50-C ) :   1.6332 B( 42-C , 81-H ) :   0.9697 B( 43-C , 48-C ) :   1.6671 
B( 43-C , 82-H ) :   0.9722 B( 44-C , 45-C ) :   1.2638 B( 44-C , 50-C ) :   1.2721 
B( 44-C , 51-C ) :   1.2606 B( 45-C , 46-C ) :   1.6346 B( 45-C , 83-H ) :   0.9718 
B( 46-C , 84-H ) :   0.9700 B( 47-C , 85-H ) :   0.9762 B( 47-C , 86-H ) :   0.9829 
B( 47-C , 87-H ) :   0.9824 B( 48-C , 49-C ) :   1.1891 B( 48-C , 88-H ) :   0.9748 
B( 49-C , 51-C ) :   1.2428 B( 50-C , 89-H ) :   0.9709 

-------
TIMINGS
-------

Total SCF time: 0 days 0 hours 28 min 40 sec 

Total time                  ....    1720.007 sec
Sum of individual times     ....    1715.215 sec  ( 99.7%)

Fock matrix formation       ....    1687.466 sec  ( 98.1%)
Diagonalization             ....       8.802 sec  (  0.5%)
Density matrix formation    ....       0.517 sec  (  0.0%)
Population analysis         ....       0.594 sec  (  0.0%)
Initial guess               ....       2.512 sec  (  0.1%)
Orbital Transformation      ....       0.000 sec  (  0.0%)
Orbital Orthonormalization  ....       0.000 sec  (  0.0%)
DIIS solution               ....       3.981 sec  (  0.2%)
SOSCF solution              ....      10.060 sec  (  0.6%)

Maximum memory used throughout the entire SCF-calculation: 302.6 MB


           ************************************************************
           *        Program running with 16 parallel MPI-processes    *
           *              working on a common directory               *
           ************************************************************

------------------------------------------------------------------------------
                                ORCA  MP2 
------------------------------------------------------------------------------

Freezing NCore=104 chemical core electrons

----------
MP2 ENERGY (disk based algorithm)
----------

Dimension of the basis                    ...  918
Memory devoted to MP2                     ... 2000 MB   
Data format for buffers                   ... DOUBLE
Compression type for matrix containers    ... UNCOMPRESSED

-------------------------------
PARTIAL EXCHANGE TRANSFORMATION
-------------------------------

Transformation type                        ... one-operator
Generation of integrals (i,mue|j,nue)      ... ON
Generation of integrals (mue,kappa|nue,tau)... OFF
Generation of integrals (i,mue|a,nue)      ... OFF
Dimension of the basis                     ...  918
Number of internal MOs                     ...  127 (  52- 178)
Pair cutoff                                ... 2.500e-12 Eh
Number of AO pairs in the trafo            ... 421821
Total Number of distinct AO pairs          ... 421821
Memory devoted for trafo                   ... 2000.0 MB 
Max. Number of MO pairs treated together   ...  311      
Number Format for Storage                  ... Double (8 Byte)
Integral package used                      ... LIBINT

Starting integral evaluation:
    ... done with AO integral generation
Closing buffer AOK     (38.31 GB; CompressionRatio= 1.32)
Collecting buffer AOK 
Number of MO pairs included in the trafo   ... 8128
------------------------
SORTING OF (i,mue|j,nue)
------------------------

IBATCH = 1 of  2
IBATCH = 2 of  2
Closing buffer KAO     (51.03 GB; CompressionRatio= 1.00)
Collecting buffer KAO 
N(AO-Batches) Done                         ...  86057044 
N(AO-Batches) Skipped                      ...  82243379 
N(IJ)-pairs Skipped                        ...         0 
TOTAL TIME for half transformation         ...  2547.004 sec
AO-integral generation                     ...   210.437 sec
Half transformation                        ...   422.832 sec
K-integral sorting                         ...  1687.068 sec
Process 10:   Internal MO 132
Process 13:   Internal MO 156

Finished integral transformation - now doing MP2 part

Process  1:   Internal MO  60
Process  4:   Internal MO  84
Process  7:   Internal MO 108
OPERATOR COMBINATION   0   0: ij=( 52..178, 52..178)
Process  2:   Internal MO  69
Process  0:   Internal MO  54
Process  1:   Internal MO  63
Process  0:   Internal MO  57
Process  3:   Internal MO  78
Process  1:   Internal MO  66
Process  8:   Internal MO 117
Process  6:   Internal MO 102
Process  2:   Internal MO  72
Process  5:   Internal MO  93
Process  4:   Internal MO  87
Process 11:   Internal MO 141
Process  9:   Internal MO 126
Process  2:   Internal MO  75
Process  3:   Internal MO  81
Process 14:   Internal MO 165
Process  7:   Internal MO 111
Process 15:   Internal MO 174
Process  4:   Internal MO  90
Process  5:   Internal MO  96
Process  6:   Internal MO 105
Process 12:   Internal MO 150
Process  8:   Internal MO 120
Process 10:   Internal MO 135
Process  9:   Internal MO 129
Process  5:   Internal MO  99
Process  7:   Internal MO 114
Process 11:   Internal MO 144
Process 13:   Internal MO 159
Process  8:   Internal MO 123
Process 14:   Internal MO 168
Process 12:   Internal MO 153
Process 15:   Internal MO 177
Process 10:   Internal MO 138
Process 11:   Internal MO 147
Process 13:   Internal MO 162
Process 14:   Internal MO 171
-----------------------------------------------
 MP2 CORRELATION ENERGY   :     -7.285452789 Eh
-----------------------------------------------


-------
TIMINGS
-------
Total time                : 2847.058 sec
Integral trafo            : 2549.637 sec ( 89.6%)
K(i,j)                    :    7.996 sec (  0.3%)
T(i,j)                    :    0.103 sec (  0.0%)

---------------------------------------
MP2 TOTAL ENERGY:    -2130.846601447 Eh
---------------------------------------

Maximum memory used throughout the entire MP2-calculation: 2275.3 MB

-------------------------   --------------------
FINAL SINGLE POINT ENERGY     -2130.846601446536
-------------------------   --------------------


                            ***************************************
                            *     ORCA property calculations      *
                            ***************************************


  WARNING: The energy has been calculated at the MP2 level but the densities
           used in the property calculations are still SCF densities
           MP2 response densities have not been calculated 
           use %mp2 Density relaxed end
           or  %mp2 Density unrelaxed end

                                    ---------------------
                                    Active property flags
                                    ---------------------
   (+) Dipole Moment


------------------------------------------------------------------------------
                       ORCA ELECTRIC PROPERTIES CALCULATION
------------------------------------------------------------------------------

Dipole Moment Calculation                       ... on
Quadrupole Moment Calculation                   ... off
Polarizability Calculation                      ... off
GBWName                                         ... /scratch/allen/tmpyp4_amber_gaff2/conf1/conf1/Conf204.orca.gbw
Electron density                                ... /scratch/allen/tmpyp4_amber_gaff2/conf1/conf1/Conf204.orca.scfp
The origin for moment calculation is the CENTER OF MASS  = ( 0.002864, -0.002113 -0.000732)

-------------
DIPOLE MOMENT
-------------
                                X             Y             Z
Electronic contribution:      2.57780      -4.17910      -0.17747
Nuclear contribution   :      0.07641       0.23864       0.17512
                        -----------------------------------------
Total Dipole Moment    :      2.65421      -3.94046      -0.00235
                        -----------------------------------------
Magnitude (a.u.)       :      4.75101
Magnitude (Debye)      :     12.07610



--------------------
Rotational spectrum 
--------------------
 
Rotational constants in cm-1:     0.001501     0.001479     0.000760 
Rotational constants in MHz :    44.994998    44.335615    22.791626 

 Dipole components along the rotational axes: 
x,y,z [a.u.] :     3.394968     3.323591    -0.002240 
x,y,z [Debye]:     8.629323     8.447898    -0.005694 

 

Timings for individual modules:

Sum of individual times         ...     4588.385 sec (=  76.473 min)
GTO integral calculation        ...        3.645 sec (=   0.061 min)   0.1 %
SCF iterations                  ...     1721.225 sec (=  28.687 min)  37.5 %
MP2 module                      ...     2863.514 sec (=  47.725 min)  62.4 %
                             ****ORCA TERMINATED NORMALLY****
TOTAL RUN TIME: 0 days 1 hours 16 minutes 31 seconds 778 msec
# of primitive gaussian functions

