
                                 *****************
                                 * O   R   C   A *
                                 *****************

                                            #,                                       
                                            ###                                      
                                            ####                                     
                                            #####                                    
                                            ######                                   
                                           ########,                                 
                                     ,,################,,,,,                         
                               ,,#################################,,                 
                          ,,##########################################,,             
                       ,#########################################, ''#####,          
                    ,#############################################,,   '####,        
                  ,##################################################,,,,####,       
                ,###########''''           ''''###############################       
              ,#####''   ,,,,##########,,,,          '''####'''          '####       
            ,##' ,,,,###########################,,,                        '##       
           ' ,,###''''                  '''############,,,                           
         ,,##''                                '''############,,,,        ,,,,,,###''
      ,#''                                            '''#######################'''  
     '                                                          ''''####''''         
             ,#######,   #######,   ,#######,      ##                                
            ,#'     '#,  ##    ##  ,#'     '#,    #''#        ######   ,####,        
            ##       ##  ##   ,#'  ##            #'  '#       #        #'  '#        
            ##       ##  #######   ##           ,######,      #####,   #    #        
            '#,     ,#'  ##    ##  '#,     ,#' ,#      #,         ##   #,  ,#        
             '#######'   ##     ##  '#######'  #'      '#     #####' # '####'        



                  #######################################################
                  #                        -***-                        #
                  #          Department of theory and spectroscopy      #
                  #    Directorship and core code : Frank Neese         #
                  #        Max Planck Institute fuer Kohlenforschung    #
                  #                Kaiser Wilhelm Platz 1               #
                  #                 D-45470 Muelheim/Ruhr               #
                  #                      Germany                        #
                  #                                                     #
                  #                  All rights reserved                #
                  #                        -***-                        #
                  #######################################################


                         Program Version 5.0.4 -  RELEASE  -


 With contributions from (in alphabetic order):
   Daniel Aravena         : Magnetic Suceptibility
   Michael Atanasov       : Ab Initio Ligand Field Theory (pilot matlab implementation)
   Alexander A. Auer      : GIAO ZORA, VPT2 properties, NMR spectrum
   Ute Becker             : Parallelization
   Giovanni Bistoni       : ED, misc. LED, open-shell LED, HFLD
   Martin Brehm           : Molecular dynamics
   Dmytro Bykov           : SCF Hessian
   Vijay G. Chilkuri      : MRCI spin determinant printing, contributions to CSF-ICE
   Dipayan Datta          : RHF DLPNO-CCSD density
   Achintya Kumar Dutta   : EOM-CC, STEOM-CC
   Dmitry Ganyushin       : Spin-Orbit,Spin-Spin,Magnetic field MRCI
   Miquel Garcia          : C-PCM and meta-GGA Hessian, CC/C-PCM, Gaussian charge scheme
   Yang Guo               : DLPNO-NEVPT2, F12-NEVPT2, CIM, IAO-localization
   Andreas Hansen         : Spin unrestricted coupled pair/coupled cluster methods
   Benjamin Helmich-Paris : MC-RPA, TRAH-SCF, COSX integrals
   Lee Huntington         : MR-EOM, pCC
   Robert Izsak           : Overlap fitted RIJCOSX, COSX-SCS-MP3, EOM
   Marcus Kettner         : VPT2
   Christian Kollmar      : KDIIS, OOCD, Brueckner-CCSD(T), CCSD density, CASPT2, CASPT2-K
   Simone Kossmann        : Meta GGA functionals, TD-DFT gradient, OOMP2, MP2 Hessian
   Martin Krupicka        : Initial AUTO-CI
   Lucas Lang             : DCDCAS
   Marvin Lechner         : AUTO-CI (C++ implementation), FIC-MRCC
   Dagmar Lenk            : GEPOL surface, SMD
   Dimitrios Liakos       : Extrapolation schemes; Compound Job, initial MDCI parallelization
   Dimitrios Manganas     : Further ROCIS development; embedding schemes
   Dimitrios Pantazis     : SARC Basis sets
   Anastasios Papadopoulos: AUTO-CI, single reference methods and gradients
   Taras Petrenko         : DFT Hessian,TD-DFT gradient, ASA, ECA, R-Raman, ABS, FL, XAS/XES, NRVS
   Peter Pinski           : DLPNO-MP2, DLPNO-MP2 Gradient
   Christoph Reimann      : Effective Core Potentials
   Marius Retegan         : Local ZFS, SOC
   Christoph Riplinger    : Optimizer, TS searches, QM/MM, DLPNO-CCSD(T), (RO)-DLPNO pert. Triples
   Tobias Risthaus        : Range-separated hybrids, TD-DFT gradient, RPA, STAB
   Michael Roemelt        : Original ROCIS implementation
   Masaaki Saitow         : Open-shell DLPNO-CCSD energy and density
   Barbara Sandhoefer     : DKH picture change effects
   Avijit Sen             : IP-ROCIS
   Kantharuban Sivalingam : CASSCF convergence, NEVPT2, FIC-MRCI
   Bernardo de Souza      : ESD, SOC TD-DFT
   Georgi Stoychev        : AutoAux, RI-MP2 NMR, DLPNO-MP2 response
   Willem Van den Heuvel  : Paramagnetic NMR
   Boris Wezisla          : Elementary symmetry handling
   Frank Wennmohs         : Technical directorship


 We gratefully acknowledge several colleagues who have allowed us to
 interface, adapt or use parts of their codes:
   Stefan Grimme, W. Hujo, H. Kruse, P. Pracht,  : VdW corrections, initial TS optimization,
                  C. Bannwarth, S. Ehlert          DFT functionals, gCP, sTDA/sTD-DF
   Ed Valeev, F. Pavosevic, A. Kumar             : LibInt (2-el integral package), F12 methods
   Garnet Chan, S. Sharma, J. Yang, R. Olivares  : DMRG
   Ulf Ekstrom                                   : XCFun DFT Library
   Mihaly Kallay                                 : mrcc  (arbitrary order and MRCC methods)
   Jiri Pittner, Ondrej Demel                    : Mk-CCSD
   Frank Weinhold                                : gennbo (NPA and NBO analysis)
   Christopher J. Cramer and Donald G. Truhlar   : smd solvation model
   Lars Goerigk                                  : TD-DFT with DH, B97 family of functionals
   V. Asgeirsson, H. Jonsson                     : NEB implementation
   FAccTs GmbH                                   : IRC, NEB, NEB-TS, DLPNO-Multilevel, CI-OPT
                                                   MM, QMMM, 2- and 3-layer-ONIOM, Crystal-QMMM,
                                                   LR-CPCM, SF, NACMEs, symmetry and pop. for TD-DFT,
                                                   nearIR, NL-DFT gradient (VV10), updates on ESD,
                                                   ML-optimized integration grids
   S Lehtola, MJT Oliveira, MAL Marques          : LibXC Library
   Liviu Ungur et al                             : ANISO software


 Your calculation uses the libint2 library for the computation of 2-el integrals
 For citations please refer to: http://libint.valeyev.net

 Your ORCA version has been built with support for libXC version: 5.1.0
 For citations please refer to: https://tddft.org/programs/libxc/

 This ORCA versions uses:
   CBLAS   interface :  Fast vector & matrix operations
   LAPACKE interface :  Fast linear algebra routines
   SCALAPACK package :  Parallel linear algebra routines
   Shared memory     :  Shared parallel matrices
   BLAS/LAPACK       :  OpenBLAS 0.3.15  USE64BITINT DYNAMIC_ARCH NO_AFFINITY Sandybridge SINGLE_THREADED
        Core in use  :  Sandybridge
   Copyright (c) 2011-2014, The OpenBLAS Project


================================================================================

----- Orbital basis set information -----
Your calculation utilizes the basis: cc-pVDZ 
       H, B-Ne : Obtained from the ccRepo (grant-hill.group.shef.ac.uk/ccrepo) Feb. 2017
                 T. H. Dunning, Jr., J. Chem. Phys. 90, 1007 (1989)
            He : Obtained from the ccRepo (grant-hill.group.shef.ac.uk/ccrepo) Feb. 2017
                 D. E. Woon, T. H. Dunning, Jr., J. Chem. Phys. 100, 2975 (1994)
  Li-Be, Na-Mg : Obtained from the ccRepo (grant-hill.group.shef.ac.uk/ccrepo) Feb. 2017
                 B. P. Prascher, D. E. Woon, K. A. Peterson, T. H. Dunning, Jr., A. K. Wilson, Theor. Chem. Acc. 128, 69 (2011)
         Al-Ar : Obtained from the ccRepo (grant-hill.group.shef.ac.uk/ccrepo) Feb. 2017
                 D. E. Woon, T. H. Dunning, Jr., J. Chem. Phys. 98, 1358 (1993)
            Ca : Obtained from the Peterson Research Group Website (tyr0.chem.wsu.edu/~kipeters) Feb. 2017
                 J. Koput, K. A. Peterson, J. Phys. Chem. 106, 9595 (2002)
         Sc-Zn : Obtained from the ccRepo (grant-hill.group.shef.ac.uk/ccrepo) Feb. 2017
                 N. B. Balabanov, K. A. Peterson, J. Chem. Phys. 123, 064107 (2005)
                 N. B. Balabanov, K. A. Peterson, J. Chem. Phys. 125, 074110 (2006)
         Ga-Kr : Obtained from the ccRepo (grant-hill.group.shef.ac.uk/ccrepo) Feb. 2017
                 A. K. Wilson, D. E. Woon, K. A. Peterson, T. H. Dunning, Jr., J. Chem. Phys. 110, 7667 (1999)

================================================================================
                                        WARNINGS
                       Please study these warnings very carefully!
================================================================================


WARNING: No MP2 level density has been requested!
         To caclulate MP2 level properties use
         %mp2 Density relaxed end
         or
         %mp2 Density unrelaxed end

WARNING: Post HF methods need fully converged wavefunctions
  ===> : Setting SCFConvForced true
         You can overwrite this default with %scf ConvForced false 


INFO   : the flag for use of the SHARK integral package has been found!

================================================================================
                                       INPUT FILE
================================================================================
NAME = /scratch/allen/tmpyp4_amber_gaff2/2.Mdgx/conf11/conf11/Conf79.orca
|  1> ! PAL2
|  2> ! mp2 cc-pvdz TightSCF  NoKeepInts
|  3> 
|  4> %scf
|  5>   MaxCore 2000
|  6> end
|  7> %mp2
|  8>   MaxCore 2000
|  9> end
| 10> * xyz 0 1
| 11>    C       -3.78300         6.00600        -1.04800
| 12>    C        1.47400         4.04100         0.05700
| 13>    C       -2.80200         4.09300         0.04900
| 14>    C       -3.41400         4.52400         1.23600
| 15>    C       -4.18600         5.66900         1.24200
| 16>    C       -5.22200         7.59500         0.14400
| 17>    C        0.13200         4.30700         0.06100
| 18>    C       -0.56900         3.05600         0.04700
| 19>    C        1.64900         2.61800         0.02300
| 20>    C       -3.00700         4.86400        -1.10500
| 21>    N       -4.35900         6.39400         0.11300
| 22>    N        0.38800         2.06700         0.02500
| 23>    N       -2.01000         0.39500        -0.07500
| 24>    N       -0.38800        -2.07400        -0.02700
| 25>    N        2.01000        -0.40100         0.06500
| 26>    C       -1.96000         2.86100         0.02400
| 27>    C       -2.62300         1.61500        -0.01800
| 28>    C       -5.57300        -4.32900         1.06600
| 29>    C       -4.07300         1.47100         0.05600
| 30>    C       -4.10600        -2.75600        -0.02600
| 31>    C       -4.99500        -2.75700        -1.11100
| 32>    C       -6.13200        -3.54200        -1.07600
| 33>    C       -7.65100        -5.11300         0.04000
| 34>    C       -4.32400         0.14100         0.03700
| 35>    C       -3.02500        -0.52000        -0.04800
| 36>    C       -4.42200        -3.56600         1.07500
| 37>    N       -6.40700        -4.31300         0.00100
| 38>    C       -2.86700        -1.92200        -0.04000
| 39>    C       -1.65000        -2.62400        -0.02700
| 40>    C        3.56800        -6.14200        -1.04000
| 41>    C       -1.47600        -4.04900        -0.03400
| 42>    C        2.80300        -4.09900        -0.00800
| 43>    C        3.65700        -4.38400         1.06900
| 44>    C        4.42700        -5.53000         1.05900
| 45>    C        5.24500        -7.58800         0.01400
| 46>    C       -0.13400        -4.31500        -0.02200
| 47>    C        0.56800        -3.06400        -0.02700
| 48>    C        2.77500        -5.01200        -1.07400
| 49>    N        4.37600        -6.39100         0.01700
| 50>    C        1.95900        -2.86900        -0.00900
| 51>    C        2.62100        -1.62200         0.00900
| 52>    C        5.54300         4.33900        -1.13000
| 53>    C        4.07000        -1.47900        -0.09400
| 54>    C        4.10400         2.75100        -0.02100
| 55>    C        5.02700         2.72900         1.03600
| 56>    C        6.16600         3.50900         0.97800
| 57>    C        7.61900         5.15300        -0.11500
| 58>    C        4.32100        -0.14800        -0.09200
| 59>    C        3.02500         0.51400         0.01500
| 60>    C        4.38700         3.58200        -1.11500
| 61>    C        2.86600         1.91600         0.01300
| 62>    N        6.41300         4.29600        -0.09500
| 63>    H       -3.95800         6.63800        -1.91000
| 64>    H        2.27400         4.76600         0.08100
| 65>    H       -3.30200         3.96600         2.15800
| 66>    H       -4.68400         6.03500         2.13000
| 67>    H       -6.25900         7.29200        -0.01700
| 68>    H       -5.11900         8.07700         1.11600
| 69>    H       -4.90500         8.27600        -0.64600
| 70>    H       -0.33200         5.28200         0.06900
| 71>    H       -2.54900         4.59200        -2.05000
| 72>    H        0.18200         1.07200         0.00500
| 73>    H       -0.18300        -1.08000        -0.02100
| 74>    H       -5.86400        -4.96200         1.89500
| 75>    H       -4.79400         2.27200         0.13900
| 76>    H       -4.80000        -2.16000        -1.99400
| 77>    H       -6.84100        -3.58200        -1.89300
| 78>    H       -8.42800        -4.53600         0.54600
| 79>    H       -7.95600        -5.33700        -0.98100
| 80>    H       -7.45600        -6.03700         0.58400
| 81>    H       -5.28700        -0.34400         0.10000
| 82>    H       -3.78000        -3.60100         1.94700
| 83>    H        3.58700        -6.86800        -1.84300
| 84>    H       -2.27600        -4.77400        -0.05000
| 85>    H        3.71400        -3.72400         1.92600
| 86>    H        5.09200        -5.79500         1.87100
| 87>    H        6.20500        -7.32900        -0.43900
| 88>    H        5.39300        -7.91700         1.04200
| 89>    H        4.75900        -8.37300        -0.56400
| 90>    H        0.32900        -5.29000        -0.00800
| 91>    H        2.14600        -4.84200        -1.94000
| 92>    H        5.80800         4.98600        -1.95600
| 93>    H        4.78800        -2.28100        -0.18500
| 94>    H        4.86000         2.11400         1.91200
| 95>    H        6.90100         3.53100         1.77200
| 96>    H        7.38300         6.10900         0.35600
| 97>    H        8.41400         4.65200         0.43500
| 98>    H        7.92100         5.31000        -1.15000
| 99>    H        5.28300         0.33600        -0.17900
|100>    H        3.72000         3.63200        -1.96700
|101> *
|102> 
|103>                          ****END OF INPUT****
================================================================================

                       ****************************
                       * Single Point Calculation *
                       ****************************

---------------------------------
CARTESIAN COORDINATES (ANGSTROEM)
---------------------------------
  C     -3.783000    6.006000   -1.048000
  C      1.474000    4.041000    0.057000
  C     -2.802000    4.093000    0.049000
  C     -3.414000    4.524000    1.236000
  C     -4.186000    5.669000    1.242000
  C     -5.222000    7.595000    0.144000
  C      0.132000    4.307000    0.061000
  C     -0.569000    3.056000    0.047000
  C      1.649000    2.618000    0.023000
  C     -3.007000    4.864000   -1.105000
  N     -4.359000    6.394000    0.113000
  N      0.388000    2.067000    0.025000
  N     -2.010000    0.395000   -0.075000
  N     -0.388000   -2.074000   -0.027000
  N      2.010000   -0.401000    0.065000
  C     -1.960000    2.861000    0.024000
  C     -2.623000    1.615000   -0.018000
  C     -5.573000   -4.329000    1.066000
  C     -4.073000    1.471000    0.056000
  C     -4.106000   -2.756000   -0.026000
  C     -4.995000   -2.757000   -1.111000
  C     -6.132000   -3.542000   -1.076000
  C     -7.651000   -5.113000    0.040000
  C     -4.324000    0.141000    0.037000
  C     -3.025000   -0.520000   -0.048000
  C     -4.422000   -3.566000    1.075000
  N     -6.407000   -4.313000    0.001000
  C     -2.867000   -1.922000   -0.040000
  C     -1.650000   -2.624000   -0.027000
  C      3.568000   -6.142000   -1.040000
  C     -1.476000   -4.049000   -0.034000
  C      2.803000   -4.099000   -0.008000
  C      3.657000   -4.384000    1.069000
  C      4.427000   -5.530000    1.059000
  C      5.245000   -7.588000    0.014000
  C     -0.134000   -4.315000   -0.022000
  C      0.568000   -3.064000   -0.027000
  C      2.775000   -5.012000   -1.074000
  N      4.376000   -6.391000    0.017000
  C      1.959000   -2.869000   -0.009000
  C      2.621000   -1.622000    0.009000
  C      5.543000    4.339000   -1.130000
  C      4.070000   -1.479000   -0.094000
  C      4.104000    2.751000   -0.021000
  C      5.027000    2.729000    1.036000
  C      6.166000    3.509000    0.978000
  C      7.619000    5.153000   -0.115000
  C      4.321000   -0.148000   -0.092000
  C      3.025000    0.514000    0.015000
  C      4.387000    3.582000   -1.115000
  C      2.866000    1.916000    0.013000
  N      6.413000    4.296000   -0.095000
  H     -3.958000    6.638000   -1.910000
  H      2.274000    4.766000    0.081000
  H     -3.302000    3.966000    2.158000
  H     -4.684000    6.035000    2.130000
  H     -6.259000    7.292000   -0.017000
  H     -5.119000    8.077000    1.116000
  H     -4.905000    8.276000   -0.646000
  H     -0.332000    5.282000    0.069000
  H     -2.549000    4.592000   -2.050000
  H      0.182000    1.072000    0.005000
  H     -0.183000   -1.080000   -0.021000
  H     -5.864000   -4.962000    1.895000
  H     -4.794000    2.272000    0.139000
  H     -4.800000   -2.160000   -1.994000
  H     -6.841000   -3.582000   -1.893000
  H     -8.428000   -4.536000    0.546000
  H     -7.956000   -5.337000   -0.981000
  H     -7.456000   -6.037000    0.584000
  H     -5.287000   -0.344000    0.100000
  H     -3.780000   -3.601000    1.947000
  H      3.587000   -6.868000   -1.843000
  H     -2.276000   -4.774000   -0.050000
  H      3.714000   -3.724000    1.926000
  H      5.092000   -5.795000    1.871000
  H      6.205000   -7.329000   -0.439000
  H      5.393000   -7.917000    1.042000
  H      4.759000   -8.373000   -0.564000
  H      0.329000   -5.290000   -0.008000
  H      2.146000   -4.842000   -1.940000
  H      5.808000    4.986000   -1.956000
  H      4.788000   -2.281000   -0.185000
  H      4.860000    2.114000    1.912000
  H      6.901000    3.531000    1.772000
  H      7.383000    6.109000    0.356000
  H      8.414000    4.652000    0.435000
  H      7.921000    5.310000   -1.150000
  H      5.283000    0.336000   -0.179000
  H      3.720000    3.632000   -1.967000

----------------------------
CARTESIAN COORDINATES (A.U.)
----------------------------
  NO LB      ZA    FRAG     MASS         X           Y           Z
   0 C     6.0000    0    12.011   -7.148834   11.349695   -1.980433
   1 C     6.0000    0    12.011    2.785456    7.636383    0.107714
   2 C     6.0000    0    12.011   -5.295013    7.734649    0.092597
   3 C     6.0000    0    12.011   -6.451525    8.549121    2.335702
   4 C     6.0000    0    12.011   -7.910394   10.712857    2.347040
   5 C     6.0000    0    12.011   -9.868150   14.352470    0.272121
   6 C     6.0000    0    12.011    0.249444    8.139050    0.115273
   7 C     6.0000    0    12.011   -1.075254    5.775003    0.088817
   8 C     6.0000    0    12.011    3.116158    4.947303    0.043464
   9 C     6.0000    0    12.011   -5.682406    9.191628   -2.088147
  10 N     7.0000    0    14.007   -8.237316   12.082909    0.213539
  11 N     7.0000    0    14.007    0.733214    3.906064    0.047243
  12 N     7.0000    0    14.007   -3.798350    0.746442   -0.141729
  13 N     7.0000    0    14.007   -0.733214   -3.919292   -0.051023
  14 N     7.0000    0    14.007    3.798350   -0.757780    0.122832
  15 C     6.0000    0    12.011   -3.703863    5.406506    0.045353
  16 C     6.0000    0    12.011   -4.956752    3.051908   -0.034015
  17 C     6.0000    0    12.011  -10.531444   -8.180624    2.014448
  18 C     6.0000    0    12.011   -7.696855    2.779787    0.105825
  19 C     6.0000    0    12.011   -7.759216   -5.208085   -0.049133
  20 C     6.0000    0    12.011   -9.439182   -5.209975   -2.099486
  21 C     6.0000    0    12.011  -11.587801   -6.693410   -2.033345
  22 C     6.0000    0    12.011  -14.458295   -9.662170    0.075589
  23 C     6.0000    0    12.011   -8.171176    0.266451    0.069920
  24 C     6.0000    0    12.011   -5.716422   -0.982658   -0.090707
  25 C     6.0000    0    12.011   -8.356369   -6.738763    2.031456
  26 N     7.0000    0    14.007  -12.107475   -8.150389    0.001890
  27 C     6.0000    0    12.011   -5.417845   -3.632054   -0.075589
  28 C     6.0000    0    12.011   -3.118048   -4.958641   -0.051023
  29 C     6.0000    0    12.011    6.742543  -11.606698   -1.965315
  30 C     6.0000    0    12.011   -2.789236   -7.651501   -0.064251
  31 C     6.0000    0    12.011    5.296902   -7.745987   -0.015118
  32 C     6.0000    0    12.011    6.910728   -8.284559    2.020117
  33 C     6.0000    0    12.011    8.365818  -10.450186    2.001220
  34 C     6.0000    0    12.011    9.911614  -14.339242    0.026456
  35 C     6.0000    0    12.011   -0.253223   -8.154168   -0.041574
  36 C     6.0000    0    12.011    1.073364   -5.790121   -0.051023
  37 C     6.0000    0    12.011    5.243990   -9.471307   -2.029566
  38 N     7.0000    0    14.007    8.269442  -12.077240    0.032125
  39 C     6.0000    0    12.011    3.701973   -5.421624   -0.017008
  40 C     6.0000    0    12.011    4.952972   -3.065136    0.017008
  41 C     6.0000    0    12.011   10.474752    8.199522   -2.135391
  42 C     6.0000    0    12.011    7.691185   -2.794905   -0.177634
  43 C     6.0000    0    12.011    7.755436    5.198637   -0.039684
  44 C     6.0000    0    12.011    9.499653    5.157063    1.957756
  45 C     6.0000    0    12.011   11.652051    6.631049    1.848152
  46 C     6.0000    0    12.011   14.397823    9.737759   -0.217319
  47 C     6.0000    0    12.011    8.165507   -0.279679   -0.173855
  48 C     6.0000    0    12.011    5.716422    0.971319    0.028346
  49 C     6.0000    0    12.011    8.290229    6.768999   -2.107045
  50 C     6.0000    0    12.011    5.415955    3.620715    0.024566
  51 N     7.0000    0    14.007   12.118814    8.118263   -0.179524
  52 H     1.0000    0     1.008   -7.479536   12.544002   -3.609377
  53 H     1.0000    0     1.008    4.297237    9.006435    0.153068
  54 H     1.0000    0     1.008   -6.239876    7.494654    4.078029
  55 H     1.0000    0     1.008   -8.851477   11.404497    4.025117
  56 H     1.0000    0     1.008  -11.827796   13.779883   -0.032125
  57 H     1.0000    0     1.008   -9.673508   15.263318    2.108934
  58 H     1.0000    0     1.008   -9.269107   15.639373   -1.220763
  59 H     1.0000    0     1.008   -0.627389    9.981533    0.130391
  60 H     1.0000    0     1.008   -4.816912    8.677622   -3.873939
  61 H     1.0000    0     1.008    0.343930    2.025786    0.009449
  62 H     1.0000    0     1.008   -0.345820   -2.040904   -0.039684
  63 H     1.0000    0     1.008  -11.081354   -9.376821    3.581031
  64 H     1.0000    0     1.008   -9.059347    4.293458    0.262672
  65 H     1.0000    0     1.008   -9.070685   -4.081808   -3.768114
  66 H     1.0000    0     1.008  -12.927616   -6.768999   -3.577252
  67 H     1.0000    0     1.008  -15.926612   -8.571798    1.031790
  68 H     1.0000    0     1.008  -15.034661  -10.085468   -1.853821
  69 H     1.0000    0     1.008  -14.089798  -11.408277    1.103600
  70 H     1.0000    0     1.008   -9.990982   -0.650066    0.188973
  71 H     1.0000    0     1.008   -7.143165   -6.804904    3.679297
  72 H     1.0000    0     1.008    6.778448  -12.978639   -3.482765
  73 H     1.0000    0     1.008   -4.301017   -9.021553   -0.094486
  74 H     1.0000    0     1.008    7.018443   -7.037340    3.639613
  75 H     1.0000    0     1.008    9.622485  -10.950963    3.535678
  76 H     1.0000    0     1.008   11.725751  -13.849803   -0.829590
  77 H     1.0000    0     1.008   10.191293  -14.960962    1.969095
  78 H     1.0000    0     1.008    8.993207  -15.822677   -1.065806
  79 H     1.0000    0     1.008    0.621720   -9.996651   -0.015118
  80 H     1.0000    0     1.008    4.055352   -9.150054   -3.666069
  81 H     1.0000    0     1.008   10.975529    9.422175   -3.696304
  82 H     1.0000    0     1.008    9.048009   -4.310465   -0.349599
  83 H     1.0000    0     1.008    9.184069    3.994881    3.613156
  84 H     1.0000    0     1.008   13.041000    6.672623    3.348595
  85 H     1.0000    0     1.008   13.951848   11.544337    0.672743
  86 H     1.0000    0     1.008   15.900156    8.791006    0.822031
  87 H     1.0000    0     1.008   14.968521   10.034446   -2.173185
  88 H     1.0000    0     1.008    9.983423    0.634948   -0.338261
  89 H     1.0000    0     1.008    7.029781    6.863485   -3.717091

--------------------------------
INTERNAL COORDINATES (ANGSTROEM)
--------------------------------
 C      0   0   0     0.000000000000     0.00000000     0.00000000
 C      1   0   0     5.719991171322     0.00000000     0.00000000
 C      1   2   0     2.413573906057    42.80763316     0.00000000
 C      3   1   2     1.403308234138    87.92328922   117.76299380
 C      4   3   1     1.380958000810   120.14096481     0.16328925
 C      5   4   3     2.447115853408   152.53458407     1.56299451
 C      2   1   3     1.368114030335    14.59247678   337.79326981
 C      7   2   3     1.434084376876   108.05010202     0.84668783
 C      2   1   3     1.434123425651   116.64339731    35.20567683
 C      1   2   3     1.381878793527    37.62429263   313.09854450
 N      5   4   3     1.352846998001   120.81056110   359.66040997
 N      9   2   1     1.376127174356   106.58526707   346.32371410
 N     12   9   2     2.925062050624   168.53581413   171.12065651
 N     13  12   9     2.954513327098    91.55032014    11.12112580
 N     14  13  12     2.925371258490    88.43092389   359.84326247
 C      8   7   2     1.404790019896   127.24786865   181.11170171
 C     13  12   9     1.366535034311    81.72106996   188.00453233
 C     14  13  12     5.758810554272    80.56209567   166.76250791
 C     17  13  12     1.459010623676   111.08861209   183.82872609
 C     18  14  13     2.412235892279    27.27532823    36.33507194
 C     20  18  14     1.402692767501    87.95206320   148.94598259
 C     21  20  18     1.382106725257   120.14573887   359.70382047
 C     18  14  13     2.446510985056   144.15733107    82.80075377
 C     19  17  13     1.353610726908   106.29293361   359.75308708
 C     13  12   9     1.366813447402   172.21332906    33.46711076
 C     18  14  13     1.380960173213    15.08449437   309.23336894
 N     22  21  20     1.352773077792   120.73759875     0.27865223
 C     25  13  17     1.410897586645   125.60330303   182.37774668
 C     14  13  12     1.376642291955    80.24689249   177.85461986
 C     14  13  12     5.764089607215   164.51507311   312.20821879
 C     29  14  13     1.435600919476   106.58649366   178.76395472
 C     30  14  13     2.413316804732    27.10625047    82.12560436
 C     32  30  14     1.403734305344    87.90059683   149.76154742
 C     33  32  30     1.380694028378   120.14881443   359.74174632
 C     34  33  32     2.448777858443   152.49203239     2.45173620
 C     31  29  14     1.368160809262   108.16950133     0.70383075
 C     14  13  12     1.376239804685   169.26375223   353.09862627
 C     30  14  13     1.380907310430    14.68948582   353.70041132
 N     34  33  32     1.352658863128   120.85575621     0.19603406
 C     37  14  29     1.404717053360   126.01551127   180.90772073
 C     15  14  13     1.366491126938    81.61824056   183.09049352
 C      2   1   3     4.249062720177   143.32640035   160.15125512
 C     41  15  14     1.459677704153   111.05201287   175.08990246
 C     42   2   1     2.412953791518    41.78584867   203.55513403
 C     44  42   2     1.403446472082    87.95153797   233.97558675
 C     45  44  42     1.381696421071   120.11137308     0.19721020
 C     42   2   1     2.450019795838   135.97209175   113.86998313
 C     43  41  15     1.354461516618   106.26758155     0.30894352
 C     15  14  13     1.367461151185   171.87382904   332.35056460
 C     42   2   1     1.381886391857    32.59078432   252.41041322
 C      9   2   1     1.404988612053   126.98745415   167.32805163
 N     42   2   1     1.352765315936   113.57249190   141.60657232
 H      1   2   3     1.083094178731   120.17871862   207.49240902
 H      2   1   3     1.079907866440   117.03297265   203.67458979
 H      4   3   1     1.083509113944   121.09931736   179.49823165
 H      5   4   3     1.081898331637   122.77771657   179.44693181
 H      6   5   4     1.092290712219   104.46182821   100.12443182
 H      6   5   4     1.089824297765    84.71539542   209.56243539
 H      6   5   4     1.090114672867   133.92592950   322.42837907
 H      7   2  54     1.079807853278   126.66122480     1.30600390
 H     10   1   2     1.084791685071   118.70076979   262.00421042
 H     12   9   2     1.016297692608   125.29023241   180.00180175
 H     14  13  12     1.014936943854    44.97226959   359.42596618
 H     18  14  13     1.082871645210   128.03556573   234.20482432
 H     19  17  13     1.080893611786   126.41830519   178.11313280
 H     21  20  18     1.083569563987   121.05669627   180.67006309
 H     22  21  20     1.082483256222   122.73097286   180.59748951
 H     23  18  14     1.092105306278   103.92715769   234.93429879
 H     23  18  14     1.088871893291   134.19244188    12.25587044
 H     23  18  14     1.089833473518    84.85857450   125.45241208
 H     24  19  17     1.080075460327   127.28078426   178.44613241
 H     26  18  14     1.083408048706   118.76995697   244.94906660
 H     30  14  13     1.082703098730   127.99711412   279.66882698
 H     31  29  14     1.079759695488   125.22293469   180.92530585
 H     33  32  30     1.083188810873   121.01964473   180.74284758
 H     34  33  32     1.082494341787   122.70821597   180.59516895
 H     35  34  33     1.092652735319   105.73575241    97.19771933
 H     35  34  33     1.089462711615    84.05943581   206.43036958
 H     35  34  33     1.089268102902   133.08365142   318.50306270
 H     36  31  29     1.079439669458   126.61599965   178.98859863
 H     38  30  73     1.083742127999   118.77264435   359.90091293
 H     42   2   1     1.082178358682   119.31790784   358.23810278
 H     43  41  15     1.080281907652   126.36969097   182.06329380
 H     45  44  42     1.083277434455   121.10105945   179.58025624
 H     46  45  44     1.082194529648   122.72144639   179.46906377
 H     47  42   2     1.091546151109   106.65128841   315.16475048
 H     47  42   2     1.088818625851   132.46019523    94.52397119
 H     47  42   2     1.089531091801    83.63838232   206.04504406
 H     48  43  41     1.080402239909   127.23657387   181.62955349
 H     50  42   2     1.083186502870   118.77001737    94.71359229

---------------------------
INTERNAL COORDINATES (A.U.)
---------------------------
 C      0   0   0     0.000000000000     0.00000000     0.00000000
 C      1   0   0    10.809216802246     0.00000000     0.00000000
 C      1   2   0     4.560993686427    42.80763316     0.00000000
 C      3   1   2     2.651868243998    87.92328922   117.76299380
 C      4   3   1     2.609632423978   120.14096481     0.16328925
 C      5   4   3     4.624378780918   152.53458407     1.56299451
 C      2   1   3     2.585360837309    14.59247678   337.79326981
 C      7   2   3     2.710026725231   108.05010202     0.84668783
 C      2   1   3     2.710100516721   116.64339731    35.20567683
 C      1   2   3     2.611372470040    37.62429263   313.09854450
 N      5   4   3     2.556510327319   120.81056110   359.66040997
 N      9   2   1     2.600503484979   106.58526707   346.32371410
 N     12   9   2     5.527566200405   168.53581413   171.12065651
 N     13  12   9     5.583221047236    91.55032014    11.12112580
 N     14  13  12     5.528150518591    88.43092389   359.84326247
 C      8   7   2     2.654668413270   127.24786865   181.11170171
 C     13  12   9     2.582376967257    81.72106996   188.00453233
 C     14  13  12    10.882574804710    80.56209567   166.76250791
 C     17  13  12     2.757130505230   111.08861209   183.82872609
 C     18  14  13     4.558465206823    27.27532823    36.33507194
 C     20  18  14     2.650705180609    87.95206320   148.94598259
 C     21  20  18     2.611803198586   120.14573887   359.70382047
 C     18  14  13     4.623235745386   144.15733107    82.80075377
 C     19  17  13     2.557953565794   106.29293361   359.75308708
 C     13  12   9     2.582903091751   172.21332906    33.46711076
 C     18  14  13     2.609636529225    15.08449437   309.23336894
 N     22  21  20     2.556370638369   120.73759875     0.27865223
 C     25  13  17     2.666210041769   125.60330303   182.37774668
 C     14  13  12     2.601476916169    80.24689249   177.85461986
 C     14  13  12    10.892550769017   164.51507311   312.20821879
 C     29  14  13     2.712892575415   106.58649366   178.76395472
 C     30  14  13     4.560507835333    27.10625047    82.12560436
 C     32  30  14     2.652673401891    87.90059683   149.76154742
 C     33  32  30     2.609133588376   120.14881443   359.74174632
 C     34  33  32     4.627519515267   152.49203239     2.45173620
 C     31  29  14     2.585449236669   108.16950133     0.70383075
 C     14  13  12     2.600716325456   169.26375223   353.09862627
 C     30  14  13     2.609536633043    14.68948582   353.70041132
 N     34  33  32     2.556154803934   120.85575621     0.19603406
 C     37  14  29     2.654530526499   126.01551127   180.90772073
 C     15  14  13     2.582293994346    81.61824056   183.09049352
 C      2   1   3     8.029564866989   143.32640035   160.15125512
 C     41  15  14     2.758391104639   111.05201287   175.08990246
 C     42   2   1     4.559821839776    41.78584867   203.55513403
 C     44  42   2     2.652129475853    87.95153797   233.97558675
 C     45  44  42     2.611027836043   120.11137308     0.19721020
 C     42   2   1     4.629866436820   135.97209175   113.86998313
 C     43  41  15     2.559561325344   106.26758155     0.30894352
 C     15  14  13     2.584127074516   171.87382904   332.35056460
 C     42   2   1     2.611386828803    32.59078432   252.41041322
 C      9   2   1     2.655043698059   126.98745415   167.32805163
 N     42   2   1     2.556355970587   113.57249190   141.60657232
 H      1   2   3     2.046751375045   120.17871862   207.49240902
 H      2   1   3     2.040730117440   117.03297265   203.67458979
 H      4   3   1     2.047535488962   121.09931736   179.49823165
 H      5   4   3     2.044491551541   122.77771657   179.44693181
 H      6   5   4     2.064130304720   104.46182821   100.12443182
 H      6   5   4     2.059469456870    84.71539542   209.56243539
 H      6   5   4     2.060018186288   133.92592950   322.42837907
 H      7   2  54     2.040541119952   126.66122480     1.30600390
 H     10   1   2     2.049959197140   118.70076979   262.00421042
 H     12   9   2     1.920524309565   125.29023241   180.00180175
 H     14  13  12     1.917952867083    44.97226959   359.42596618
 H     18  14  13     2.046330847636   128.03556573   234.20482432
 H     19  17  13     2.042592906181   126.41830519   178.11313280
 H     21  20  18     2.047649722989   121.05669627   180.67006309
 H     22  21  20     2.045596898814   122.73097286   180.59748951
 H     23  18  14     2.063779938267   103.92715769   234.93429879
 H     23  18  14     2.057669673245   134.19244188    12.25587044
 H     23  18  14     2.059486796529    84.85857450   125.45241208
 H     24  19  17     2.041046823986   127.28078426   178.44613241
 H     26  18  14     2.047344503340   118.76995697   244.94906660
 H     30  14  13     2.046012340948   127.99711412   279.66882698
 H     31  29  14     2.040450114918   125.22293469   180.92530585
 H     33  32  30     2.046930203877   121.01964473   180.74284758
 H     34  33  32     2.045617847496   122.70821597   180.59516895
 H     35  34  33     2.064814429233   105.73575241    97.19771933
 H     35  34  33     2.058786158072    84.05943581   206.43036958
 H     35  34  33     2.058418400901   133.08365142   318.50306270
 H     36  31  29     2.039845353366   126.61599965   178.98859863
 H     38  30  73     2.047975821711   118.77264435   359.90091293
 H     42   2   1     2.045020725966   119.31790784   358.23810278
 H     43  41  15     2.041436952892   126.36969097   182.06329380
 H     45  44  42     2.047097678177   121.10105945   179.58025624
 H     46  45  44     2.045051284662   122.72144639   179.46906377
 H     47  42   2     2.062723288131   106.65128841   315.16475048
 H     47  42   2     2.057569012371   132.46019523    94.52397119
 H     47  42   2     2.058915377895    83.63838232   206.04504406
 H     48  43  41     2.041664347903   127.23657387   181.62955349
 H     50  42   2     2.046925842384   118.77001737    94.71359229

---------------------
BASIS SET INFORMATION
---------------------
There are 3 groups of distinct atoms

 Group   1 Type C   : 17s4p1d contracted to 3s2p1d pattern {881/31/1}
 Group   2 Type N   : 17s4p1d contracted to 3s2p1d pattern {881/31/1}
 Group   3 Type H   : 4s1p contracted to 2s1p pattern {31/1}

Atom   0C    basis set group =>   1
Atom   1N    basis set group =>   2
Atom   2C    basis set group =>   1
Atom   3N    basis set group =>   2
Atom   4C    basis set group =>   1
Atom   5N    basis set group =>   2
Atom   6C    basis set group =>   1
Atom   7N    basis set group =>   2
Atom   8C    basis set group =>   1
Atom   9N    basis set group =>   2
Atom  10C    basis set group =>   1
Atom  11N    basis set group =>   2
Atom  12C    basis set group =>   1
Atom  13N    basis set group =>   2
Atom  14C    basis set group =>   1
Atom  15N    basis set group =>   2
Atom  16C    basis set group =>   1
Atom  17C    basis set group =>   1
Atom  18C    basis set group =>   1
Atom  19C    basis set group =>   1
Atom  20C    basis set group =>   1
Atom  21C    basis set group =>   1
Atom  22C    basis set group =>   1
Atom  23C    basis set group =>   1
Atom  24C    basis set group =>   1
Atom  25C    basis set group =>   1
Atom  26C    basis set group =>   1
Atom  27C    basis set group =>   1
Atom  28C    basis set group =>   1
Atom  29C    basis set group =>   1
Atom  30C    basis set group =>   1
Atom  31C    basis set group =>   1
Atom  32C    basis set group =>   1
Atom  33C    basis set group =>   1
Atom  34C    basis set group =>   1
Atom  35C    basis set group =>   1
Atom  36C    basis set group =>   1
Atom  37C    basis set group =>   1
Atom  38C    basis set group =>   1
Atom  39C    basis set group =>   1
Atom  40C    basis set group =>   1
Atom  41C    basis set group =>   1
Atom  42C    basis set group =>   1
Atom  43C    basis set group =>   1
Atom  44C    basis set group =>   1
Atom  45C    basis set group =>   1
Atom  46C    basis set group =>   1
Atom  47C    basis set group =>   1
Atom  48C    basis set group =>   1
Atom  49C    basis set group =>   1
Atom  50C    basis set group =>   1
Atom  51C    basis set group =>   1
Atom  52H    basis set group =>   3
Atom  53H    basis set group =>   3
Atom  54H    basis set group =>   3
Atom  55H    basis set group =>   3
Atom  56H    basis set group =>   3
Atom  57H    basis set group =>   3
Atom  58H    basis set group =>   3
Atom  59H    basis set group =>   3
Atom  60H    basis set group =>   3
Atom  61H    basis set group =>   3
Atom  62H    basis set group =>   3
Atom  63H    basis set group =>   3
Atom  64H    basis set group =>   3
Atom  65H    basis set group =>   3
Atom  66H    basis set group =>   3
Atom  67H    basis set group =>   3
Atom  68H    basis set group =>   3
Atom  69H    basis set group =>   3
Atom  70H    basis set group =>   3
Atom  71H    basis set group =>   3
Atom  72H    basis set group =>   3
Atom  73H    basis set group =>   3
Atom  74H    basis set group =>   3
Atom  75H    basis set group =>   3
Atom  76H    basis set group =>   3
Atom  77H    basis set group =>   3
Atom  78H    basis set group =>   3
Atom  79H    basis set group =>   3
Atom  80H    basis set group =>   3
Atom  81H    basis set group =>   3
Atom  82H    basis set group =>   3
Atom  83H    basis set group =>   3
Atom  84H    basis set group =>   3
Atom  85H    basis set group =>   3
Atom  86H    basis set group =>   3
Atom  87H    basis set group =>   3
Atom  88H    basis set group =>   3
Atom  89H    basis set group =>   3


           ************************************************************
           *        Program running with 16 parallel MPI-processes    *
           *              working on a common directory               *
           ************************************************************
------------------------------------------------------------------------------
                           ORCA GTO INTEGRAL CALCULATION
------------------------------------------------------------------------------
------------------------------------------------------------------------------
                   ___                                                        
                  /   \      - P O W E R E D   B Y -                         
                 /     \                                                     
                 |  |  |   _    _      __       _____    __    __             
                 |  |  |  | |  | |    /  \     |  _  \  |  |  /  |          
                  \  \/   | |  | |   /    \    | | | |  |  | /  /          
                 / \  \   | |__| |  /  /\  \   | |_| |  |  |/  /          
                |  |  |   |  __  | /  /__\  \  |    /   |      \           
                |  |  |   | |  | | |   __   |  |    \   |  |\   \          
                \     /   | |  | | |  |  |  |  | |\  \  |  | \   \       
                 \___/    |_|  |_| |__|  |__|  |_| \__\ |__|  \__/        
                                                                              
                      - O R C A' S   B I G   F R I E N D -                    
                                      &                                       
                       - I N T E G R A L  F E E D E R -                       
                                                                              
 v1 FN, 2020, v2 2021                                                         
------------------------------------------------------------------------------


Reading SHARK input file /scratch/allen/tmpyp4_amber_gaff2/conf1/conf1/Conf79.orca.SHARKINP.tmp ... ok
----------------------
SHARK INTEGRAL PACKAGE
----------------------

Number of atoms                             ...     90
Number of basis functions                   ...   1230
Number of shells                            ...    738
Maximum angular momentum                    ...      2
Integral batch strategy                     ... SHARK/LIBINT Hybrid
RI-J (if used) integral strategy            ... SPLIT-RIJ (Revised 2003 algorithm where possible)
Printlevel                                  ...      1
Contraction scheme used                     ... PARTIAL GENERAL contraction
Coulomb Range Separation                    ... NOT USED
Exchange Range Separation                   ... NOT USED
Finite Nucleus Model                        ... NOT USED
Auxiliary Coulomb fitting basis             ... NOT available
Auxiliary J/K fitting basis                 ... NOT available
Auxiliary Correlation fitting basis         ... NOT available
Auxiliary 'external' fitting basis          ... NOT available
Integral threshold                          ...     2.500000e-11
Primitive cut-off                           ...     2.500000e-12
Primitive pair pre-selection threshold      ...     2.500000e-12

Calculating pre-screening integrals         ... done (  0.1 sec) Dimension = 738
Calculating pre-screening integrals (ORCA)  ... done (  0.3 sec) Dimension = 426
Organizing shell pair data                  ... done (  0.5 sec)
Shell pair information
Total number of shell pairs                 ...    272691
Shell pairs after pre-screening             ...     71587
Total number of primitive shell pairs       ...    422091
Primitive shell pairs kept                  ...     92331
          la=0 lb=0:  29410 shell pairs
          la=1 lb=0:  25956 shell pairs
          la=1 lb=1:   4686 shell pairs
          la=2 lb=0:   7886 shell pairs
          la=2 lb=1:   3118 shell pairs
          la=2 lb=2:    531 shell pairs

Calculating one electron integrals          ... done (  0.2 sec)
Calculating Nuclear repulsion               ... done (  0.0 sec) ENN=   6222.383960072155 Eh

SHARK setup successfully completed in   1.7 seconds

Maximum memory used throughout the entire GTOINT-calculation: 99.0 MB


           ************************************************************
           *        Program running with 16 parallel MPI-processes    *
           *              working on a common directory               *
           ************************************************************
-------------------------------------------------------------------------------
                                 ORCA SCF
-------------------------------------------------------------------------------

------------
SCF SETTINGS
------------
Hamiltonian:
 Ab initio Hamiltonian  Method          .... Hartree-Fock(GTOs)


General Settings:
 Integral files         IntName         .... /scratch/allen/tmpyp4_amber_gaff2/conf1/conf1/Conf79.orca
 Hartree-Fock type      HFTyp           .... RHF
 Total Charge           Charge          ....    0
 Multiplicity           Mult            ....    1
 Number of Electrons    NEL             ....  358
 Basis Dimension        Dim             ....  918
 Nuclear Repulsion      ENuc            ....   6222.3839600722 Eh

Convergence Acceleration:
 DIIS                   CNVDIIS         .... on
   Start iteration      DIISMaxIt       ....    12
   Startup error        DIISStart       ....  0.200000
   # of expansion vecs  DIISMaxEq       ....     5
   Bias factor          DIISBfac        ....   1.050
   Max. coefficient     DIISMaxC        ....  10.000
 Trust-Rad. Augm. Hess. CNVTRAH         .... auto
   Auto Start mean grad. ratio tolernc. ....  1.125000
   Auto Start start iteration           ....    20
   Auto Start num. interpolation iter.  ....    10
   Max. Number of Micro iterations      ....    16
   Max. Number of Macro iterations      .... Maxiter - #DIIS iter
   Number of Davidson start vectors     ....     2
   Converg. threshold I  (grad. norm)   ....   1.000e-05
   Converg. threshold II (energy diff.) ....   1.000e-08
   Grad. Scal. Fac. for Micro threshold ....   0.100
   Minimum threshold for Micro iter.    ....   0.010
   NR start threshold (gradient norm)   ....   0.001
   Initial trust radius                 ....   0.400
   Minimum AH scaling param. (alpha)    ....   1.000
   Maximum AH scaling param. (alpha)    .... 1000.000
   Orbital update algorithm             .... Taylor
   White noise on init. David. guess    .... on
   Maximum white noise                  ....   0.010
   Quad. conv. algorithm                .... NR
 SOSCF                  CNVSOSCF        .... on
   Start iteration      SOSCFMaxIt      ....   150
   Startup grad/error   SOSCFStart      ....  0.003300
 Level Shifting         CNVShift        .... on
   Level shift para.    LevelShift      ....    0.2500
   Turn off err/grad.   ShiftErr        ....    0.0010
 Zerner damping         CNVZerner       .... off
 Static damping         CNVDamp         .... on
   Fraction old density DampFac         ....    0.7000
   Max. Damping (<1)    DampMax         ....    0.9800
   Min. Damping (>=0)   DampMin         ....    0.0000
   Turn off err/grad.   DampErr         ....    0.1000
 Fernandez-Rico         CNVRico         .... off

SCF Procedure:
 Maximum # iterations   MaxIter         ....   125
 SCF integral mode      SCFMode         .... Direct
   Integral package                     .... SHARK and LIBINT hybrid scheme
 Reset frequency        DirectResetFreq ....    20
 Integral Threshold     Thresh          ....  2.500e-11 Eh
 Primitive CutOff       TCut            ....  2.500e-12 Eh

Convergence Tolerance:
 Convergence Check Mode ConvCheckMode   .... Total+1el-Energy
 Convergence forced     ConvForced      .... 1
 Energy Change          TolE            ....  1.000e-08 Eh
 1-El. energy change                    ....  1.000e-05 Eh
 Orbital Gradient       TolG            ....  1.000e-05
 Orbital Rotation angle TolX            ....  1.000e-05
 DIIS Error             TolErr          ....  5.000e-07


Diagonalization of the overlap matrix:
Smallest eigenvalue                        ... 2.261e-04
Time for diagonalization                   ...    0.409 sec
Threshold for overlap eigenvalues          ... 1.000e-08
Number of eigenvalues below threshold      ... 0
Time for construction of square roots      ...    0.190 sec
Total time needed                          ...    0.605 sec

Time for model grid setup =    1.003 sec

------------------------------
INITIAL GUESS: MODEL POTENTIAL
------------------------------
Loading Hartree-Fock densities                     ... done
Calculating cut-offs                               ... done
Initializing the effective Hamiltonian             ... done
Setting up the integral package (SHARK)            ... done
Starting the Coulomb interaction                   ... done (   1.1 sec)
Reading the grid                                   ... done
Mapping shells                                     ... done
Starting the XC term evaluation                    ... done (   0.2 sec)
Transforming the Hamiltonian                       ... done (   0.2 sec)
Diagonalizing the Hamiltonian                      ... done (   0.3 sec)
Back transforming the eigenvectors                 ... done (   0.1 sec)
Now organizing SCF variables                       ... done
                      ------------------
                      INITIAL GUESS DONE (   2.9 sec)
                      ------------------
--------------
SCF ITERATIONS
--------------
ITER       Energy         Delta-E        Max-DP      RMS-DP      [F,P]     Damp
               ***  Starting incremental Fock matrix formation  ***
  0  -2121.6447574298   0.000000000000 0.06931347  0.00121266  0.2348124 0.7000
  1  -2122.3137210264  -0.668963596596 0.05267811  0.00098311  0.1452159 0.7000
                               ***Turning on DIIS***
  2  -2122.7298039212  -0.416082894782 0.11726900  0.00222307  0.0805959 0.0000
  3  -2117.7306557199   4.999148201263 0.03441446  0.00068771  0.0443379 0.0000
  4  -2123.4059097271  -5.675254007183 0.00913621  0.00023062  0.0072619 0.0000
  5  -2123.5801959456  -0.174286218524 0.00526981  0.00013871  0.0051126 0.0000
  6  -2123.5607453030   0.019450642587 0.00422630  0.00009404  0.0023402 0.0000
  7  -2123.6666073909  -0.105862087905 0.00374238  0.00007841  0.0018219 0.0000
  8  -2123.6952110549  -0.028603663952 0.00358475  0.00007887  0.0017076 0.0000
  9  -2123.6540441848   0.041166870080 0.00290076  0.00005733  0.0013656 0.0000
 10  -2123.6774951687  -0.023450983894 0.00289038  0.00005510  0.0010364 0.0000
                      *** Initiating the SOSCF procedure ***
                           *** Shutting down DIIS ***
                      *** Re-Reading the Fockian *** 
                      *** Removing any level shift *** 
ITER      Energy       Delta-E        Grad      Rot      Max-DP    RMS-DP
 11  -2123.67132139   0.0061737786  0.002943  0.002943  0.007775  0.000121
               *** Restarting incremental Fock matrix formation ***
 12  -2123.61109876   0.0602226297  0.001174  0.010573  0.001935  0.000051
 13  -2123.61127598  -0.0001772230  0.001377  0.025781  0.006319  0.000099
 14  -2123.61159013  -0.0003141509  0.000793  0.042974  0.011308  0.000168
 15  -2123.61181224  -0.0002221011  0.000659  0.007363  0.002102  0.000030
 16  -2123.61185089  -0.0000386533  0.000452  0.005211  0.001450  0.000029
 17  -2123.61188844  -0.0000375532  0.000243  0.010795  0.002379  0.000048
 18  -2123.61191299  -0.0000245489  0.000169  0.002791  0.000693  0.000012
 19  -2123.61192081  -0.0000078235  0.000170  0.003524  0.000800  0.000013
 20  -2123.61192583  -0.0000050138  0.000126  0.003510  0.000808  0.000012
 21  -2123.61192837  -0.0000025413  0.000070  0.002233  0.000402  0.000007
 22  -2123.61192976  -0.0000013917  0.000064  0.003005  0.000487  0.000010
 23  -2123.61193102  -0.0000012567  0.000039  0.001099  0.000230  0.000005
 24  -2123.61193140  -0.0000003817  0.000025  0.000804  0.000183  0.000003
 25  -2123.61193160  -0.0000001994  0.000022  0.000406  0.000128  0.000002
 26  -2123.61193170  -0.0000000971  0.000020  0.000466  0.000122  0.000002
 27  -2123.61193176  -0.0000000650  0.000014  0.000524  0.000134  0.000002
 28  -2123.61193181  -0.0000000499  0.000009  0.000456  0.000113  0.000002
 29  -2123.61193184  -0.0000000324  0.000006  0.000219  0.000050  0.000001
 30  -2123.61193185  -0.0000000080  0.000003  0.000067  0.000014  0.000000
 31  -2123.61193186  -0.0000000040  0.000004  0.000043  0.000016  0.000000
               *** Restarting incremental Fock matrix formation ***
                  ***Gradient check signals convergence***
              ***Rediagonalizing the Fockian in SOSCF/NRSCF***

               *****************************************************
               *                     SUCCESS                       *
               *           SCF CONVERGED AFTER  32 CYCLES          *
               *****************************************************


----------------
TOTAL SCF ENERGY
----------------

Total Energy       :        -2123.61193194 Eh          -57786.41847 eV

Components:
Nuclear Repulsion  :         6222.38396007 Eh          169319.67560 eV
Electronic Energy  :        -8345.99589201 Eh         -227106.09407 eV
One Electron Energy:       -15286.21822107 Eh         -415959.14475 eV
Two Electron Energy:         6940.22232906 Eh          188853.05068 eV

Virial components:
Potential Energy   :        -4245.59802722 Eh         -115528.59568 eV
Kinetic Energy     :         2121.98609528 Eh           57742.17721 eV
Virial Ratio       :            2.00076619


---------------
SCF CONVERGENCE
---------------

  Last Energy change         ...   -8.1214e-08  Tolerance :   1.0000e-08
  Last MAX-Density change    ...    1.5656e-05  Tolerance :   1.0000e-07
  Last RMS-Density change    ...    2.4102e-07  Tolerance :   5.0000e-09
  Last Orbital Gradient      ...    2.1704e-06  Tolerance :   1.0000e-05
  Last Orbital Rotation      ...    4.6728e-05  Tolerance :   1.0000e-05

             **** THE GBW FILE WAS UPDATED (/scratch/allen/tmpyp4_amber_gaff2/conf1/conf1/Conf79.orca.gbw) ****
             **** DENSITY /scratch/allen/tmpyp4_amber_gaff2/conf1/conf1/Conf79.orca.scfp WAS UPDATED ****
             **** ENERGY FILE WAS UPDATED (/scratch/allen/tmpyp4_amber_gaff2/conf1/conf1/Conf79.orca.en.tmp) ****
             **** THE GBW FILE WAS UPDATED (/scratch/allen/tmpyp4_amber_gaff2/conf1/conf1/Conf79.orca.gbw) ****
             **** DENSITY /scratch/allen/tmpyp4_amber_gaff2/conf1/conf1/Conf79.orca.scfp WAS UPDATED ****
----------------
ORBITAL ENERGIES
----------------

  NO   OCC          E(Eh)            E(eV) 
   0   2.0000     -15.699423      -427.2030 
   1   2.0000     -15.631993      -425.3681 
   2   2.0000     -15.621477      -425.0820 
   3   2.0000     -15.587355      -424.1535 
   4   2.0000     -15.519996      -422.3206 
   5   2.0000     -15.506734      -421.9597 
   6   2.0000     -15.449566      -420.4041 
   7   2.0000     -15.430085      -419.8739 
   8   2.0000     -11.342929      -308.6568 
   9   2.0000     -11.341030      -308.6051 
  10   2.0000     -11.338440      -308.5346 
  11   2.0000     -11.298392      -307.4449 
  12   2.0000     -11.295781      -307.3738 
  13   2.0000     -11.292410      -307.2821 
  14   2.0000     -11.291390      -307.2543 
  15   2.0000     -11.284389      -307.0638 
  16   2.0000     -11.283093      -307.0286 
  17   2.0000     -11.274822      -306.8035 
  18   2.0000     -11.274724      -306.8008 
  19   2.0000     -11.274162      -306.7855 
  20   2.0000     -11.270043      -306.6735 
  21   2.0000     -11.252118      -306.1857 
  22   2.0000     -11.248913      -306.0985 
  23   2.0000     -11.235531      -305.7343 
  24   2.0000     -11.229042      -305.5578 
  25   2.0000     -11.228147      -305.5334 
  26   2.0000     -11.225729      -305.4676 
  27   2.0000     -11.221120      -305.3422 
  28   2.0000     -11.220826      -305.3342 
  29   2.0000     -11.207465      -304.9706 
  30   2.0000     -11.206445      -304.9429 
  31   2.0000     -11.196370      -304.6687 
  32   2.0000     -11.195586      -304.6474 
  33   2.0000     -11.193466      -304.5897 
  34   2.0000     -11.189978      -304.4948 
  35   2.0000     -11.188893      -304.4653 
  36   2.0000     -11.188533      -304.4555 
  37   2.0000     -11.183246      -304.3116 
  38   2.0000     -11.182975      -304.3042 
  39   2.0000     -11.172562      -304.0209 
  40   2.0000     -11.165492      -303.8285 
  41   2.0000     -11.164258      -303.7949 
  42   2.0000     -11.162623      -303.7504 
  43   2.0000     -11.162237      -303.7399 
  44   2.0000     -11.157809      -303.6194 
  45   2.0000     -11.149961      -303.4059 
  46   2.0000     -11.149619      -303.3966 
  47   2.0000     -11.143484      -303.2296 
  48   2.0000     -11.143407      -303.2275 
  49   2.0000     -11.135491      -303.0121 
  50   2.0000     -11.121968      -302.6441 
  51   2.0000     -11.117285      -302.5167 
  52   2.0000      -1.375404       -37.4266 
  53   2.0000      -1.319636       -35.9091 
  54   2.0000      -1.310109       -35.6499 
  55   2.0000      -1.281162       -34.8622 
  56   2.0000      -1.222110       -33.2553 
  57   2.0000      -1.202880       -32.7320 
  58   2.0000      -1.173176       -31.9237 
  59   2.0000      -1.153646       -31.3923 
  60   2.0000      -1.141236       -31.0546 
  61   2.0000      -1.108274       -30.1577 
  62   2.0000      -1.099698       -29.9243 
  63   2.0000      -1.094866       -29.7928 
  64   2.0000      -1.074178       -29.2299 
  65   2.0000      -1.047131       -28.4939 
  66   2.0000      -1.043810       -28.4035 
  67   2.0000      -1.034931       -28.1619 
  68   2.0000      -1.013824       -27.5876 
  69   2.0000      -1.007942       -27.4275 
  70   2.0000      -1.004847       -27.3433 
  71   2.0000      -0.990881       -26.9633 
  72   2.0000      -0.984113       -26.7791 
  73   2.0000      -0.979351       -26.6495 
  74   2.0000      -0.965200       -26.2644 
  75   2.0000      -0.960896       -26.1473 
  76   2.0000      -0.951522       -25.8922 
  77   2.0000      -0.942697       -25.6521 
  78   2.0000      -0.923713       -25.1355 
  79   2.0000      -0.921228       -25.0679 
  80   2.0000      -0.915770       -24.9194 
  81   2.0000      -0.889242       -24.1975 
  82   2.0000      -0.880370       -23.9561 
  83   2.0000      -0.870389       -23.6845 
  84   2.0000      -0.862252       -23.4631 
  85   2.0000      -0.849103       -23.1053 
  86   2.0000      -0.835396       -22.7323 
  87   2.0000      -0.829172       -22.5629 
  88   2.0000      -0.821891       -22.3648 
  89   2.0000      -0.795298       -21.6412 
  90   2.0000      -0.788921       -21.4676 
  91   2.0000      -0.762062       -20.7368 
  92   2.0000      -0.733855       -19.9692 
  93   2.0000      -0.728201       -19.8154 
  94   2.0000      -0.726000       -19.7555 
  95   2.0000      -0.721052       -19.6208 
  96   2.0000      -0.716747       -19.5037 
  97   2.0000      -0.707205       -19.2440 
  98   2.0000      -0.702169       -19.1070 
  99   2.0000      -0.696616       -18.9559 
 100   2.0000      -0.694451       -18.8970 
 101   2.0000      -0.691306       -18.8114 
 102   2.0000      -0.684145       -18.6165 
 103   2.0000      -0.674987       -18.3673 
 104   2.0000      -0.672466       -18.2987 
 105   2.0000      -0.669433       -18.2162 
 106   2.0000      -0.664863       -18.0918 
 107   2.0000      -0.657840       -17.9007 
 108   2.0000      -0.653703       -17.7882 
 109   2.0000      -0.651590       -17.7307 
 110   2.0000      -0.648854       -17.6562 
 111   2.0000      -0.644286       -17.5319 
 112   2.0000      -0.641249       -17.4493 
 113   2.0000      -0.638662       -17.3789 
 114   2.0000      -0.632361       -17.2074 
 115   2.0000      -0.624875       -17.0037 
 116   2.0000      -0.622460       -16.9380 
 117   2.0000      -0.621471       -16.9111 
 118   2.0000      -0.613589       -16.6966 
 119   2.0000      -0.611128       -16.6296 
 120   2.0000      -0.609759       -16.5924 
 121   2.0000      -0.602916       -16.4062 
 122   2.0000      -0.591863       -16.1054 
 123   2.0000      -0.586516       -15.9599 
 124   2.0000      -0.580991       -15.8096 
 125   2.0000      -0.579711       -15.7747 
 126   2.0000      -0.577842       -15.7239 
 127   2.0000      -0.576284       -15.6815 
 128   2.0000      -0.572726       -15.5847 
 129   2.0000      -0.558819       -15.2062 
 130   2.0000      -0.556510       -15.1434 
 131   2.0000      -0.549923       -14.9642 
 132   2.0000      -0.543108       -14.7787 
 133   2.0000      -0.539274       -14.6744 
 134   2.0000      -0.534435       -14.5427 
 135   2.0000      -0.530772       -14.4430 
 136   2.0000      -0.518880       -14.1194 
 137   2.0000      -0.515492       -14.0273 
 138   2.0000      -0.515187       -14.0189 
 139   2.0000      -0.512570       -13.9477 
 140   2.0000      -0.510373       -13.8880 
 141   2.0000      -0.504312       -13.7230 
 142   2.0000      -0.501987       -13.6598 
 143   2.0000      -0.500574       -13.6213 
 144   2.0000      -0.495949       -13.4955 
 145   2.0000      -0.493703       -13.4343 
 146   2.0000      -0.491099       -13.3635 
 147   2.0000      -0.477446       -12.9920 
 148   2.0000      -0.476562       -12.9679 
 149   2.0000      -0.465099       -12.6560 
 150   2.0000      -0.462530       -12.5861 
 151   2.0000      -0.458802       -12.4846 
 152   2.0000      -0.451014       -12.2727 
 153   2.0000      -0.441423       -12.0117 
 154   2.0000      -0.436441       -11.8762 
 155   2.0000      -0.434707       -11.8290 
 156   2.0000      -0.422272       -11.4906 
 157   2.0000      -0.416239       -11.3264 
 158   2.0000      -0.409843       -11.1524 
 159   2.0000      -0.397819       -10.8252 
 160   2.0000      -0.382090       -10.3972 
 161   2.0000      -0.371351       -10.1050 
 162   2.0000      -0.355399        -9.6709 
 163   2.0000      -0.355159        -9.6644 
 164   2.0000      -0.347684        -9.4610 
 165   2.0000      -0.339298        -9.2328 
 166   2.0000      -0.339076        -9.2267 
 167   2.0000      -0.324451        -8.8288 
 168   2.0000      -0.315587        -8.5876 
 169   2.0000      -0.301771        -8.2116 
 170   2.0000      -0.298499        -8.1226 
 171   2.0000      -0.284059        -7.7296 
 172   2.0000      -0.278238        -7.5712 
 173   2.0000      -0.264345        -7.1932 
 174   2.0000      -0.233489        -6.3536 
 175   2.0000      -0.184111        -5.0099 
 176   2.0000      -0.174183        -4.7398 
 177   2.0000      -0.062558        -1.7023 
 178   2.0000      -0.050970        -1.3870 
 179   0.0000       0.034568         0.9407 
 180   0.0000       0.058580         1.5941 
 181   0.0000       0.085777         2.3341 
 182   0.0000       0.097675         2.6579 
 183   0.0000       0.102371         2.7856 
 184   0.0000       0.132722         3.6116 
 185   0.0000       0.139251         3.7892 
 186   0.0000       0.147060         4.0017 
 187   0.0000       0.163097         4.4381 
 188   0.0000       0.165750         4.5103 
 189   0.0000       0.171717         4.6727 
 190   0.0000       0.171739         4.6733 
 191   0.0000       0.172812         4.7024 
 192   0.0000       0.175447         4.7742 
 193   0.0000       0.189953         5.1689 
 194   0.0000       0.204702         5.5702 
 195   0.0000       0.208986         5.6868 
 196   0.0000       0.210348         5.7239 
 197   0.0000       0.211139         5.7454 
 198   0.0000       0.216147         5.8817 
 199   0.0000       0.226067         6.1516 
 200   0.0000       0.230848         6.2817 
 201   0.0000       0.233916         6.3652 
 202   0.0000       0.238044         6.4775 
 203   0.0000       0.240260         6.5378 
 204   0.0000       0.245412         6.6780 
 205   0.0000       0.247731         6.7411 
 206   0.0000       0.254028         6.9125 
 207   0.0000       0.256538         6.9807 
 208   0.0000       0.257794         7.0149 
 209   0.0000       0.259578         7.0635 
 210   0.0000       0.262817         7.1516 
 211   0.0000       0.263742         7.1768 
 212   0.0000       0.266933         7.2636 
 213   0.0000       0.273336         7.4378 
 214   0.0000       0.278741         7.5849 
 215   0.0000       0.279585         7.6079 
 216   0.0000       0.281294         7.6544 
 217   0.0000       0.285001         7.7553 
 218   0.0000       0.287882         7.8337 
 219   0.0000       0.288651         7.8546 
 220   0.0000       0.293367         7.9829 
 221   0.0000       0.293532         7.9874 
 222   0.0000       0.296683         8.0731 
 223   0.0000       0.298241         8.1155 
 224   0.0000       0.300751         8.1838 
 225   0.0000       0.301905         8.2153 
 226   0.0000       0.304651         8.2900 
 227   0.0000       0.305507         8.3133 
 228   0.0000       0.314171         8.5490 
 229   0.0000       0.316768         8.6197 
 230   0.0000       0.325251         8.8505 
 231   0.0000       0.326297         8.8790 
 232   0.0000       0.327695         8.9170 
 233   0.0000       0.332972         9.0606 
 234   0.0000       0.337492         9.1836 
 235   0.0000       0.353811         9.6277 
 236   0.0000       0.358825         9.7641 
 237   0.0000       0.365083         9.9344 
 238   0.0000       0.384622        10.4661 
 239   0.0000       0.395652        10.7662 
 240   0.0000       0.400775        10.9056 
 241   0.0000       0.401420        10.9232 
 242   0.0000       0.407514        11.0890 
 243   0.0000       0.419367        11.4115 
 244   0.0000       0.425874        11.5886 
 245   0.0000       0.428430        11.6582 
 246   0.0000       0.436047        11.8654 
 247   0.0000       0.438624        11.9356 
 248   0.0000       0.441696        12.0192 
 249   0.0000       0.445379        12.1194 
 250   0.0000       0.449756        12.2385 
 251   0.0000       0.455808        12.4032 
 252   0.0000       0.464326        12.6349 
 253   0.0000       0.468386        12.7454 
 254   0.0000       0.470686        12.8080 
 255   0.0000       0.472359        12.8535 
 256   0.0000       0.477036        12.9808 
 257   0.0000       0.483989        13.1700 
 258   0.0000       0.488638        13.2965 
 259   0.0000       0.494561        13.4577 
 260   0.0000       0.502874        13.6839 
 261   0.0000       0.503515        13.7013 
 262   0.0000       0.506138        13.7727 
 263   0.0000       0.508387        13.8339 
 264   0.0000       0.514227        13.9928 
 265   0.0000       0.516694        14.0600 
 266   0.0000       0.520818        14.1722 
 267   0.0000       0.524692        14.2776 
 268   0.0000       0.530711        14.4414 
 269   0.0000       0.540322        14.7029 
 270   0.0000       0.542447        14.7607 
 271   0.0000       0.546274        14.8649 
 272   0.0000       0.549353        14.9487 
 273   0.0000       0.551144        14.9974 
 274   0.0000       0.557089        15.1592 
 275   0.0000       0.558754        15.2045 
 276   0.0000       0.566931        15.4270 
 277   0.0000       0.569668        15.5014 
 278   0.0000       0.578184        15.7332 
 279   0.0000       0.583883        15.8883 
 280   0.0000       0.590398        16.0655 
 281   0.0000       0.593021        16.1369 
 282   0.0000       0.594850        16.1867 
 283   0.0000       0.597569        16.2607 
 284   0.0000       0.601828        16.3766 
 285   0.0000       0.603155        16.4127 
 286   0.0000       0.608293        16.5525 
 287   0.0000       0.610195        16.6042 
 288   0.0000       0.615121        16.7383 
 289   0.0000       0.617964        16.8156 
 290   0.0000       0.623760        16.9734 
 291   0.0000       0.627473        17.0744 
 292   0.0000       0.630904        17.1678 
 293   0.0000       0.633795        17.2464 
 294   0.0000       0.643222        17.5029 
 295   0.0000       0.647638        17.6231 
 296   0.0000       0.655710        17.8428 
 297   0.0000       0.658808        17.9271 
 298   0.0000       0.661013        17.9871 
 299   0.0000       0.663136        18.0448 
 300   0.0000       0.667424        18.1615 
 301   0.0000       0.672370        18.2961 
 302   0.0000       0.673993        18.3403 
 303   0.0000       0.675607        18.3842 
 304   0.0000       0.678474        18.4622 
 305   0.0000       0.681224        18.5370 
 306   0.0000       0.683903        18.6099 
 307   0.0000       0.688594        18.7376 
 308   0.0000       0.689842        18.7716 
 309   0.0000       0.695578        18.9276 
 310   0.0000       0.699464        19.0334 
 311   0.0000       0.704645        19.1744 
 312   0.0000       0.705172        19.1887 
 313   0.0000       0.708550        19.2806 
 314   0.0000       0.712708        19.3938 
 315   0.0000       0.714404        19.4399 
 316   0.0000       0.716793        19.5049 
 317   0.0000       0.717892        19.5348 
 318   0.0000       0.721183        19.6244 
 319   0.0000       0.722937        19.6721 
 320   0.0000       0.725909        19.7530 
 321   0.0000       0.728598        19.8262 
 322   0.0000       0.730638        19.8817 
 323   0.0000       0.733720        19.9655 
 324   0.0000       0.739850        20.1323 
 325   0.0000       0.741716        20.1831 
 326   0.0000       0.745184        20.2775 
 327   0.0000       0.747004        20.3270 
 328   0.0000       0.749545        20.3962 
 329   0.0000       0.755698        20.5636 
 330   0.0000       0.757271        20.6064 
 331   0.0000       0.758788        20.6477 
 332   0.0000       0.760602        20.6970 
 333   0.0000       0.762806        20.7570 
 334   0.0000       0.765732        20.8366 
 335   0.0000       0.767230        20.8774 
 336   0.0000       0.775962        21.1150 
 337   0.0000       0.778082        21.1727 
 338   0.0000       0.782290        21.2872 
 339   0.0000       0.786058        21.3897 
 340   0.0000       0.788095        21.4451 
 341   0.0000       0.790244        21.5036 
 342   0.0000       0.793557        21.5938 
 343   0.0000       0.796931        21.6856 
 344   0.0000       0.800503        21.7828 
 345   0.0000       0.803257        21.8577 
 346   0.0000       0.803682        21.8693 
 347   0.0000       0.809094        22.0166 
 348   0.0000       0.813056        22.1244 
 349   0.0000       0.814901        22.1746 
 350   0.0000       0.817213        22.2375 
 351   0.0000       0.821292        22.3485 
 352   0.0000       0.822968        22.3941 
 353   0.0000       0.824740        22.4423 
 354   0.0000       0.826725        22.4963 
 355   0.0000       0.830570        22.6010 
 356   0.0000       0.834555        22.7094 
 357   0.0000       0.836034        22.7496 
 358   0.0000       0.839019        22.8309 
 359   0.0000       0.839566        22.8458 
 360   0.0000       0.843913        22.9640 
 361   0.0000       0.845670        23.0119 
 362   0.0000       0.847622        23.0650 
 363   0.0000       0.848693        23.0941 
 364   0.0000       0.851447        23.1690 
 365   0.0000       0.854141        23.2423 
 366   0.0000       0.856569        23.3084 
 367   0.0000       0.858695        23.3663 
 368   0.0000       0.862486        23.4694 
 369   0.0000       0.865337        23.5470 
 370   0.0000       0.867871        23.6160 
 371   0.0000       0.870320        23.6826 
 372   0.0000       0.870740        23.6941 
 373   0.0000       0.872739        23.7484 
 374   0.0000       0.873857        23.7789 
 375   0.0000       0.876705        23.8563 
 376   0.0000       0.877272        23.8718 
 377   0.0000       0.883950        24.0535 
 378   0.0000       0.885894        24.1064 
 379   0.0000       0.890369        24.2282 
 380   0.0000       0.891598        24.2616 
 381   0.0000       0.895843        24.3771 
 382   0.0000       0.898128        24.4393 
 383   0.0000       0.903959        24.5980 
 384   0.0000       0.905019        24.6268 
 385   0.0000       0.906516        24.6676 
 386   0.0000       0.907719        24.7003 
 387   0.0000       0.914162        24.8756 
 388   0.0000       0.916255        24.9326 
 389   0.0000       0.918418        24.9914 
 390   0.0000       0.921998        25.0888 
 391   0.0000       0.922708        25.1082 
 392   0.0000       0.926820        25.2200 
 393   0.0000       0.930162        25.3110 
 394   0.0000       0.930964        25.3328 
 395   0.0000       0.933440        25.4002 
 396   0.0000       0.936189        25.4750 
 397   0.0000       0.937346        25.5065 
 398   0.0000       0.939417        25.5628 
 399   0.0000       0.942270        25.6405 
 400   0.0000       0.948140        25.8002 
 401   0.0000       0.950111        25.8538 
 402   0.0000       0.953057        25.9340 
 403   0.0000       0.955491        26.0002 
 404   0.0000       0.957189        26.0464 
 405   0.0000       0.957557        26.0564 
 406   0.0000       0.963809        26.2266 
 407   0.0000       0.964707        26.2510 
 408   0.0000       0.966227        26.2924 
 409   0.0000       0.972580        26.4653 
 410   0.0000       0.977001        26.5856 
 411   0.0000       0.981016        26.6948 
 412   0.0000       0.988023        26.8855 
 413   0.0000       0.994027        27.0488 
 414   0.0000       0.994574        27.0637 
 415   0.0000       0.997414        27.1410 
 416   0.0000       1.001103        27.2414 
 417   0.0000       1.003758        27.3136 
 418   0.0000       1.008533        27.4436 
 419   0.0000       1.016860        27.6702 
 420   0.0000       1.021946        27.8086 
 421   0.0000       1.026698        27.9379 
 422   0.0000       1.034970        28.1630 
 423   0.0000       1.035266        28.1710 
 424   0.0000       1.042572        28.3698 
 425   0.0000       1.043632        28.3987 
 426   0.0000       1.054781        28.7020 
 427   0.0000       1.062616        28.9153 
 428   0.0000       1.071760        29.1641 
 429   0.0000       1.073800        29.2196 
 430   0.0000       1.078906        29.3585 
 431   0.0000       1.080899        29.4128 
 432   0.0000       1.083559        29.4851 
 433   0.0000       1.086823        29.5740 
 434   0.0000       1.092491        29.7282 
 435   0.0000       1.099165        29.9098 
 436   0.0000       1.108046        30.1515 
 437   0.0000       1.111468        30.2446 
 438   0.0000       1.112383        30.2695 
 439   0.0000       1.115271        30.3481 
 440   0.0000       1.116545        30.3827 
 441   0.0000       1.122248        30.5379 
 442   0.0000       1.127521        30.6814 
 443   0.0000       1.130426        30.7605 
 444   0.0000       1.131954        30.8020 
 445   0.0000       1.136593        30.9283 
 446   0.0000       1.140406        31.0320 
 447   0.0000       1.142808        31.0974 
 448   0.0000       1.145925        31.1822 
 449   0.0000       1.148009        31.2389 
 450   0.0000       1.153469        31.3875 
 451   0.0000       1.157140        31.4874 
 452   0.0000       1.158359        31.5205 
 453   0.0000       1.161802        31.6142 
 454   0.0000       1.163054        31.6483 
 455   0.0000       1.167894        31.7800 
 456   0.0000       1.169969        31.8365 
 457   0.0000       1.177553        32.0428 
 458   0.0000       1.182710        32.1832 
 459   0.0000       1.188945        32.3528 
 460   0.0000       1.189346        32.3637 
 461   0.0000       1.194951        32.5163 
 462   0.0000       1.196517        32.5589 
 463   0.0000       1.203620        32.7522 
 464   0.0000       1.208476        32.8843 
 465   0.0000       1.209191        32.9038 
 466   0.0000       1.211074        32.9550 
 467   0.0000       1.212762        33.0009 
 468   0.0000       1.225045        33.3352 
 469   0.0000       1.225449        33.3462 
 470   0.0000       1.226694        33.3800 
 471   0.0000       1.231308        33.5056 
 472   0.0000       1.235698        33.6251 
 473   0.0000       1.237727        33.6803 
 474   0.0000       1.239457        33.7273 
 475   0.0000       1.242021        33.7971 
 476   0.0000       1.246159        33.9097 
 477   0.0000       1.248844        33.9828 
 478   0.0000       1.255315        34.1589 
 479   0.0000       1.256024        34.1782 
 480   0.0000       1.260454        34.2987 
 481   0.0000       1.263976        34.3945 
 482   0.0000       1.267833        34.4995 
 483   0.0000       1.270063        34.5602 
 484   0.0000       1.274127        34.6708 
 485   0.0000       1.277930        34.7742 
 486   0.0000       1.280319        34.8392 
 487   0.0000       1.286237        35.0003 
 488   0.0000       1.288597        35.0645 
 489   0.0000       1.293400        35.1952 
 490   0.0000       1.296215        35.2718 
 491   0.0000       1.300038        35.3758 
 492   0.0000       1.301341        35.4113 
 493   0.0000       1.308562        35.6078 
 494   0.0000       1.311458        35.6866 
 495   0.0000       1.316073        35.8122 
 496   0.0000       1.316331        35.8192 
 497   0.0000       1.322946        35.9992 
 498   0.0000       1.326701        36.1014 
 499   0.0000       1.329607        36.1804 
 500   0.0000       1.333875        36.2966 
 501   0.0000       1.338849        36.4319 
[...]
      pz      :     0.021781  p :     0.079289
      px      :     0.042880
      py      :     0.014628
 77 H s       :     0.895114  s :     0.895114
      pz      :     0.047155  p :     0.078377
      px      :     0.015003
      py      :     0.016218
 78 H s       :     0.895492  s :     0.895492
      pz      :     0.025464  p :     0.078294
      px      :     0.020696
      py      :     0.032133
 79 H s       :     0.907444  s :     0.907444
      pz      :     0.022576  p :     0.087220
      px      :     0.021892
      py      :     0.042753
 80 H s       :     0.879065  s :     0.879065
      pz      :     0.038204  p :     0.083240
      px      :     0.029504
      py      :     0.015531
 81 H s       :     0.888529  s :     0.888529
      pz      :     0.037572  p :     0.083347
      px      :     0.016077
      py      :     0.029698
 82 H s       :     0.914077  s :     0.914077
      pz      :     0.022432  p :     0.087130
      px      :     0.030964
      py      :     0.033734
 83 H s       :     0.872166  s :     0.872166
      pz      :     0.039191  p :     0.083677
      px      :     0.015242
      py      :     0.029244
 84 H s       :     0.888491  s :     0.888491
      pz      :     0.035816  p :     0.084381
      px      :     0.031806
      py      :     0.016759
 85 H s       :     0.895749  s :     0.895749
      pz      :     0.022511  p :     0.079621
      px      :     0.014145
      py      :     0.042966
 86 H s       :     0.890691  s :     0.890691
      pz      :     0.024704  p :     0.078895
      px      :     0.032998
      py      :     0.021193
 87 H s       :     0.891171  s :     0.891171
      pz      :     0.047822  p :     0.078601
      px      :     0.015654
      py      :     0.015125
 88 H s       :     0.917830  s :     0.917830
      pz      :     0.022451  p :     0.086821
      px      :     0.042042
      py      :     0.022328
 89 H s       :     0.875094  s :     0.875094
      pz      :     0.037810  p :     0.084022
      px      :     0.030469
      py      :     0.015743


                      *****************************
                      * MAYER POPULATION ANALYSIS *
                      *****************************

  NA   - Mulliken gross atomic population
  ZA   - Total nuclear charge
  QA   - Mulliken gross atomic charge
  VA   - Mayer's total valence
  BVA  - Mayer's bonded valence
  FA   - Mayer's free valence

  ATOM       NA         ZA         QA         VA         BVA        FA
  0 C      5.7684     6.0000     0.2316     3.8066     3.8066     0.0000
  1 N      7.4183     7.0000    -0.4183     3.4585     3.4585    -0.0000
  2 C      6.0662     6.0000    -0.0662     3.9202     3.9202     0.0000
  3 N      7.3422     7.0000    -0.3422     3.4254     3.4254    -0.0000
  4 C      6.0695     6.0000    -0.0695     3.9631     3.9631     0.0000
  5 N      7.5658     7.0000    -0.5658     3.0695     3.0695    -0.0000
  6 C      6.0305     6.0000    -0.0305     3.9658     3.9658    -0.0000
  7 N      7.3368     7.0000    -0.3368     3.4458     3.4458     0.0000
  8 C      5.7714     6.0000     0.2286     3.8065     3.8065    -0.0000
  9 N      7.5659     7.0000    -0.5659     3.0907     3.0907    -0.0000
 10 C      5.8948     6.0000     0.1052     3.8657     3.8657     0.0000
 11 N      7.4393     7.0000    -0.4393     3.3755     3.3755    -0.0000
 12 C      6.0602     6.0000    -0.0602     3.9099     3.9099     0.0000
 13 N      7.4498     7.0000    -0.4498     3.3248     3.3248     0.0000
 14 C      5.7753     6.0000     0.2247     3.8067     3.8067     0.0000
 15 N      7.4414     7.0000    -0.4414     3.3649     3.3649    -0.0000
 16 C      5.7472     6.0000     0.2528     3.8049     3.8049    -0.0000
 17 C      6.0369     6.0000    -0.0369     3.9683     3.9683    -0.0000
 18 C      6.1853     6.0000    -0.1853     3.6896     3.6896     0.0000
 19 C      5.7660     6.0000     0.2340     3.8952     3.8952     0.0000
 20 C      5.8087     6.0000     0.1913     3.8215     3.8215     0.0000
 21 C      6.0709     6.0000    -0.0709     3.8943     3.8943     0.0000
 22 C      6.0897     6.0000    -0.0897     3.9855     3.9855    -0.0000
 23 C      6.0648     6.0000    -0.0648     3.9882     3.9882     0.0000
 24 C      5.7837     6.0000     0.2163     3.8292     3.8292    -0.0000
 25 C      5.8853     6.0000     0.1147     3.8929     3.8929     0.0000
 26 C      6.0670     6.0000    -0.0670     3.9091     3.9091     0.0000
 27 C      5.7552     6.0000     0.2448     3.9018     3.9018    -0.0000
 28 C      6.0413     6.0000    -0.0413     3.9897     3.9897    -0.0000
 29 C      6.1963     6.0000    -0.1963     3.7268     3.7268     0.0000
 30 C      5.7772     6.0000     0.2228     3.7813     3.7813    -0.0000
 31 C      5.8100     6.0000     0.1900     3.8330     3.8330     0.0000
 32 C      6.0658     6.0000    -0.0658     3.9128     3.9128    -0.0000
 33 C      6.1004     6.0000    -0.1004     3.9852     3.9852     0.0000
 34 C      6.0510     6.0000    -0.0510     3.9988     3.9988     0.0000
 35 C      5.8183     6.0000     0.1817     3.8298     3.8298    -0.0000
 36 C      5.8797     6.0000     0.1203     3.9084     3.9084     0.0000
 37 C      6.0702     6.0000    -0.0702     3.9145     3.9145     0.0000
 38 C      5.7570     6.0000     0.2430     3.7946     3.7946    -0.0000
 39 C      6.0645     6.0000    -0.0645     3.9982     3.9982     0.0000
 40 C      6.2029     6.0000    -0.2029     3.7514     3.7514     0.0000
 41 C      5.7823     6.0000     0.2177     3.8754     3.8754    -0.0000
 42 C      5.7887     6.0000     0.2113     3.8321     3.8321    -0.0000
 43 C      6.0765     6.0000    -0.0765     3.9050     3.9050    -0.0000
 44 C      6.0916     6.0000    -0.0916     3.9833     3.9833    -0.0000
 45 C      6.0399     6.0000    -0.0399     3.9960     3.9960    -0.0000
 46 C      5.8133     6.0000     0.1867     3.8207     3.8207     0.0000
 47 C      5.8835     6.0000     0.1165     3.8965     3.8965     0.0000
 48 C      6.0807     6.0000    -0.0807     3.8985     3.8985    -0.0000
 49 C      5.7896     6.0000     0.2104     3.8656     3.8656     0.0000
 50 C      6.0656     6.0000    -0.0656     3.9902     3.9902     0.0000
 51 C      6.1886     6.0000    -0.1886     3.7417     3.7417     0.0000
 52 H      0.9219     1.0000     0.0781     0.9825     0.9825     0.0000
 53 H      1.0080     1.0000    -0.0080     1.0019     1.0019    -0.0000
 54 H      0.9354     1.0000     0.0646     1.0060     1.0060    -0.0000
 55 H      0.9236     1.0000     0.0764     0.9836     0.9836    -0.0000
 56 H      0.9193     1.0000     0.0807     0.9727     0.9727    -0.0000
 57 H      0.9266     1.0000     0.0734     0.9849     0.9849     0.0000
 58 H      0.9284     1.0000     0.0716     0.9865     0.9865    -0.0000
 59 H      1.0266     1.0000    -0.0266     0.9962     0.9962     0.0000
 60 H      0.9362     1.0000     0.0638     1.0050     1.0050    -0.0000
 61 H      0.8233     1.0000     0.1767     1.0436     1.0436    -0.0000
 62 H      0.8317     1.0000     0.1683     1.0433     1.0433     0.0000
 63 H      0.9467     1.0000     0.0533     0.9862     0.9862     0.0000
 64 H      1.0324     1.0000    -0.0324     0.9931     0.9931     0.0000
 65 H      0.9580     1.0000     0.0420     1.0078     1.0078     0.0000
 66 H      0.9445     1.0000     0.0555     0.9847     0.9847     0.0000
 67 H      0.9411     1.0000     0.0589     0.9716     0.9716    -0.0000
 68 H      0.9436     1.0000     0.0564     0.9864     0.9864     0.0000
 69 H      0.9409     1.0000     0.0591     0.9830     0.9830     0.0000
 70 H      1.0153     1.0000    -0.0153     0.9977     0.9977    -0.0000
 71 H      0.9531     1.0000     0.0469     1.0075     1.0075    -0.0000
 72 H      0.9605     1.0000     0.0395     0.9860     0.9860    -0.0000
 73 H      1.0193     1.0000    -0.0193     0.9964     0.9964    -0.0000
 74 H      0.9688     1.0000     0.0312     1.0091     1.0091    -0.0000
 75 H      0.9617     1.0000     0.0383     0.9866     0.9866     0.0000
 76 H      0.9521     1.0000     0.0479     0.9704     0.9704    -0.0000
 77 H      0.9526     1.0000     0.0474     0.9843     0.9843    -0.0000
 78 H      0.9534     1.0000     0.0466     0.9837     0.9837     0.0000
 79 H      1.0122     1.0000    -0.0122     1.0015     1.0015     0.0000
 80 H      0.9688     1.0000     0.0312     1.0064     1.0064     0.0000
 81 H      0.9492     1.0000     0.0508     0.9852     0.9852    -0.0000
 82 H      1.0226     1.0000    -0.0226     0.9952     0.9952    -0.0000
 83 H      0.9570     1.0000     0.0430     1.0105     1.0105    -0.0000
 84 H      0.9500     1.0000     0.0500     0.9863     0.9863     0.0000
 85 H      0.9450     1.0000     0.0550     0.9714     0.9714    -0.0000
 86 H      0.9435     1.0000     0.0565     0.9841     0.9841     0.0000
 87 H      0.9452     1.0000     0.0548     0.9852     0.9852    -0.0000
 88 H      1.0292     1.0000    -0.0292     0.9915     0.9915    -0.0000
 89 H      0.9605     1.0000     0.0395     1.0061     1.0061     0.0000

  Mayer bond orders larger than 0.100000
B(  0-C ,  1-N ) :   1.1875 B(  0-C , 17-C ) :   1.5431 B(  0-C , 52-H ) :   0.9675 
B(  1-N ,  8-C ) :   1.1822 B(  1-N , 10-C ) :   0.9328 B(  2-C , 12-C ) :   1.5709 
B(  2-C , 16-C ) :   1.2842 B(  2-C , 53-H ) :   0.9790 B(  3-N , 14-C ) :   1.1796 
B(  3-N , 16-C ) :   1.2023 B(  3-N , 61-H ) :   0.8957 B(  4-C ,  6-C ) :   1.3422 
B(  4-C , 17-C ) :   1.3408 B(  4-C , 18-C ) :   1.0909 B(  5-N , 19-C ) :   1.3718 
B(  5-N , 27-C ) :   1.4431 B(  6-C ,  8-C ) :   1.5418 B(  6-C , 54-H ) :   0.9707 
B(  7-N , 30-C ) :   1.1866 B(  7-N , 38-C ) :   1.2130 B(  7-N , 62-H ) :   0.9010 
B(  8-C , 55-H ) :   0.9681 B(  9-N , 41-C ) :   1.4321 B(  9-N , 49-C ) :   1.3947 
B( 10-C , 56-H ) :   0.9765 B( 10-C , 57-H ) :   0.9808 B( 10-C , 58-H ) :   0.9821 
B( 11-N , 20-C ) :   1.1027 B( 11-N , 24-C ) :   1.1338 B( 11-N , 25-C ) :   0.9611 
B( 12-C , 14-C ) :   1.2840 B( 12-C , 59-H ) :   0.9770 B( 13-N , 31-C ) :   1.0876 
B( 13-N , 35-C ) :   1.0787 B( 13-N , 36-C ) :   0.9790 B( 14-C , 18-C ) :   1.2487 
B( 15-N , 42-C ) :   1.1252 B( 15-N , 46-C ) :   1.0937 B( 15-N , 47-C ) :   0.9654 
B( 16-C , 51-C ) :   1.2360 B( 17-C , 60-H ) :   0.9711 B( 18-C , 19-C ) :   1.2971 
B( 19-C , 21-C ) :   1.1700 B( 20-C , 28-C ) :   1.6272 B( 20-C , 63-H ) :   0.9708 
B( 21-C , 26-C ) :   1.6760 B( 21-C , 64-H ) :   0.9718 B( 22-C , 23-C ) :   1.2610 
B( 22-C , 28-C ) :   1.2796 B( 22-C , 29-C ) :   1.2533 B( 23-C , 24-C ) :   1.6312 
B( 23-C , 65-H ) :   0.9720 B( 24-C , 66-H ) :   0.9690 B( 25-C , 67-H ) :   0.9763 
B( 25-C , 68-H ) :   0.9833 B( 25-C , 69-H ) :   0.9819 B( 26-C , 27-C ) :   1.1782 
B( 26-C , 70-H ) :   0.9753 B( 27-C , 29-C ) :   1.2402 B( 28-C , 71-H ) :   0.9710 
B( 29-C , 30-C ) :   1.1785 B( 30-C , 32-C ) :   1.3474 B( 31-C , 39-C ) :   1.6766 
B( 31-C , 72-H ) :   0.9707 B( 32-C , 37-C ) :   1.5118 B( 32-C , 73-H ) :   0.9772 
B( 33-C , 34-C ) :   1.2385 B( 33-C , 39-C ) :   1.2315 B( 33-C , 40-C ) :   1.3413 
B( 34-C , 35-C ) :   1.6750 B( 34-C , 74-H ) :   0.9709 B( 35-C , 75-H ) :   0.9707 
B( 36-C , 76-H ) :   0.9756 B( 36-C , 77-H ) :   0.9825 B( 36-C , 78-H ) :   0.9837 
B( 37-C , 38-C ) :   1.3430 B( 37-C , 79-H ) :   0.9790 B( 38-C , 40-C ) :   1.1809 
B( 39-C , 80-H ) :   0.9720 B( 40-C , 41-C ) :   1.1772 B( 41-C , 43-C ) :   1.2475 
B( 42-C , 50-C ) :   1.6401 B( 42-C , 81-H ) :   0.9696 B( 43-C , 48-C ) :   1.6037 
B( 43-C , 82-H ) :   0.9754 B( 44-C , 45-C ) :   1.2802 B( 44-C , 50-C ) :   1.2523 
B( 44-C , 51-C ) :   1.2473 B( 45-C , 46-C ) :   1.6320 B( 45-C , 83-H ) :   0.9704 
B( 46-C , 84-H ) :   0.9708 B( 47-C , 85-H ) :   0.9760 B( 47-C , 86-H ) :   0.9826 
B( 47-C , 87-H ) :   0.9829 B( 48-C , 49-C ) :   1.2424 B( 48-C , 88-H ) :   0.9728 
B( 49-C , 51-C ) :   1.1983 B( 50-C , 89-H ) :   0.9721 

-------
TIMINGS
-------

Total SCF time: 0 days 0 hours 26 min 7 sec 

Total time                  ....    1567.584 sec
Sum of individual times     ....    1563.631 sec  ( 99.7%)

Fock matrix formation       ....    1541.244 sec  ( 98.3%)
Diagonalization             ....       6.695 sec  (  0.4%)
Density matrix formation    ....       0.405 sec  (  0.0%)
Population analysis         ....       0.424 sec  (  0.0%)
Initial guess               ....       1.908 sec  (  0.1%)
Orbital Transformation      ....       0.000 sec  (  0.0%)
Orbital Orthonormalization  ....       0.000 sec  (  0.0%)
DIIS solution               ....       2.879 sec  (  0.2%)
SOSCF solution              ....       9.072 sec  (  0.6%)

Maximum memory used throughout the entire SCF-calculation: 302.6 MB


           ************************************************************
           *        Program running with 16 parallel MPI-processes    *
           *              working on a common directory               *
           ************************************************************

------------------------------------------------------------------------------
                                ORCA  MP2 
------------------------------------------------------------------------------

Freezing NCore=104 chemical core electrons

----------
MP2 ENERGY (disk based algorithm)
----------

Dimension of the basis                    ...  918
Memory devoted to MP2                     ... 2000 MB   
Data format for buffers                   ... DOUBLE
Compression type for matrix containers    ... UNCOMPRESSED

-------------------------------
PARTIAL EXCHANGE TRANSFORMATION
-------------------------------

Transformation type                        ... one-operator
Generation of integrals (i,mue|j,nue)      ... ON
Generation of integrals (mue,kappa|nue,tau)... OFF
Generation of integrals (i,mue|a,nue)      ... OFF
Dimension of the basis                     ...  918
Number of internal MOs                     ...  127 (  52- 178)
Pair cutoff                                ... 2.500e-12 Eh
Number of AO pairs in the trafo            ... 421821
Total Number of distinct AO pairs          ... 421821
Memory devoted for trafo                   ... 2000.0 MB 
Max. Number of MO pairs treated together   ...  311      
Number Format for Storage                  ... Double (8 Byte)
Integral package used                      ... LIBINT

Starting integral evaluation:
    ... done with AO integral generation
Closing buffer AOK     (37.87 GB; CompressionRatio= 1.34)
Collecting buffer AOK 
Number of MO pairs included in the trafo   ... 8128
------------------------
SORTING OF (i,mue|j,nue)
------------------------

IBATCH = 1 of  2
IBATCH = 2 of  2
Closing buffer KAO     (51.03 GB; CompressionRatio= 1.00)
Collecting buffer KAO 
N(AO-Batches) Done                         ...  85625835 
N(AO-Batches) Skipped                      ...  81948385 
N(IJ)-pairs Skipped                        ...         0 
TOTAL TIME for half transformation         ...  2499.821 sec
AO-integral generation                     ...   177.004 sec
Half transformation                        ...   315.227 sec
K-integral sorting                         ...  1872.419 sec
Process 10:   Internal MO 132
Process 13:   Internal MO 156
Process  7:   Internal MO 108
Process  4:   Internal MO  84

Finished integral transformation - now doing MP2 part

OPERATOR COMBINATION   0   0: ij=( 52..178, 52..178)
Process  1:   Internal MO  60
Process  0:   Internal MO  54
Process  2:   Internal MO  69
Process  0:   Internal MO  57
Process  1:   Internal MO  63
Process  2:   Internal MO  72
Process  6:   Internal MO 102
Process  4:   Internal MO  87
Process  5:   Internal MO  93
Process  8:   Internal MO 117
Process 14:   Internal MO 165
Process  1:   Internal MO  66
Process  2:   Internal MO  75
Process 11:   Internal MO 141
Process  7:   Internal MO 111
Process  9:   Internal MO 126
Process 12:   Internal MO 150
Process  4:   Internal MO  90
Process 10:   Internal MO 135
Process  5:   Internal MO  96
Process  6:   Internal MO 105
Process  3:   Internal MO  78
Process 15:   Internal MO 174
Process  3:   Internal MO  81
Process  8:   Internal MO 120
Process  7:   Internal MO 114
Process  9:   Internal MO 129
Process  5:   Internal MO  99
Process 13:   Internal MO 159
Process 11:   Internal MO 144
Process 12:   Internal MO 153
Process 14:   Internal MO 168
Process 10:   Internal MO 138
Process  8:   Internal MO 123
Process 15:   Internal MO 177
Process 11:   Internal MO 147
Process 13:   Internal MO 162
Process 14:   Internal MO 171
-----------------------------------------------
 MP2 CORRELATION ENERGY   :     -7.270950633 Eh
-----------------------------------------------


-------
TIMINGS
-------
Total time                : 2793.027 sec
Integral trafo            : 2501.980 sec ( 89.6%)
K(i,j)                    :    5.038 sec (  0.2%)
T(i,j)                    :    0.707 sec (  0.0%)

---------------------------------------
MP2 TOTAL ENERGY:    -2130.882882569 Eh
---------------------------------------

Maximum memory used throughout the entire MP2-calculation: 2275.2 MB

-------------------------   --------------------
FINAL SINGLE POINT ENERGY     -2130.882882569335
-------------------------   --------------------


                            ***************************************
                            *     ORCA property calculations      *
                            ***************************************


  WARNING: The energy has been calculated at the MP2 level but the densities
           used in the property calculations are still SCF densities
           MP2 response densities have not been calculated 
           use %mp2 Density relaxed end
           or  %mp2 Density unrelaxed end

                                    ---------------------
                                    Active property flags
                                    ---------------------
   (+) Dipole Moment


------------------------------------------------------------------------------
                       ORCA ELECTRIC PROPERTIES CALCULATION
------------------------------------------------------------------------------

Dipole Moment Calculation                       ... on
Quadrupole Moment Calculation                   ... off
Polarizability Calculation                      ... off
GBWName                                         ... /scratch/allen/tmpyp4_amber_gaff2/conf1/conf1/Conf79.orca.gbw
Electron density                                ... /scratch/allen/tmpyp4_amber_gaff2/conf1/conf1/Conf79.orca.scfp
The origin for moment calculation is the CENTER OF MASS  = ( 0.001259, -0.003296  0.004093)

-------------
DIPOLE MOMENT
-------------
                                X             Y             Z
Electronic contribution:     -3.78196       4.27389      -0.14738
Nuclear contribution   :     -0.03678       0.16156       0.19583
                        -----------------------------------------
Total Dipole Moment    :     -3.81874       4.43545       0.04845
                        -----------------------------------------
Magnitude (a.u.)       :      5.85306
Magnitude (Debye)      :     14.87731



--------------------
Rotational spectrum 
--------------------
 
Rotational constants in cm-1:     0.001498     0.001472     0.000763 
Rotational constants in MHz :    44.910631    44.144335    22.864450 

 Dipole components along the rotational axes: 
x,y,z [a.u.] :    -5.205161    -2.676380     0.040655 
x,y,z [Debye]:   -13.230467    -6.802817     0.103338 

 

Timings for individual modules:

Sum of individual times         ...     4381.562 sec (=  73.026 min)
GTO integral calculation        ...        2.669 sec (=   0.044 min)   0.1 %
SCF iterations                  ...     1568.515 sec (=  26.142 min)  35.8 %
MP2 module                      ...     2810.377 sec (=  46.840 min)  64.1 %
                             ****ORCA TERMINATED NORMALLY****
TOTAL RUN TIME: 0 days 1 hours 13 minutes 4 seconds 790 msec
# of primitive gaussian functions

