
                                 *****************
                                 * O   R   C   A *
                                 *****************

                                            #,                                       
                                            ###                                      
                                            ####                                     
                                            #####                                    
                                            ######                                   
                                           ########,                                 
                                     ,,################,,,,,                         
                               ,,#################################,,                 
                          ,,##########################################,,             
                       ,#########################################, ''#####,          
                    ,#############################################,,   '####,        
                  ,##################################################,,,,####,       
                ,###########''''           ''''###############################       
              ,#####''   ,,,,##########,,,,          '''####'''          '####       
            ,##' ,,,,###########################,,,                        '##       
           ' ,,###''''                  '''############,,,                           
         ,,##''                                '''############,,,,        ,,,,,,###''
      ,#''                                            '''#######################'''  
     '                                                          ''''####''''         
             ,#######,   #######,   ,#######,      ##                                
            ,#'     '#,  ##    ##  ,#'     '#,    #''#        ######   ,####,        
            ##       ##  ##   ,#'  ##            #'  '#       #        #'  '#        
            ##       ##  #######   ##           ,######,      #####,   #    #        
            '#,     ,#'  ##    ##  '#,     ,#' ,#      #,         ##   #,  ,#        
             '#######'   ##     ##  '#######'  #'      '#     #####' # '####'        



                  #######################################################
                  #                        -***-                        #
                  #          Department of theory and spectroscopy      #
                  #    Directorship and core code : Frank Neese         #
                  #        Max Planck Institute fuer Kohlenforschung    #
                  #                Kaiser Wilhelm Platz 1               #
                  #                 D-45470 Muelheim/Ruhr               #
                  #                      Germany                        #
                  #                                                     #
                  #                  All rights reserved                #
                  #                        -***-                        #
                  #######################################################


                         Program Version 5.0.4 -  RELEASE  -


 With contributions from (in alphabetic order):
   Daniel Aravena         : Magnetic Suceptibility
   Michael Atanasov       : Ab Initio Ligand Field Theory (pilot matlab implementation)
   Alexander A. Auer      : GIAO ZORA, VPT2 properties, NMR spectrum
   Ute Becker             : Parallelization
   Giovanni Bistoni       : ED, misc. LED, open-shell LED, HFLD
   Martin Brehm           : Molecular dynamics
   Dmytro Bykov           : SCF Hessian
   Vijay G. Chilkuri      : MRCI spin determinant printing, contributions to CSF-ICE
   Dipayan Datta          : RHF DLPNO-CCSD density
   Achintya Kumar Dutta   : EOM-CC, STEOM-CC
   Dmitry Ganyushin       : Spin-Orbit,Spin-Spin,Magnetic field MRCI
   Miquel Garcia          : C-PCM and meta-GGA Hessian, CC/C-PCM, Gaussian charge scheme
   Yang Guo               : DLPNO-NEVPT2, F12-NEVPT2, CIM, IAO-localization
   Andreas Hansen         : Spin unrestricted coupled pair/coupled cluster methods
   Benjamin Helmich-Paris : MC-RPA, TRAH-SCF, COSX integrals
   Lee Huntington         : MR-EOM, pCC
   Robert Izsak           : Overlap fitted RIJCOSX, COSX-SCS-MP3, EOM
   Marcus Kettner         : VPT2
   Christian Kollmar      : KDIIS, OOCD, Brueckner-CCSD(T), CCSD density, CASPT2, CASPT2-K
   Simone Kossmann        : Meta GGA functionals, TD-DFT gradient, OOMP2, MP2 Hessian
   Martin Krupicka        : Initial AUTO-CI
   Lucas Lang             : DCDCAS
   Marvin Lechner         : AUTO-CI (C++ implementation), FIC-MRCC
   Dagmar Lenk            : GEPOL surface, SMD
   Dimitrios Liakos       : Extrapolation schemes; Compound Job, initial MDCI parallelization
   Dimitrios Manganas     : Further ROCIS development; embedding schemes
   Dimitrios Pantazis     : SARC Basis sets
   Anastasios Papadopoulos: AUTO-CI, single reference methods and gradients
   Taras Petrenko         : DFT Hessian,TD-DFT gradient, ASA, ECA, R-Raman, ABS, FL, XAS/XES, NRVS
   Peter Pinski           : DLPNO-MP2, DLPNO-MP2 Gradient
   Christoph Reimann      : Effective Core Potentials
   Marius Retegan         : Local ZFS, SOC
   Christoph Riplinger    : Optimizer, TS searches, QM/MM, DLPNO-CCSD(T), (RO)-DLPNO pert. Triples
   Tobias Risthaus        : Range-separated hybrids, TD-DFT gradient, RPA, STAB
   Michael Roemelt        : Original ROCIS implementation
   Masaaki Saitow         : Open-shell DLPNO-CCSD energy and density
   Barbara Sandhoefer     : DKH picture change effects
   Avijit Sen             : IP-ROCIS
   Kantharuban Sivalingam : CASSCF convergence, NEVPT2, FIC-MRCI
   Bernardo de Souza      : ESD, SOC TD-DFT
   Georgi Stoychev        : AutoAux, RI-MP2 NMR, DLPNO-MP2 response
   Willem Van den Heuvel  : Paramagnetic NMR
   Boris Wezisla          : Elementary symmetry handling
   Frank Wennmohs         : Technical directorship


 We gratefully acknowledge several colleagues who have allowed us to
 interface, adapt or use parts of their codes:
   Stefan Grimme, W. Hujo, H. Kruse, P. Pracht,  : VdW corrections, initial TS optimization,
                  C. Bannwarth, S. Ehlert          DFT functionals, gCP, sTDA/sTD-DF
   Ed Valeev, F. Pavosevic, A. Kumar             : LibInt (2-el integral package), F12 methods
   Garnet Chan, S. Sharma, J. Yang, R. Olivares  : DMRG
   Ulf Ekstrom                                   : XCFun DFT Library
   Mihaly Kallay                                 : mrcc  (arbitrary order and MRCC methods)
   Jiri Pittner, Ondrej Demel                    : Mk-CCSD
   Frank Weinhold                                : gennbo (NPA and NBO analysis)
   Christopher J. Cramer and Donald G. Truhlar   : smd solvation model
   Lars Goerigk                                  : TD-DFT with DH, B97 family of functionals
   V. Asgeirsson, H. Jonsson                     : NEB implementation
   FAccTs GmbH                                   : IRC, NEB, NEB-TS, DLPNO-Multilevel, CI-OPT
                                                   MM, QMMM, 2- and 3-layer-ONIOM, Crystal-QMMM,
                                                   LR-CPCM, SF, NACMEs, symmetry and pop. for TD-DFT,
                                                   nearIR, NL-DFT gradient (VV10), updates on ESD,
                                                   ML-optimized integration grids
   S Lehtola, MJT Oliveira, MAL Marques          : LibXC Library
   Liviu Ungur et al                             : ANISO software


 Your calculation uses the libint2 library for the computation of 2-el integrals
 For citations please refer to: http://libint.valeyev.net

 Your ORCA version has been built with support for libXC version: 5.1.0
 For citations please refer to: https://tddft.org/programs/libxc/

 This ORCA versions uses:
   CBLAS   interface :  Fast vector & matrix operations
   LAPACKE interface :  Fast linear algebra routines
   SCALAPACK package :  Parallel linear algebra routines
   Shared memory     :  Shared parallel matrices
   BLAS/LAPACK       :  OpenBLAS 0.3.15  USE64BITINT DYNAMIC_ARCH NO_AFFINITY Sandybridge SINGLE_THREADED
        Core in use  :  Sandybridge
   Copyright (c) 2011-2014, The OpenBLAS Project


================================================================================

----- Orbital basis set information -----
Your calculation utilizes the basis: cc-pVDZ 
       H, B-Ne : Obtained from the ccRepo (grant-hill.group.shef.ac.uk/ccrepo) Feb. 2017
                 T. H. Dunning, Jr., J. Chem. Phys. 90, 1007 (1989)
            He : Obtained from the ccRepo (grant-hill.group.shef.ac.uk/ccrepo) Feb. 2017
                 D. E. Woon, T. H. Dunning, Jr., J. Chem. Phys. 100, 2975 (1994)
  Li-Be, Na-Mg : Obtained from the ccRepo (grant-hill.group.shef.ac.uk/ccrepo) Feb. 2017
                 B. P. Prascher, D. E. Woon, K. A. Peterson, T. H. Dunning, Jr., A. K. Wilson, Theor. Chem. Acc. 128, 69 (2011)
         Al-Ar : Obtained from the ccRepo (grant-hill.group.shef.ac.uk/ccrepo) Feb. 2017
                 D. E. Woon, T. H. Dunning, Jr., J. Chem. Phys. 98, 1358 (1993)
            Ca : Obtained from the Peterson Research Group Website (tyr0.chem.wsu.edu/~kipeters) Feb. 2017
                 J. Koput, K. A. Peterson, J. Phys. Chem. 106, 9595 (2002)
         Sc-Zn : Obtained from the ccRepo (grant-hill.group.shef.ac.uk/ccrepo) Feb. 2017
                 N. B. Balabanov, K. A. Peterson, J. Chem. Phys. 123, 064107 (2005)
                 N. B. Balabanov, K. A. Peterson, J. Chem. Phys. 125, 074110 (2006)
         Ga-Kr : Obtained from the ccRepo (grant-hill.group.shef.ac.uk/ccrepo) Feb. 2017
                 A. K. Wilson, D. E. Woon, K. A. Peterson, T. H. Dunning, Jr., J. Chem. Phys. 110, 7667 (1999)

================================================================================
                                        WARNINGS
                       Please study these warnings very carefully!
================================================================================


WARNING: No MP2 level density has been requested!
         To caclulate MP2 level properties use
         %mp2 Density relaxed end
         or
         %mp2 Density unrelaxed end

WARNING: Post HF methods need fully converged wavefunctions
  ===> : Setting SCFConvForced true
         You can overwrite this default with %scf ConvForced false 


INFO   : the flag for use of the SHARK integral package has been found!

================================================================================
                                       INPUT FILE
================================================================================
NAME = /scratch/allen/tmpyp4_amber_gaff2/2.Mdgx/conf11/conf11/Conf18.orca
|  1> ! PAL2
|  2> ! mp2 cc-pvdz TightSCF  NoKeepInts
|  3> 
|  4> %scf
|  5>   MaxCore 2000
|  6> end
|  7> %mp2
|  8>   MaxCore 2000
|  9> end
| 10> * xyz 0 1
| 11>    C       -3.07100         6.47600        -0.22300
| 12>    C        1.47400         4.04100         0.05700
| 13>    C       -2.80200         4.09300         0.04900
| 14>    C       -4.16100         4.03100         0.39600
| 15>    C       -4.92400         5.18100         0.41800
| 16>    C       -5.23000         7.59000         0.11200
| 17>    C        0.13200         4.30700         0.06100
| 18>    C       -0.56900         3.05600         0.04700
| 19>    C        1.64900         2.61800         0.02300
| 20>    C       -2.26800         5.35200        -0.26600
| 21>    N       -4.37700         6.38200         0.11500
| 22>    N        0.38800         2.06700         0.02500
| 23>    N       -2.01000         0.39500        -0.07500
| 24>    N       -0.38800        -2.07400        -0.02700
| 25>    N        2.01000        -0.40100         0.06500
| 26>    C       -1.96000         2.86100         0.02400
| 27>    C       -2.62300         1.61500        -0.01800
| 28>    C       -5.57300        -4.32900         1.06600
| 29>    C       -4.07300         1.47100         0.05600
| 30>    C       -4.10600        -2.75600        -0.02600
| 31>    C       -4.99500        -2.75700        -1.11100
| 32>    C       -6.13200        -3.54200        -1.07600
| 33>    C       -7.65100        -5.11300         0.04000
| 34>    C       -4.32400         0.14100         0.03700
| 35>    C       -3.02500        -0.52000        -0.04800
| 36>    C       -4.42200        -3.56600         1.07500
| 37>    N       -6.40700        -4.31300         0.00100
| 38>    C       -2.86700        -1.92200        -0.04000
| 39>    C       -1.65000        -2.62400        -0.02700
| 40>    C        3.56800        -6.14200        -1.04000
| 41>    C       -1.47600        -4.04900        -0.03400
| 42>    C        2.80300        -4.09900        -0.00800
| 43>    C        3.65700        -4.38400         1.06900
| 44>    C        4.42700        -5.53000         1.05900
| 45>    C        5.24500        -7.58800         0.01400
| 46>    C       -0.13400        -4.31500        -0.02200
| 47>    C        0.56800        -3.06400        -0.02700
| 48>    C        2.77500        -5.01200        -1.07400
| 49>    N        4.37600        -6.39100         0.01700
| 50>    C        1.95900        -2.86900        -0.00900
| 51>    C        2.62100        -1.62200         0.00900
| 52>    C        5.54300         4.33900        -1.13000
| 53>    C        4.07000        -1.47900        -0.09400
| 54>    C        4.10400         2.75100        -0.02100
| 55>    C        5.02700         2.72900         1.03600
| 56>    C        6.16600         3.50900         0.97800
| 57>    C        7.61900         5.15300        -0.11500
| 58>    C        4.32100        -0.14800        -0.09200
| 59>    C        3.02500         0.51400         0.01500
| 60>    C        4.38700         3.58200        -1.11500
| 61>    C        2.86600         1.91600         0.01300
| 62>    N        6.41300         4.29600        -0.09500
| 63>    H       -2.69900         7.46800        -0.44600
| 64>    H        2.27400         4.76600         0.08100
| 65>    H       -4.63300         3.08700         0.64000
| 66>    H       -5.97600         5.18200         0.67100
| 67>    H       -5.71400         7.68200        -0.86300
| 68>    H       -5.98100         7.49200         0.89600
| 69>    H       -4.60400         8.46200         0.30300
| 70>    H       -0.33200         5.28200         0.06900
| 71>    H       -1.22300         5.46800        -0.52800
| 72>    H        0.18200         1.07200         0.00500
| 73>    H       -0.18300        -1.08000        -0.02100
| 74>    H       -5.86400        -4.96200         1.89500
| 75>    H       -4.79400         2.27200         0.13900
| 76>    H       -4.80000        -2.16000        -1.99400
| 77>    H       -6.84100        -3.58200        -1.89300
| 78>    H       -8.42800        -4.53600         0.54600
| 79>    H       -7.95600        -5.33700        -0.98100
| 80>    H       -7.45600        -6.03700         0.58400
| 81>    H       -5.28700        -0.34400         0.10000
| 82>    H       -3.78000        -3.60100         1.94700
| 83>    H        3.58700        -6.86800        -1.84300
| 84>    H       -2.27600        -4.77400        -0.05000
| 85>    H        3.71400        -3.72400         1.92600
| 86>    H        5.09200        -5.79500         1.87100
| 87>    H        6.20500        -7.32900        -0.43900
| 88>    H        5.39300        -7.91700         1.04200
| 89>    H        4.75900        -8.37300        -0.56400
| 90>    H        0.32900        -5.29000        -0.00800
| 91>    H        2.14600        -4.84200        -1.94000
| 92>    H        5.80800         4.98600        -1.95600
| 93>    H        4.78800        -2.28100        -0.18500
| 94>    H        4.86000         2.11400         1.91200
| 95>    H        6.90100         3.53100         1.77200
| 96>    H        7.38300         6.10900         0.35600
| 97>    H        8.41400         4.65200         0.43500
| 98>    H        7.92100         5.31000        -1.15000
| 99>    H        5.28300         0.33600        -0.17900
|100>    H        3.72000         3.63200        -1.96700
|101> *
|102> 
|103>                          ****END OF INPUT****
================================================================================

                       ****************************
                       * Single Point Calculation *
                       ****************************

---------------------------------
CARTESIAN COORDINATES (ANGSTROEM)
---------------------------------
  C     -3.071000    6.476000   -0.223000
  C      1.474000    4.041000    0.057000
  C     -2.802000    4.093000    0.049000
  C     -4.161000    4.031000    0.396000
  C     -4.924000    5.181000    0.418000
  C     -5.230000    7.590000    0.112000
  C      0.132000    4.307000    0.061000
  C     -0.569000    3.056000    0.047000
  C      1.649000    2.618000    0.023000
  C     -2.268000    5.352000   -0.266000
  N     -4.377000    6.382000    0.115000
  N      0.388000    2.067000    0.025000
  N     -2.010000    0.395000   -0.075000
  N     -0.388000   -2.074000   -0.027000
  N      2.010000   -0.401000    0.065000
  C     -1.960000    2.861000    0.024000
  C     -2.623000    1.615000   -0.018000
  C     -5.573000   -4.329000    1.066000
  C     -4.073000    1.471000    0.056000
  C     -4.106000   -2.756000   -0.026000
  C     -4.995000   -2.757000   -1.111000
  C     -6.132000   -3.542000   -1.076000
  C     -7.651000   -5.113000    0.040000
  C     -4.324000    0.141000    0.037000
  C     -3.025000   -0.520000   -0.048000
  C     -4.422000   -3.566000    1.075000
  N     -6.407000   -4.313000    0.001000
  C     -2.867000   -1.922000   -0.040000
  C     -1.650000   -2.624000   -0.027000
  C      3.568000   -6.142000   -1.040000
  C     -1.476000   -4.049000   -0.034000
  C      2.803000   -4.099000   -0.008000
  C      3.657000   -4.384000    1.069000
  C      4.427000   -5.530000    1.059000
  C      5.245000   -7.588000    0.014000
  C     -0.134000   -4.315000   -0.022000
  C      0.568000   -3.064000   -0.027000
  C      2.775000   -5.012000   -1.074000
  N      4.376000   -6.391000    0.017000
  C      1.959000   -2.869000   -0.009000
  C      2.621000   -1.622000    0.009000
  C      5.543000    4.339000   -1.130000
  C      4.070000   -1.479000   -0.094000
  C      4.104000    2.751000   -0.021000
  C      5.027000    2.729000    1.036000
  C      6.166000    3.509000    0.978000
  C      7.619000    5.153000   -0.115000
  C      4.321000   -0.148000   -0.092000
  C      3.025000    0.514000    0.015000
  C      4.387000    3.582000   -1.115000
  C      2.866000    1.916000    0.013000
  N      6.413000    4.296000   -0.095000
  H     -2.699000    7.468000   -0.446000
  H      2.274000    4.766000    0.081000
  H     -4.633000    3.087000    0.640000
  H     -5.976000    5.182000    0.671000
  H     -5.714000    7.682000   -0.863000
  H     -5.981000    7.492000    0.896000
  H     -4.604000    8.462000    0.303000
  H     -0.332000    5.282000    0.069000
  H     -1.223000    5.468000   -0.528000
  H      0.182000    1.072000    0.005000
  H     -0.183000   -1.080000   -0.021000
  H     -5.864000   -4.962000    1.895000
  H     -4.794000    2.272000    0.139000
  H     -4.800000   -2.160000   -1.994000
  H     -6.841000   -3.582000   -1.893000
  H     -8.428000   -4.536000    0.546000
  H     -7.956000   -5.337000   -0.981000
  H     -7.456000   -6.037000    0.584000
  H     -5.287000   -0.344000    0.100000
  H     -3.780000   -3.601000    1.947000
  H      3.587000   -6.868000   -1.843000
  H     -2.276000   -4.774000   -0.050000
  H      3.714000   -3.724000    1.926000
  H      5.092000   -5.795000    1.871000
  H      6.205000   -7.329000   -0.439000
  H      5.393000   -7.917000    1.042000
  H      4.759000   -8.373000   -0.564000
  H      0.329000   -5.290000   -0.008000
  H      2.146000   -4.842000   -1.940000
  H      5.808000    4.986000   -1.956000
  H      4.788000   -2.281000   -0.185000
  H      4.860000    2.114000    1.912000
  H      6.901000    3.531000    1.772000
  H      7.383000    6.109000    0.356000
  H      8.414000    4.652000    0.435000
  H      7.921000    5.310000   -1.150000
  H      5.283000    0.336000   -0.179000
  H      3.720000    3.632000   -1.967000

----------------------------
CARTESIAN COORDINATES (A.U.)
----------------------------
  NO LB      ZA    FRAG     MASS         X           Y           Z
   0 C     6.0000    0    12.011   -5.803349   12.237866   -0.421409
   1 C     6.0000    0    12.011    2.785456    7.636383    0.107714
   2 C     6.0000    0    12.011   -5.295013    7.734649    0.092597
   3 C     6.0000    0    12.011   -7.863150    7.617486    0.748332
   4 C     6.0000    0    12.011   -9.305011    9.790671    0.789906
   5 C     6.0000    0    12.011   -9.883268   14.343021    0.211649
   6 C     6.0000    0    12.011    0.249444    8.139050    0.115273
   7 C     6.0000    0    12.011   -1.075254    5.775003    0.088817
   8 C     6.0000    0    12.011    3.116158    4.947303    0.043464
   9 C     6.0000    0    12.011   -4.285899   10.113814   -0.502667
  10 N     7.0000    0    14.007   -8.271331   12.060232    0.217319
  11 N     7.0000    0    14.007    0.733214    3.906064    0.047243
  12 N     7.0000    0    14.007   -3.798350    0.746442   -0.141729
  13 N     7.0000    0    14.007   -0.733214   -3.919292   -0.051023
  14 N     7.0000    0    14.007    3.798350   -0.757780    0.122832
  15 C     6.0000    0    12.011   -3.703863    5.406506    0.045353
  16 C     6.0000    0    12.011   -4.956752    3.051908   -0.034015
  17 C     6.0000    0    12.011  -10.531444   -8.180624    2.014448
  18 C     6.0000    0    12.011   -7.696855    2.779787    0.105825
  19 C     6.0000    0    12.011   -7.759216   -5.208085   -0.049133
  20 C     6.0000    0    12.011   -9.439182   -5.209975   -2.099486
  21 C     6.0000    0    12.011  -11.587801   -6.693410   -2.033345
  22 C     6.0000    0    12.011  -14.458295   -9.662170    0.075589
  23 C     6.0000    0    12.011   -8.171176    0.266451    0.069920
  24 C     6.0000    0    12.011   -5.716422   -0.982658   -0.090707
  25 C     6.0000    0    12.011   -8.356369   -6.738763    2.031456
  26 N     7.0000    0    14.007  -12.107475   -8.150389    0.001890
  27 C     6.0000    0    12.011   -5.417845   -3.632054   -0.075589
  28 C     6.0000    0    12.011   -3.118048   -4.958641   -0.051023
  29 C     6.0000    0    12.011    6.742543  -11.606698   -1.965315
  30 C     6.0000    0    12.011   -2.789236   -7.651501   -0.064251
  31 C     6.0000    0    12.011    5.296902   -7.745987   -0.015118
  32 C     6.0000    0    12.011    6.910728   -8.284559    2.020117
  33 C     6.0000    0    12.011    8.365818  -10.450186    2.001220
  34 C     6.0000    0    12.011    9.911614  -14.339242    0.026456
  35 C     6.0000    0    12.011   -0.253223   -8.154168   -0.041574
  36 C     6.0000    0    12.011    1.073364   -5.790121   -0.051023
  37 C     6.0000    0    12.011    5.243990   -9.471307   -2.029566
  38 N     7.0000    0    14.007    8.269442  -12.077240    0.032125
  39 C     6.0000    0    12.011    3.701973   -5.421624   -0.017008
  40 C     6.0000    0    12.011    4.952972   -3.065136    0.017008
  41 C     6.0000    0    12.011   10.474752    8.199522   -2.135391
  42 C     6.0000    0    12.011    7.691185   -2.794905   -0.177634
  43 C     6.0000    0    12.011    7.755436    5.198637   -0.039684
  44 C     6.0000    0    12.011    9.499653    5.157063    1.957756
  45 C     6.0000    0    12.011   11.652051    6.631049    1.848152
  46 C     6.0000    0    12.011   14.397823    9.737759   -0.217319
  47 C     6.0000    0    12.011    8.165507   -0.279679   -0.173855
  48 C     6.0000    0    12.011    5.716422    0.971319    0.028346
  49 C     6.0000    0    12.011    8.290229    6.768999   -2.107045
  50 C     6.0000    0    12.011    5.415955    3.620715    0.024566
  51 N     7.0000    0    14.007   12.118814    8.118263   -0.179524
  52 H     1.0000    0     1.008   -5.100371   14.112475   -0.842818
  53 H     1.0000    0     1.008    4.297237    9.006435    0.153068
  54 H     1.0000    0     1.008   -8.755101    5.833585    1.209425
  55 H     1.0000    0     1.008  -11.293003    9.792561    1.268006
  56 H     1.0000    0     1.008  -10.797895   14.516876   -1.630834
  57 H     1.0000    0     1.008  -11.302452   14.157828    1.693195
  58 H     1.0000    0     1.008   -8.700299   15.990863    0.572587
  59 H     1.0000    0     1.008   -0.627389    9.981533    0.130391
  60 H     1.0000    0     1.008   -2.311135   10.333023   -0.997775
  61 H     1.0000    0     1.008    0.343930    2.025786    0.009449
  62 H     1.0000    0     1.008   -0.345820   -2.040904   -0.039684
  63 H     1.0000    0     1.008  -11.081354   -9.376821    3.581031
  64 H     1.0000    0     1.008   -9.059347    4.293458    0.262672
  65 H     1.0000    0     1.008   -9.070685   -4.081808   -3.768114
  66 H     1.0000    0     1.008  -12.927616   -6.768999   -3.577252
  67 H     1.0000    0     1.008  -15.926612   -8.571798    1.031790
  68 H     1.0000    0     1.008  -15.034661  -10.085468   -1.853821
  69 H     1.0000    0     1.008  -14.089798  -11.408277    1.103600
  70 H     1.0000    0     1.008   -9.990982   -0.650066    0.188973
  71 H     1.0000    0     1.008   -7.143165   -6.804904    3.679297
  72 H     1.0000    0     1.008    6.778448  -12.978639   -3.482765
  73 H     1.0000    0     1.008   -4.301017   -9.021553   -0.094486
  74 H     1.0000    0     1.008    7.018443   -7.037340    3.639613
  75 H     1.0000    0     1.008    9.622485  -10.950963    3.535678
  76 H     1.0000    0     1.008   11.725751  -13.849803   -0.829590
  77 H     1.0000    0     1.008   10.191293  -14.960962    1.969095
  78 H     1.0000    0     1.008    8.993207  -15.822677   -1.065806
  79 H     1.0000    0     1.008    0.621720   -9.996651   -0.015118
  80 H     1.0000    0     1.008    4.055352   -9.150054   -3.666069
  81 H     1.0000    0     1.008   10.975529    9.422175   -3.696304
  82 H     1.0000    0     1.008    9.048009   -4.310465   -0.349599
  83 H     1.0000    0     1.008    9.184069    3.994881    3.613156
  84 H     1.0000    0     1.008   13.041000    6.672623    3.348595
  85 H     1.0000    0     1.008   13.951848   11.544337    0.672743
  86 H     1.0000    0     1.008   15.900156    8.791006    0.822031
  87 H     1.0000    0     1.008   14.968521   10.034446   -2.173185
  88 H     1.0000    0     1.008    9.983423    0.634948   -0.338261
  89 H     1.0000    0     1.008    7.029781    6.863485   -3.717091

--------------------------------
INTERNAL COORDINATES (ANGSTROEM)
--------------------------------
 C      0   0   0     0.000000000000     0.00000000     0.00000000
 C      1   0   0     5.163782528341     0.00000000     0.00000000
 C      1   2   0     2.413510720921    55.26348914     0.00000000
 C      3   1   2     1.403970797417    87.91228668   166.04365236
 C      4   3   1     1.380272799123   120.14758457     0.19853248
 C      5   4   3     2.447560622334   152.51859489     1.49712997
 C      2   1   3     1.368114030335    17.27446842   355.09023549
 C      7   2   1     1.434084376876   108.05010202   168.28725418
 C      2   1   3     1.434123425651   125.03059675     9.56654687
 C      1   2   3     1.382039796822    26.71888441   344.07292209
 N      1   2   3     1.352300262516   143.48510534    23.88379768
 N      9   2   1     1.376127174356   106.58526707   354.75528873
 N     12   9   2     2.925062050624   168.53581413   171.12065651
 N     13  12   9     2.954513327098    91.55032014    11.12112580
 N     14  13  12     2.925371258490    88.43092389   359.84326247
 C      8   7   2     1.404790019896   127.24786865   181.11170171
 C     13  12   9     1.366535034311    81.72106996   188.00453233
 C     14  13  12     5.758810554272    80.56209567   166.76250791
 C     17  13  12     1.459010623676   111.08861209   183.82872609
 C     18  14  13     2.412235892279    27.27532823    36.33507194
 C     20  18  14     1.402692767501    87.95206320   148.94598259
 C     21  20  18     1.382106725257   120.14573887   359.70382047
 C     18  14  13     2.446510985056   144.15733107    82.80075377
 C     19  17  13     1.353610726908   106.29293361   359.75308708
 C     13  12   9     1.366813447402   172.21332906    33.46711076
 C     18  14  13     1.380960173213    15.08449437   309.23336894
 N     22  21  20     1.352773077792   120.73759875     0.27865223
 C     25  13  17     1.410897586645   125.60330303   182.37774668
 C     14  13  12     1.376642291955    80.24689249   177.85461986
 C     14  13  12     5.764089607215   164.51507311   312.20821879
 C     29  14  13     1.435600919476   106.58649366   178.76395472
 C     30  14  13     2.413316804732    27.10625047    82.12560436
 C     32  30  14     1.403734305344    87.90059683   149.76154742
 C     33  32  30     1.380694028378   120.14881443   359.74174632
 C     34  33  32     2.448777858443   152.49203239     2.45173620
 C     31  29  14     1.368160809262   108.16950133     0.70383075
 C     14  13  12     1.376239804685   169.26375223   353.09862627
 C     30  14  13     1.380907310430    14.68948582   353.70041132
 N     34  33  32     1.352658863128   120.85575621     0.19603406
 C     37  14  29     1.404717053360   126.01551127   180.90772073
 C     15  14  13     1.366491126938    81.61824056   183.09049352
 C      2   1   3     4.249062720177   142.62226113   153.58502420
 C     41  15  14     1.459677704153   111.05201287   175.08990246
 C     42   2   1     2.412953791518    41.78584867   185.15820458
 C     44  42   2     1.403446472082    87.95153797   233.97558675
 C     45  44  42     1.381696421071   120.11137308     0.19721020
 C     42   2   1     2.450019795838   135.97209175    95.47305368
 C     43  41  15     1.354461516618   106.26758155     0.30894352
 C     15  14  13     1.367461151185   171.87382904   332.35056460
 C     42   2   1     1.381886391857    32.59078432   234.01348377
 C      9   2   1     1.404988612053   126.98745415   175.75962626
 N     42   2   1     1.352765315936   113.57249190   123.20964287
 H      1   2   3     1.082671233570    98.09468411   185.85242189
 H      2   1   3     1.079907866440   109.67341536   185.96313422
 H      4   3   1     1.083261741224   121.05887473   179.54163322
 H      5   4   3     1.081995378918   122.81727831   179.48744147
 H      6   5   4     1.092403313799   104.46979194   100.20790310
 H      6   5   4     1.090073850709    84.70575290   209.66718691
 H      6   5   4     1.090293997049   133.90778255   322.42245322
 H      7   2   1     1.079807853278   126.66122480   348.52566797
 H     10   1   2     1.083570486863   118.73770590   334.48431177
 H     12   9   2     1.016297692608   125.29023241   180.00180175
 H     14  13  12     1.014936943854    44.97226959   359.42596618
 H     18  14  13     1.082871645210   128.03556573   234.20482432
 H     55   4   3     0.970127311233   133.47857790   297.27865105
 H     21  20  18     1.083569563987   121.05669627   180.67006309
 H     22  21  20     1.082483256222   122.73097286   180.59748951
 H     23  18  14     1.092105306278   103.92715769   234.93429879
 H     23  18  14     1.088871893291   134.19244188    12.25587044
 H     23  18  14     1.089833473518    84.85857450   125.45241208
 H     24  19  17     1.080075460327   127.28078426   178.44613241
 H     26  18  14     1.083408048706   118.76995697   244.94906660
 H     30  14  13     1.082703098730   127.99711412   279.66882698
 H     31  29  14     1.079759695488   125.22293469   180.92530585
 H     33  32  30     1.083188810873   121.01964473   180.74284758
 H     34  33  32     1.082494341787   122.70821597   180.59516895
 H     35  34  33     1.092652735319   105.73575241    97.19771933
 H     35  34  33     1.089462711615    84.05943581   206.43036958
 H     35  34  33     1.089268102902   133.08365142   318.50306270
 H     36  31  29     1.079439669458   126.61599965   178.98859863
 H     38  30  73     1.083742127999   118.77264435   359.90091293
 H     42   2   1     1.082178358682   119.31790784   339.84117333
 H     43  41  15     1.080281907652   126.36969097   182.06329380
 H     45  44  42     1.083277434455   121.10105945   179.58025624
 H     46  45  44     1.082194529648   122.72144639   179.46906377
 H     47  42   2     1.091546151109   106.65128841   315.16475048
 H     47  42   2     1.088818625851   132.46019523    94.52397119
 H     47  42   2     1.089531091801    83.63838232   206.04504406
 H     48  43  41     1.080402239909   127.23657387   181.62955349
 H     50  42   2     1.083186502870   118.77001737    94.71359229

---------------------------
INTERNAL COORDINATES (A.U.)
---------------------------
 C      0   0   0     0.000000000000     0.00000000     0.00000000
 C      1   0   0     9.758134793692     0.00000000     0.00000000
 C      1   2   0     4.560874283823    55.26348914     0.00000000
 C      3   1   2     2.653120307141    87.91228668   166.04365236
 C      4   3   1     2.608337580444   120.14758457     0.19853248
 C      5   4   3     4.625219272381   152.51859489     1.49712997
 C      2   1   3     2.585360837309    17.27446842   355.09023549
 C      7   2   1     2.710026725231   108.05010202   168.28725418
 C      2   1   3     2.710100516721   125.03059675     9.56654687
 C      1   2   3     2.611676722174    26.71888441   344.07292209
 N      1   2   3     2.555477146984   143.48510534    23.88379768
 N      9   2   1     2.600503484979   106.58526707   354.75528873
 N     12   9   2     5.527566200405   168.53581413   171.12065651
 N     13  12   9     5.583221047236    91.55032014    11.12112580
 N     14  13  12     5.528150518591    88.43092389   359.84326247
 C      8   7   2     2.654668413270   127.24786865   181.11170171
 C     13  12   9     2.582376967257    81.72106996   188.00453233
 C     14  13  12    10.882574804710    80.56209567   166.76250791
 C     17  13  12     2.757130505230   111.08861209   183.82872609
 C     18  14  13     4.558465206823    27.27532823    36.33507194
 C     20  18  14     2.650705180609    87.95206320   148.94598259
 C     21  20  18     2.611803198586   120.14573887   359.70382047
 C     18  14  13     4.623235745386   144.15733107    82.80075377
 C     19  17  13     2.557953565794   106.29293361   359.75308708
 C     13  12   9     2.582903091751   172.21332906    33.46711076
 C     18  14  13     2.609636529225    15.08449437   309.23336894
 N     22  21  20     2.556370638369   120.73759875     0.27865223
 C     25  13  17     2.666210041769   125.60330303   182.37774668
 C     14  13  12     2.601476916169    80.24689249   177.85461986
 C     14  13  12    10.892550769017   164.51507311   312.20821879
 C     29  14  13     2.712892575415   106.58649366   178.76395472
 C     30  14  13     4.560507835333    27.10625047    82.12560436
 C     32  30  14     2.652673401891    87.90059683   149.76154742
 C     33  32  30     2.609133588376   120.14881443   359.74174632
 C     34  33  32     4.627519515267   152.49203239     2.45173620
 C     31  29  14     2.585449236669   108.16950133     0.70383075
 C     14  13  12     2.600716325456   169.26375223   353.09862627
 C     30  14  13     2.609536633043    14.68948582   353.70041132
 N     34  33  32     2.556154803934   120.85575621     0.19603406
 C     37  14  29     2.654530526499   126.01551127   180.90772073
 C     15  14  13     2.582293994346    81.61824056   183.09049352
 C      2   1   3     8.029564866989   142.62226113   153.58502420
 C     41  15  14     2.758391104639   111.05201287   175.08990246
 C     42   2   1     4.559821839776    41.78584867   185.15820458
 C     44  42   2     2.652129475853    87.95153797   233.97558675
 C     45  44  42     2.611027836043   120.11137308     0.19721020
 C     42   2   1     4.629866436820   135.97209175    95.47305368
 C     43  41  15     2.559561325344   106.26758155     0.30894352
 C     15  14  13     2.584127074516   171.87382904   332.35056460
 C     42   2   1     2.611386828803    32.59078432   234.01348377
 C      9   2   1     2.655043698059   126.98745415   175.75962626
 N     42   2   1     2.556355970587   113.57249190   123.20964287
 H      1   2   3     2.045952124522    98.09468411   185.85242189
 H      2   1   3     2.040730117440   109.67341536   185.96313422
 H      4   3   1     2.047068022268   121.05887473   179.54163322
 H      5   4   3     2.044674944323   122.81727831   179.48744147
 H      6   5   4     2.064343090869   104.46979194   100.20790310
 H      6   5   4     2.059941043589    84.70575290   209.66718691
 H      6   5   4     2.060357059880   133.90778255   322.42245322
 H      7   2   1     2.040541119952   126.66122480   348.52566797
 H     10   1   2     2.047651466970   118.73770590   334.48431177
 H     12   9   2     1.920524309565   125.29023241   180.00180175
 H     14  13  12     1.917952867083    44.97226959   359.42596618
 H     18  14  13     2.046330847636   128.03556573   234.20482432
 H     55   4   3     1.833274933268   133.47857790   297.27865105
 H     21  20  18     2.047649722989   121.05669627   180.67006309
 H     22  21  20     2.045596898814   122.73097286   180.59748951
 H     23  18  14     2.063779938267   103.92715769   234.93429879
 H     23  18  14     2.057669673245   134.19244188    12.25587044
 H     23  18  14     2.059486796529    84.85857450   125.45241208
 H     24  19  17     2.041046823986   127.28078426   178.44613241
 H     26  18  14     2.047344503340   118.76995697   244.94906660
 H     30  14  13     2.046012340948   127.99711412   279.66882698
 H     31  29  14     2.040450114918   125.22293469   180.92530585
 H     33  32  30     2.046930203877   121.01964473   180.74284758
 H     34  33  32     2.045617847496   122.70821597   180.59516895
 H     35  34  33     2.064814429233   105.73575241    97.19771933
 H     35  34  33     2.058786158072    84.05943581   206.43036958
 H     35  34  33     2.058418400901   133.08365142   318.50306270
 H     36  31  29     2.039845353366   126.61599965   178.98859863
 H     38  30  73     2.047975821711   118.77264435   359.90091293
 H     42   2   1     2.045020725966   119.31790784   339.84117333
 H     43  41  15     2.041436952892   126.36969097   182.06329380
 H     45  44  42     2.047097678177   121.10105945   179.58025624
 H     46  45  44     2.045051284662   122.72144639   179.46906377
 H     47  42   2     2.062723288131   106.65128841   315.16475048
 H     47  42   2     2.057569012371   132.46019523    94.52397119
 H     47  42   2     2.058915377895    83.63838232   206.04504406
 H     48  43  41     2.041664347903   127.23657387   181.62955349
 H     50  42   2     2.046925842384   118.77001737    94.71359229

---------------------
BASIS SET INFORMATION
---------------------
There are 3 groups of distinct atoms

 Group   1 Type C   : 17s4p1d contracted to 3s2p1d pattern {881/31/1}
 Group   2 Type N   : 17s4p1d contracted to 3s2p1d pattern {881/31/1}
 Group   3 Type H   : 4s1p contracted to 2s1p pattern {31/1}

Atom   0C    basis set group =>   1
Atom   1N    basis set group =>   2
Atom   2C    basis set group =>   1
Atom   3N    basis set group =>   2
Atom   4C    basis set group =>   1
Atom   5N    basis set group =>   2
Atom   6C    basis set group =>   1
Atom   7N    basis set group =>   2
Atom   8C    basis set group =>   1
Atom   9N    basis set group =>   2
Atom  10C    basis set group =>   1
Atom  11N    basis set group =>   2
Atom  12C    basis set group =>   1
Atom  13N    basis set group =>   2
Atom  14C    basis set group =>   1
Atom  15N    basis set group =>   2
Atom  16C    basis set group =>   1
Atom  17C    basis set group =>   1
Atom  18C    basis set group =>   1
Atom  19C    basis set group =>   1
Atom  20C    basis set group =>   1
Atom  21C    basis set group =>   1
Atom  22C    basis set group =>   1
Atom  23C    basis set group =>   1
Atom  24C    basis set group =>   1
Atom  25C    basis set group =>   1
Atom  26C    basis set group =>   1
Atom  27C    basis set group =>   1
Atom  28C    basis set group =>   1
Atom  29C    basis set group =>   1
Atom  30C    basis set group =>   1
Atom  31C    basis set group =>   1
Atom  32C    basis set group =>   1
Atom  33C    basis set group =>   1
Atom  34C    basis set group =>   1
Atom  35C    basis set group =>   1
Atom  36C    basis set group =>   1
Atom  37C    basis set group =>   1
Atom  38C    basis set group =>   1
Atom  39C    basis set group =>   1
Atom  40C    basis set group =>   1
Atom  41C    basis set group =>   1
Atom  42C    basis set group =>   1
Atom  43C    basis set group =>   1
Atom  44C    basis set group =>   1
Atom  45C    basis set group =>   1
Atom  46C    basis set group =>   1
Atom  47C    basis set group =>   1
Atom  48C    basis set group =>   1
Atom  49C    basis set group =>   1
Atom  50C    basis set group =>   1
Atom  51C    basis set group =>   1
Atom  52H    basis set group =>   3
Atom  53H    basis set group =>   3
Atom  54H    basis set group =>   3
Atom  55H    basis set group =>   3
Atom  56H    basis set group =>   3
Atom  57H    basis set group =>   3
Atom  58H    basis set group =>   3
Atom  59H    basis set group =>   3
Atom  60H    basis set group =>   3
Atom  61H    basis set group =>   3
Atom  62H    basis set group =>   3
Atom  63H    basis set group =>   3
Atom  64H    basis set group =>   3
Atom  65H    basis set group =>   3
Atom  66H    basis set group =>   3
Atom  67H    basis set group =>   3
Atom  68H    basis set group =>   3
Atom  69H    basis set group =>   3
Atom  70H    basis set group =>   3
Atom  71H    basis set group =>   3
Atom  72H    basis set group =>   3
Atom  73H    basis set group =>   3
Atom  74H    basis set group =>   3
Atom  75H    basis set group =>   3
Atom  76H    basis set group =>   3
Atom  77H    basis set group =>   3
Atom  78H    basis set group =>   3
Atom  79H    basis set group =>   3
Atom  80H    basis set group =>   3
Atom  81H    basis set group =>   3
Atom  82H    basis set group =>   3
Atom  83H    basis set group =>   3
Atom  84H    basis set group =>   3
Atom  85H    basis set group =>   3
Atom  86H    basis set group =>   3
Atom  87H    basis set group =>   3
Atom  88H    basis set group =>   3
Atom  89H    basis set group =>   3


           ************************************************************
           *        Program running with 16 parallel MPI-processes    *
           *              working on a common directory               *
           ************************************************************
------------------------------------------------------------------------------
                           ORCA GTO INTEGRAL CALCULATION
------------------------------------------------------------------------------
------------------------------------------------------------------------------
                   ___                                                        
                  /   \      - P O W E R E D   B Y -                         
                 /     \                                                     
                 |  |  |   _    _      __       _____    __    __             
                 |  |  |  | |  | |    /  \     |  _  \  |  |  /  |          
                  \  \/   | |  | |   /    \    | | | |  |  | /  /          
                 / \  \   | |__| |  /  /\  \   | |_| |  |  |/  /          
                |  |  |   |  __  | /  /__\  \  |    /   |      \           
                |  |  |   | |  | | |   __   |  |    \   |  |\   \          
                \     /   | |  | | |  |  |  |  | |\  \  |  | \   \       
                 \___/    |_|  |_| |__|  |__|  |_| \__\ |__|  \__/        
                                                                              
                      - O R C A' S   B I G   F R I E N D -                    
                                      &                                       
                       - I N T E G R A L  F E E D E R -                       
                                                                              
 v1 FN, 2020, v2 2021                                                         
------------------------------------------------------------------------------


Reading SHARK input file /scratch/allen/tmpyp4_amber_gaff2/conf1/conf1/Conf18.orca.SHARKINP.tmp ... ok
----------------------
SHARK INTEGRAL PACKAGE
----------------------

Number of atoms                             ...     90
Number of basis functions                   ...   1230
Number of shells                            ...    738
Maximum angular momentum                    ...      2
Integral batch strategy                     ... SHARK/LIBINT Hybrid
RI-J (if used) integral strategy            ... SPLIT-RIJ (Revised 2003 algorithm where possible)
Printlevel                                  ...      1
Contraction scheme used                     ... PARTIAL GENERAL contraction
Coulomb Range Separation                    ... NOT USED
Exchange Range Separation                   ... NOT USED
Finite Nucleus Model                        ... NOT USED
Auxiliary Coulomb fitting basis             ... NOT available
Auxiliary J/K fitting basis                 ... NOT available
Auxiliary Correlation fitting basis         ... NOT available
Auxiliary 'external' fitting basis          ... NOT available
Integral threshold                          ...     2.500000e-11
Primitive cut-off                           ...     2.500000e-12
Primitive pair pre-selection threshold      ...     2.500000e-12

Calculating pre-screening integrals         ... done (  0.1 sec) Dimension = 738
Calculating pre-screening integrals (ORCA)  ... done (  0.3 sec) Dimension = 426
Organizing shell pair data                  ... done (  0.5 sec)
Shell pair information
Total number of shell pairs                 ...    272691
Shell pairs after pre-screening             ...     71719
Total number of primitive shell pairs       ...    422091
Primitive shell pairs kept                  ...     92622
          la=0 lb=0:  29444 shell pairs
          la=1 lb=0:  26031 shell pairs
          la=1 lb=1:   4701 shell pairs
          la=2 lb=0:   7889 shell pairs
          la=2 lb=1:   3125 shell pairs
          la=2 lb=2:    529 shell pairs

Calculating one electron integrals          ... done (  0.2 sec)
Calculating Nuclear repulsion               ... done (  0.0 sec) ENN=   6234.385310975797 Eh

SHARK setup successfully completed in   1.7 seconds

Maximum memory used throughout the entire GTOINT-calculation: 99.1 MB


           ************************************************************
           *        Program running with 16 parallel MPI-processes    *
           *              working on a common directory               *
           ************************************************************
-------------------------------------------------------------------------------
                                 ORCA SCF
-------------------------------------------------------------------------------

------------
SCF SETTINGS
------------
Hamiltonian:
 Ab initio Hamiltonian  Method          .... Hartree-Fock(GTOs)


General Settings:
 Integral files         IntName         .... /scratch/allen/tmpyp4_amber_gaff2/conf1/conf1/Conf18.orca
 Hartree-Fock type      HFTyp           .... RHF
 Total Charge           Charge          ....    0
 Multiplicity           Mult            ....    1
 Number of Electrons    NEL             ....  358
 Basis Dimension        Dim             ....  918
 Nuclear Repulsion      ENuc            ....   6234.3853109758 Eh

Convergence Acceleration:
 DIIS                   CNVDIIS         .... on
   Start iteration      DIISMaxIt       ....    12
   Startup error        DIISStart       ....  0.200000
   # of expansion vecs  DIISMaxEq       ....     5
   Bias factor          DIISBfac        ....   1.050
   Max. coefficient     DIISMaxC        ....  10.000
 Trust-Rad. Augm. Hess. CNVTRAH         .... auto
   Auto Start mean grad. ratio tolernc. ....  1.125000
   Auto Start start iteration           ....    20
   Auto Start num. interpolation iter.  ....    10
   Max. Number of Micro iterations      ....    16
   Max. Number of Macro iterations      .... Maxiter - #DIIS iter
   Number of Davidson start vectors     ....     2
   Converg. threshold I  (grad. norm)   ....   1.000e-05
   Converg. threshold II (energy diff.) ....   1.000e-08
   Grad. Scal. Fac. for Micro threshold ....   0.100
   Minimum threshold for Micro iter.    ....   0.010
   NR start threshold (gradient norm)   ....   0.001
   Initial trust radius                 ....   0.400
   Minimum AH scaling param. (alpha)    ....   1.000
   Maximum AH scaling param. (alpha)    .... 1000.000
   Orbital update algorithm             .... Taylor
   White noise on init. David. guess    .... on
   Maximum white noise                  ....   0.010
   Quad. conv. algorithm                .... NR
 SOSCF                  CNVSOSCF        .... on
   Start iteration      SOSCFMaxIt      ....   150
   Startup grad/error   SOSCFStart      ....  0.003300
 Level Shifting         CNVShift        .... on
   Level shift para.    LevelShift      ....    0.2500
   Turn off err/grad.   ShiftErr        ....    0.0010
 Zerner damping         CNVZerner       .... off
 Static damping         CNVDamp         .... on
   Fraction old density DampFac         ....    0.7000
   Max. Damping (<1)    DampMax         ....    0.9800
   Min. Damping (>=0)   DampMin         ....    0.0000
   Turn off err/grad.   DampErr         ....    0.1000
 Fernandez-Rico         CNVRico         .... off

SCF Procedure:
 Maximum # iterations   MaxIter         ....   125
 SCF integral mode      SCFMode         .... Direct
   Integral package                     .... SHARK and LIBINT hybrid scheme
 Reset frequency        DirectResetFreq ....    20
 Integral Threshold     Thresh          ....  2.500e-11 Eh
 Primitive CutOff       TCut            ....  2.500e-12 Eh

Convergence Tolerance:
 Convergence Check Mode ConvCheckMode   .... Total+1el-Energy
 Convergence forced     ConvForced      .... 1
 Energy Change          TolE            ....  1.000e-08 Eh
 1-El. energy change                    ....  1.000e-05 Eh
 Orbital Gradient       TolG            ....  1.000e-05
 Orbital Rotation angle TolX            ....  1.000e-05
 DIIS Error             TolErr          ....  5.000e-07


Diagonalization of the overlap matrix:
Smallest eigenvalue                        ... 1.940e-04
Time for diagonalization                   ...    0.342 sec
Threshold for overlap eigenvalues          ... 1.000e-08
Number of eigenvalues below threshold      ... 0
Time for construction of square roots      ...    0.193 sec
Total time needed                          ...    0.540 sec

Time for model grid setup =    1.000 sec

------------------------------
INITIAL GUESS: MODEL POTENTIAL
------------------------------
Loading Hartree-Fock densities                     ... done
Calculating cut-offs                               ... done
Initializing the effective Hamiltonian             ... done
Setting up the integral package (SHARK)            ... done
Starting the Coulomb interaction                   ... done (   1.1 sec)
Reading the grid                                   ... done
Mapping shells                                     ... done
Starting the XC term evaluation                    ... done (   0.2 sec)
Transforming the Hamiltonian                       ... done (   0.2 sec)
Diagonalizing the Hamiltonian                      ... done (   0.3 sec)
Back transforming the eigenvectors                 ... done (   0.1 sec)
Now organizing SCF variables                       ... done
                      ------------------
                      INITIAL GUESS DONE (   2.9 sec)
                      ------------------
--------------
SCF ITERATIONS
--------------
ITER       Energy         Delta-E        Max-DP      RMS-DP      [F,P]     Damp
               ***  Starting incremental Fock matrix formation  ***
  0  -2121.6227427371   0.000000000000 0.07454250  0.00126134  0.2313768 0.7000
  1  -2122.2671988750  -0.644456137814 0.05849508  0.00103004  0.1435345 0.7000
                               ***Turning on DIIS***
  2  -2122.6689937805  -0.401794905549 0.13223459  0.00233190  0.0802892 0.0000
  3  -2118.0143351982   4.654658582278 0.07289943  0.00070862  0.0435228 0.0000
  4  -2123.3608481753  -5.346512977118 0.02070491  0.00023255  0.0091459 0.0000
  5  -2123.4979788000  -0.137130624615 0.00969421  0.00013444  0.0048591 0.0000
  6  -2123.4822439986   0.015734801371 0.00596719  0.00008607  0.0022173 0.0000
  7  -2123.5752571677  -0.093013169067 0.00363210  0.00006770  0.0016081 0.0000
  8  -2123.5825768479  -0.007319680220 0.00329305  0.00006457  0.0015058 0.0000
  9  -2123.5553437450   0.027233102919 0.00264040  0.00004586  0.0012101 0.0000
 10  -2123.5631971913  -0.007853446383 0.00529458  0.00009597  0.0009456 0.0000
                      *** Initiating the SOSCF procedure ***
                           *** Shutting down DIIS ***
                      *** Re-Reading the Fockian *** 
                      *** Removing any level shift *** 
ITER      Energy       Delta-E        Grad      Rot      Max-DP    RMS-DP
 11  -2123.45707495   0.1061222424  0.000179  0.000179  0.000243  0.000005
               *** Restarting incremental Fock matrix formation ***
 12  -2123.52291169  -0.0658367440  0.000907  0.006206  0.001459  0.000035
 13  -2123.52302310  -0.0001114092  0.001124  0.030393  0.006600  0.000137
 14  -2123.52320985  -0.0001867438  0.000375  0.001621  0.000600  0.000012
 15  -2123.52322517  -0.0000153255  0.000190  0.002495  0.000550  0.000014
 16  -2123.52323274  -0.0000075683  0.000139  0.002256  0.000460  0.000009
 17  -2123.52323553  -0.0000027946  0.000137  0.002072  0.000312  0.000008
 18  -2123.52323695  -0.0000014197  0.000063  0.001221  0.000240  0.000005
 19  -2123.52323778  -0.0000008303  0.000047  0.001611  0.000258  0.000006
 20  -2123.52323828  -0.0000004967  0.000028  0.001027  0.000150  0.000003
 21  -2123.52323853  -0.0000002509  0.000028  0.001252  0.000182  0.000004
 22  -2123.52323877  -0.0000002413  0.000025  0.001034  0.000158  0.000003
 23  -2123.52323892  -0.0000001428  0.000016  0.000453  0.000073  0.000002
 24  -2123.52323897  -0.0000000582  0.000009  0.000302  0.000057  0.000001
 25  -2123.52323901  -0.0000000337  0.000009  0.000151  0.000044  0.000001
 26  -2123.52323902  -0.0000000133  0.000006  0.000096  0.000032  0.000000
 27  -2123.52323902  -0.0000000003  0.000003  0.000065  0.000022  0.000000
                  ***Gradient check signals convergence***
              ***Rediagonalizing the Fockian in SOSCF/NRSCF***

               *****************************************************
               *                     SUCCESS                       *
               *           SCF CONVERGED AFTER  28 CYCLES          *
               *****************************************************


----------------
TOTAL SCF ENERGY
----------------

Total Energy       :        -2123.52323902 Eh          -57784.00502 eV

Components:
Nuclear Repulsion  :         6234.38531098 Eh          169646.24896 eV
Electronic Energy  :        -8357.90855000 Eh         -227430.25398 eV
One Electron Energy:       -15309.32194578 Eh         -416587.82906 eV
Two Electron Energy:         6951.41339579 Eh          189157.57508 eV

Virial components:
Potential Energy   :        -4245.98675902 Eh         -115539.17361 eV
Kinetic Energy     :         2122.46352000 Eh           57755.16860 eV
Virial Ratio       :            2.00049929


---------------
SCF CONVERGENCE
---------------

  Last Energy change         ...    1.9445e-09  Tolerance :   1.0000e-08
  Last MAX-Density change    ...    9.5358e-06  Tolerance :   1.0000e-07
  Last RMS-Density change    ...    1.9113e-07  Tolerance :   5.0000e-09
  Last Orbital Gradient      ...    2.0233e-06  Tolerance :   1.0000e-05
  Last Orbital Rotation      ...    4.0647e-05  Tolerance :   1.0000e-05

             **** THE GBW FILE WAS UPDATED (/scratch/allen/tmpyp4_amber_gaff2/conf1/conf1/Conf18.orca.gbw) ****
             **** DENSITY /scratch/allen/tmpyp4_amber_gaff2/conf1/conf1/Conf18.orca.scfp WAS UPDATED ****
             **** ENERGY FILE WAS UPDATED (/scratch/allen/tmpyp4_amber_gaff2/conf1/conf1/Conf18.orca.en.tmp) ****
             **** THE GBW FILE WAS UPDATED (/scratch/allen/tmpyp4_amber_gaff2/conf1/conf1/Conf18.orca.gbw) ****
             **** DENSITY /scratch/allen/tmpyp4_amber_gaff2/conf1/conf1/Conf18.orca.scfp WAS UPDATED ****
----------------
ORBITAL ENERGIES
----------------

  NO   OCC          E(Eh)            E(eV) 
   0   2.0000     -15.679231      -426.6536 
   1   2.0000     -15.633009      -425.3958 
   2   2.0000     -15.632695      -425.3873 
   3   2.0000     -15.588401      -424.1820 
   4   2.0000     -15.524896      -422.4539 
   5   2.0000     -15.515743      -422.2048 
   6   2.0000     -15.453996      -420.5246 
   7   2.0000     -15.439681      -420.1351 
   8   2.0000     -11.328857      -308.2739 
   9   2.0000     -11.328007      -308.2507 
  10   2.0000     -11.327590      -308.2394 
  11   2.0000     -11.298900      -307.4587 
  12   2.0000     -11.298724      -307.4539 
  13   2.0000     -11.292178      -307.2758 
  14   2.0000     -11.291910      -307.2685 
  15   2.0000     -11.287315      -307.1434 
  16   2.0000     -11.285741      -307.1006 
  17   2.0000     -11.281518      -306.9857 
  18   2.0000     -11.270304      -306.6806 
  19   2.0000     -11.262994      -306.4816 
  20   2.0000     -11.261995      -306.4545 
  21   2.0000     -11.252731      -306.2024 
  22   2.0000     -11.249375      -306.1111 
  23   2.0000     -11.237431      -305.7860 
  24   2.0000     -11.236801      -305.7689 
  25   2.0000     -11.230422      -305.5953 
  26   2.0000     -11.230390      -305.5944 
  27   2.0000     -11.230243      -305.5904 
  28   2.0000     -11.229635      -305.5739 
  29   2.0000     -11.210599      -305.0559 
  30   2.0000     -11.209334      -305.0215 
  31   2.0000     -11.194952      -304.6301 
  32   2.0000     -11.191337      -304.5318 
  33   2.0000     -11.191126      -304.5260 
  34   2.0000     -11.188647      -304.4586 
  35   2.0000     -11.188506      -304.4547 
  36   2.0000     -11.187272      -304.4212 
  37   2.0000     -11.180005      -304.2234 
  38   2.0000     -11.175020      -304.0878 
  39   2.0000     -11.174318      -304.0686 
  40   2.0000     -11.171529      -303.9927 
  41   2.0000     -11.171272      -303.9858 
  42   2.0000     -11.167831      -303.8921 
  43   2.0000     -11.162055      -303.7350 
  44   2.0000     -11.160170      -303.6837 
  45   2.0000     -11.156984      -303.5970 
  46   2.0000     -11.156512      -303.5841 
  47   2.0000     -11.153263      -303.4957 
  48   2.0000     -11.147288      -303.3331 
  49   2.0000     -11.135742      -303.0190 
  50   2.0000     -11.129294      -302.8435 
  51   2.0000     -11.117067      -302.5108 
  52   2.0000      -1.359909       -37.0050 
  53   2.0000      -1.320392       -35.9297 
  54   2.0000      -1.320359       -35.9288 
  55   2.0000      -1.281195       -34.8631 
  56   2.0000      -1.225892       -33.3582 
  57   2.0000      -1.210394       -32.9365 
  58   2.0000      -1.173633       -31.9362 
  59   2.0000      -1.150544       -31.3079 
  60   2.0000      -1.143289       -31.1105 
  61   2.0000      -1.110286       -30.2124 
  62   2.0000      -1.108856       -30.1735 
  63   2.0000      -1.081640       -29.4329 
  64   2.0000      -1.077692       -29.3255 
  65   2.0000      -1.044979       -28.4353 
  66   2.0000      -1.044614       -28.4254 
  67   2.0000      -1.040882       -28.3238 
  68   2.0000      -1.014910       -27.6171 
  69   2.0000      -1.013146       -27.5691 
  70   2.0000      -1.009080       -27.4585 
  71   2.0000      -0.993265       -27.0281 
  72   2.0000      -0.985834       -26.8259 
  73   2.0000      -0.981469       -26.7071 
  74   2.0000      -0.972809       -26.4715 
  75   2.0000      -0.962207       -26.1830 
  76   2.0000      -0.954695       -25.9786 
  77   2.0000      -0.945724       -25.7345 
  78   2.0000      -0.937062       -25.4987 
  79   2.0000      -0.917310       -24.9613 
  80   2.0000      -0.910110       -24.7654 
  81   2.0000      -0.896393       -24.3921 
  82   2.0000      -0.876394       -23.8479 
  83   2.0000      -0.871640       -23.7185 
  84   2.0000      -0.870827       -23.6964 
  85   2.0000      -0.859347       -23.3840 
  86   2.0000      -0.843069       -22.9411 
  87   2.0000      -0.835560       -22.7367 
  88   2.0000      -0.827049       -22.5051 
  89   2.0000      -0.796822       -21.6826 
  90   2.0000      -0.789454       -21.4821 
  91   2.0000      -0.760019       -20.6812 
  92   2.0000      -0.752325       -20.4718 
  93   2.0000      -0.733413       -19.9572 
  94   2.0000      -0.726592       -19.7716 
  95   2.0000      -0.723226       -19.6800 
  96   2.0000      -0.718628       -19.5549 
  97   2.0000      -0.716141       -19.4872 
  98   2.0000      -0.712281       -19.3821 
  99   2.0000      -0.698050       -18.9949 
 100   2.0000      -0.697138       -18.9701 
 101   2.0000      -0.691887       -18.8272 
 102   2.0000      -0.684963       -18.6388 
 103   2.0000      -0.683974       -18.6119 
 104   2.0000      -0.678533       -18.4638 
 105   2.0000      -0.674464       -18.3531 
 106   2.0000      -0.672289       -18.2939 
 107   2.0000      -0.660392       -17.9702 
 108   2.0000      -0.658038       -17.9061 
 109   2.0000      -0.652657       -17.7597 
 110   2.0000      -0.652087       -17.7442 
 111   2.0000      -0.645760       -17.5720 
 112   2.0000      -0.645157       -17.5556 
 113   2.0000      -0.637482       -17.3468 
 114   2.0000      -0.636698       -17.3254 
 115   2.0000      -0.628340       -17.0980 
 116   2.0000      -0.622830       -16.9481 
 117   2.0000      -0.621254       -16.9052 
 118   2.0000      -0.612921       -16.6784 
 119   2.0000      -0.612144       -16.6573 
 120   2.0000      -0.611642       -16.6436 
 121   2.0000      -0.610882       -16.6229 
 122   2.0000      -0.601282       -16.3617 
 123   2.0000      -0.587741       -15.9933 
 124   2.0000      -0.581325       -15.8186 
 125   2.0000      -0.580922       -15.8077 
 126   2.0000      -0.579931       -15.7807 
 127   2.0000      -0.571190       -15.5429 
 128   2.0000      -0.568282       -15.4638 
 129   2.0000      -0.559854       -15.2344 
 130   2.0000      -0.553458       -15.0604 
 131   2.0000      -0.547797       -14.9063 
 132   2.0000      -0.542573       -14.7642 
 133   2.0000      -0.541140       -14.7252 
 134   2.0000      -0.538209       -14.6454 
 135   2.0000      -0.536375       -14.5955 
 136   2.0000      -0.530852       -14.4452 
 137   2.0000      -0.519468       -14.1355 
 138   2.0000      -0.516557       -14.0562 
 139   2.0000      -0.514903       -14.0112 
 140   2.0000      -0.512480       -13.9453 
 141   2.0000      -0.510452       -13.8901 
 142   2.0000      -0.508367       -13.8334 
 143   2.0000      -0.504788       -13.7360 
 144   2.0000      -0.502443       -13.6722 
 145   2.0000      -0.495943       -13.4953 
 146   2.0000      -0.489265       -13.3136 
 147   2.0000      -0.481804       -13.1106 
 148   2.0000      -0.478051       -13.0084 
 149   2.0000      -0.467577       -12.7234 
 150   2.0000      -0.466420       -12.6919 
 151   2.0000      -0.457051       -12.4370 
 152   2.0000      -0.451740       -12.2925 
 153   2.0000      -0.444735       -12.1018 
 154   2.0000      -0.438886       -11.9427 
 155   2.0000      -0.427513       -11.6332 
 156   2.0000      -0.410884       -11.1807 
 157   2.0000      -0.405477       -11.0336 
 158   2.0000      -0.390967       -10.6387 
 159   2.0000      -0.387320       -10.5395 
 160   2.0000      -0.381715       -10.3870 
 161   2.0000      -0.378468       -10.2986 
 162   2.0000      -0.369380       -10.0513 
 163   2.0000      -0.356598        -9.7035 
 164   2.0000      -0.355856        -9.6833 
 165   2.0000      -0.342040        -9.3074 
 166   2.0000      -0.337676        -9.1886 
 167   2.0000      -0.324622        -8.8334 
 168   2.0000      -0.321482        -8.7480 
 169   2.0000      -0.305020        -8.3000 
 170   2.0000      -0.299545        -8.1510 
 171   2.0000      -0.285473        -7.7681 
 172   2.0000      -0.279283        -7.5997 
 173   2.0000      -0.263884        -7.1807 
 174   2.0000      -0.241453        -6.5703 
 175   2.0000      -0.189962        -5.1691 
 176   2.0000      -0.180864        -4.9216 
 177   2.0000      -0.078884        -2.1465 
 178   2.0000      -0.059552        -1.6205 
 179   0.0000       0.028305         0.7702 
 180   0.0000       0.065386         1.7793 
 181   0.0000       0.090316         2.4576 
 182   0.0000       0.106607         2.9009 
 183   0.0000       0.114463         3.1147 
 184   0.0000       0.137187         3.7331 
 185   0.0000       0.139291         3.7903 
 186   0.0000       0.141227         3.8430 
 187   0.0000       0.163896         4.4598 
 188   0.0000       0.165217         4.4958 
 189   0.0000       0.165595         4.5061 
 190   0.0000       0.172700         4.6994 
 191   0.0000       0.180658         4.9159 
 192   0.0000       0.184056         5.0084 
 193   0.0000       0.188971         5.1422 
 194   0.0000       0.204928         5.5764 
 195   0.0000       0.205551         5.5933 
 196   0.0000       0.208160         5.6643 
 197   0.0000       0.208775         5.6811 
 198   0.0000       0.216803         5.8995 
 199   0.0000       0.228588         6.2202 
 200   0.0000       0.233531         6.3547 
 201   0.0000       0.234031         6.3683 
 202   0.0000       0.239026         6.5042 
 203   0.0000       0.239726         6.5233 
 204   0.0000       0.246416         6.7053 
 205   0.0000       0.255241         6.9455 
 206   0.0000       0.256327         6.9750 
 207   0.0000       0.257566         7.0087 
 208   0.0000       0.258829         7.0431 
 209   0.0000       0.260562         7.0902 
 210   0.0000       0.263294         7.1646 
 211   0.0000       0.265845         7.2340 
 212   0.0000       0.268888         7.3168 
 213   0.0000       0.271647         7.3919 
 214   0.0000       0.272817         7.4237 
 215   0.0000       0.275812         7.5052 
 216   0.0000       0.277819         7.5598 
 217   0.0000       0.282642         7.6911 
 218   0.0000       0.286639         7.7998 
 219   0.0000       0.287508         7.8235 
 220   0.0000       0.289874         7.8879 
 221   0.0000       0.291999         7.9457 
 222   0.0000       0.294992         8.0271 
 223   0.0000       0.296781         8.0758 
 224   0.0000       0.296956         8.0806 
 225   0.0000       0.300442         8.1754 
 226   0.0000       0.304844         8.2952 
 227   0.0000       0.308936         8.4066 
 228   0.0000       0.311778         8.4839 
 229   0.0000       0.324566         8.8319 
 230   0.0000       0.327810         8.9202 
 231   0.0000       0.334465         9.1012 
 232   0.0000       0.343028         9.3343 
 233   0.0000       0.354800         9.6546 
 234   0.0000       0.359190         9.7741 
 235   0.0000       0.365163         9.9366 
 236   0.0000       0.375872        10.2280 
 237   0.0000       0.390437        10.6243 
 238   0.0000       0.395334        10.7576 
 239   0.0000       0.399654        10.8751 
 240   0.0000       0.407124        11.0784 
 241   0.0000       0.410872        11.1804 
 242   0.0000       0.411668        11.2020 
 243   0.0000       0.418623        11.3913 
 244   0.0000       0.429446        11.6858 
 245   0.0000       0.434587        11.8257 
 246   0.0000       0.436647        11.8818 
 247   0.0000       0.440493        11.9864 
 248   0.0000       0.442318        12.0361 
 249   0.0000       0.448096        12.1933 
 250   0.0000       0.456555        12.4235 
 251   0.0000       0.466772        12.7015 
 252   0.0000       0.468175        12.7397 
 253   0.0000       0.468740        12.7551 
 254   0.0000       0.471294        12.8246 
 255   0.0000       0.475116        12.9286 
 256   0.0000       0.476488        12.9659 
 257   0.0000       0.479426        13.0458 
 258   0.0000       0.488961        13.3053 
 259   0.0000       0.496252        13.5037 
 260   0.0000       0.503699        13.7064 
 261   0.0000       0.505275        13.7492 
 262   0.0000       0.506346        13.7784 
 263   0.0000       0.511898        13.9295 
 264   0.0000       0.516657        14.0590 
 265   0.0000       0.519888        14.1469 
 266   0.0000       0.523617        14.2483 
 267   0.0000       0.528603        14.3840 
 268   0.0000       0.531414        14.4605 
 269   0.0000       0.536065        14.5871 
 270   0.0000       0.543703        14.7949 
 271   0.0000       0.547979        14.9113 
 272   0.0000       0.558101        15.1867 
 273   0.0000       0.559460        15.2237 
 274   0.0000       0.561837        15.2884 
 275   0.0000       0.566085        15.4040 
 276   0.0000       0.571211        15.5434 
 277   0.0000       0.573800        15.6139 
 278   0.0000       0.579349        15.7649 
 279   0.0000       0.586276        15.9534 
 280   0.0000       0.592041        16.1103 
 281   0.0000       0.593328        16.1453 
 282   0.0000       0.593845        16.1593 
 283   0.0000       0.595891        16.2150 
 284   0.0000       0.598413        16.2836 
 285   0.0000       0.599963        16.3258 
 286   0.0000       0.605193        16.4682 
 287   0.0000       0.610949        16.6248 
 288   0.0000       0.616989        16.7891 
 289   0.0000       0.624048        16.9812 
 290   0.0000       0.625757        17.0277 
 291   0.0000       0.628181        17.0937 
 292   0.0000       0.634923        17.2771 
 293   0.0000       0.635489        17.2925 
 294   0.0000       0.644883        17.5482 
 295   0.0000       0.647904        17.6304 
 296   0.0000       0.652257        17.7488 
 297   0.0000       0.655278        17.8310 
 298   0.0000       0.661314        17.9953 
 299   0.0000       0.666156        18.1270 
 300   0.0000       0.671303        18.2671 
 301   0.0000       0.675274        18.3751 
 302   0.0000       0.677410        18.4333 
 303   0.0000       0.679358        18.4863 
 304   0.0000       0.681262        18.5381 
 305   0.0000       0.684915        18.6375 
 306   0.0000       0.688508        18.7353 
 307   0.0000       0.691781        18.8243 
 308   0.0000       0.695456        18.9243 
 309   0.0000       0.699509        19.0346 
 310   0.0000       0.702485        19.1156 
 311   0.0000       0.703619        19.1464 
 312   0.0000       0.706135        19.2149 
 313   0.0000       0.711335        19.3564 
 314   0.0000       0.712420        19.3859 
 315   0.0000       0.715851        19.4793 
 316   0.0000       0.717030        19.5114 
 317   0.0000       0.718044        19.5390 
 318   0.0000       0.724075        19.7031 
 319   0.0000       0.726861        19.7789 
 320   0.0000       0.727707        19.8019 
 321   0.0000       0.728767        19.8308 
 322   0.0000       0.730939        19.8899 
 323   0.0000       0.732526        19.9330 
 324   0.0000       0.735180        20.0053 
 325   0.0000       0.740372        20.1465 
 326   0.0000       0.743848        20.2411 
 327   0.0000       0.749487        20.3946 
 328   0.0000       0.753235        20.4966 
 329   0.0000       0.756185        20.5768 
 330   0.0000       0.757543        20.6138 
 331   0.0000       0.761996        20.7350 
 332   0.0000       0.764837        20.8123 
 333   0.0000       0.766932        20.8693 
 334   0.0000       0.768823        20.9207 
 335   0.0000       0.773941        21.0600 
 336   0.0000       0.778033        21.1714 
 337   0.0000       0.781373        21.2622 
 338   0.0000       0.783913        21.3314 
 339   0.0000       0.789531        21.4842 
 340   0.0000       0.792951        21.5773 
 341   0.0000       0.794049        21.6072 
 342   0.0000       0.800265        21.7763 
 343   0.0000       0.803211        21.8565 
 344   0.0000       0.805886        21.9293 
 345   0.0000       0.807863        21.9831 
 346   0.0000       0.809643        22.0315 
 347   0.0000       0.815053        22.1787 
 348   0.0000       0.815485        22.1905 
 349   0.0000       0.817156        22.2359 
 350   0.0000       0.820081        22.3155 
 351   0.0000       0.822243        22.3744 
 352   0.0000       0.823634        22.4122 
 353   0.0000       0.826728        22.4964 
 354   0.0000       0.829870        22.5819 
 355   0.0000       0.832758        22.6605 
 356   0.0000       0.834237        22.7007 
 357   0.0000       0.836366        22.7587 
 358   0.0000       0.838396        22.8139 
 359   0.0000       0.840053        22.8590 
 360   0.0000       0.842057        22.9135 
 361   0.0000       0.843457        22.9516 
 362   0.0000       0.844990        22.9933 
 363   0.0000       0.849280        23.1101 
 364   0.0000       0.850983        23.1564 
 365   0.0000       0.856002        23.2930 
 366   0.0000       0.858254        23.3543 
 367   0.0000       0.861641        23.4464 
 368   0.0000       0.867525        23.6066 
 369   0.0000       0.868762        23.6402 
 370   0.0000       0.870582        23.6897 
 371   0.0000       0.873077        23.7576 
 372   0.0000       0.875304        23.8182 
 373   0.0000       0.876982        23.8639 
 374   0.0000       0.878809        23.9136 
 375   0.0000       0.882913        24.0253 
 376   0.0000       0.887962        24.1627 
 377   0.0000       0.889673        24.2092 
 378   0.0000       0.892254        24.2795 
 379   0.0000       0.893268        24.3071 
 380   0.0000       0.897104        24.4115 
 381   0.0000       0.898432        24.4476 
 382   0.0000       0.899923        24.4882 
 383   0.0000       0.900741        24.5104 
 384   0.0000       0.905747        24.6466 
 385   0.0000       0.906277        24.6611 
 386   0.0000       0.908382        24.7183 
 387   0.0000       0.910684        24.7810 
 388   0.0000       0.915060        24.9000 
 389   0.0000       0.917090        24.9553 
 390   0.0000       0.920465        25.0471 
 391   0.0000       0.925390        25.1811 
 392   0.0000       0.926777        25.2189 
 393   0.0000       0.927916        25.2499 
 394   0.0000       0.929369        25.2894 
 395   0.0000       0.931360        25.3436 
 396   0.0000       0.935039        25.4437 
 397   0.0000       0.940790        25.6002 
 398   0.0000       0.942826        25.6556 
 399   0.0000       0.943925        25.6855 
 400   0.0000       0.948333        25.8055 
 401   0.0000       0.953717        25.9520 
 402   0.0000       0.954965        25.9859 
 403   0.0000       0.957196        26.0466 
 404   0.0000       0.960400        26.1338 
 405   0.0000       0.962687        26.1960 
 406   0.0000       0.971051        26.4236 
 407   0.0000       0.977332        26.5945 
 408   0.0000       0.981582        26.7102 
 409   0.0000       0.986046        26.8317 
 410   0.0000       0.987464        26.8703 
 411   0.0000       0.991057        26.9680 
 412   0.0000       0.997617        27.1465 
 413   0.0000       1.000990        27.2383 
 414   0.0000       1.005356        27.3571 
 415   0.0000       1.009181        27.4612 
 416   0.0000       1.014688        27.6111 
 417   0.0000       1.017227        27.6801 
 418   0.0000       1.025914        27.9165 
 419   0.0000       1.032251        28.0890 
 420   0.0000       1.033334        28.1184 
 421   0.0000       1.037679        28.2367 
 422   0.0000       1.042867        28.3779 
 423   0.0000       1.052600        28.6427 
 424   0.0000       1.060385        28.8545 
 425   0.0000       1.064444        28.9650 
 426   0.0000       1.069251        29.0958 
 427   0.0000       1.073399        29.2087 
 428   0.0000       1.077757        29.3273 
 429   0.0000       1.086480        29.5646 
 430   0.0000       1.088118        29.6092 
 431   0.0000       1.090701        29.6795 
 432   0.0000       1.099068        29.9071 
 433   0.0000       1.101283        29.9674 
 434   0.0000       1.105465        30.0812 
 435   0.0000       1.108085        30.1525 
 436   0.0000       1.112260        30.2661 
 437   0.0000       1.116087        30.3703 
 438   0.0000       1.117863        30.4186 
 439   0.0000       1.120948        30.5025 
 440   0.0000       1.123391        30.5690 
 441   0.0000       1.126821        30.6624 
 442   0.0000       1.128713        30.7138 
 443   0.0000       1.132617        30.8201 
 444   0.0000       1.136979        30.9388 
 445   0.0000       1.137911        30.9641 
 446   0.0000       1.144070        31.1317 
 447   0.0000       1.148649        31.2563 
 448   0.0000       1.150090        31.2955 
 449   0.0000       1.153670        31.3930 
 450   0.0000       1.158791        31.5323 
 451   0.0000       1.159727        31.5578 
 452   0.0000       1.165518        31.7154 
 453   0.0000       1.167913        31.7805 
 454   0.0000       1.169045        31.8113 
 455   0.0000       1.171807        31.8865 
 456   0.0000       1.180887        32.1336 
 457   0.0000       1.183243        32.1977 
 458   0.0000       1.190907        32.4062 
 459   0.0000       1.197483        32.5852 
 460   0.0000       1.201573        32.6965 
 461   0.0000       1.202226        32.7142 
 462   0.0000       1.202410        32.7193 
 463   0.0000       1.207753        32.8646 
 464   0.0000       1.208941        32.8970 
 465   0.0000       1.216006        33.0892 
 466   0.0000       1.216826        33.1115 
 467   0.0000       1.224209        33.3124 
 468   0.0000       1.225606        33.3504 
 469   0.0000       1.228383        33.4260 
 470   0.0000       1.230481        33.4831 
 471   0.0000       1.235349        33.6155 
 472   0.0000       1.238575        33.7033 
 473   0.0000       1.242429        33.8082 
 474   0.0000       1.243769        33.8447 
 475   0.0000       1.247946        33.9583 
 476   0.0000       1.250400        34.0251 
 477   0.0000       1.251222        34.0475 
 478   0.0000       1.251761        34.0621 
 479   0.0000       1.258105        34.2348 
 480   0.0000       1.261061        34.3152 
 481   0.0000       1.263441        34.3800 
 482   0.0000       1.268154        34.5082 
 483   0.0000       1.271203        34.5912 
 484   0.0000       1.278395        34.7869 
 485   0.0000       1.281500        34.8714 
 486   0.0000       1.283160        34.9166 
 487   0.0000       1.288638        35.0656 
 488   0.0000       1.290762        35.1234 
 489   0.0000       1.292699        35.1761 
 490   0.0000       1.298650        35.3381 
 491   0.0000       1.300147        35.3788 
 492   0.0000       1.305327        35.5198 
 493   0.0000       1.311418        35.6855 
 494   0.0000       1.312859        35.7247 
 495   0.0000       1.318807        35.8866 
 496   0.0000       1.320485        35.9322 
 497   0.0000       1.323421        36.0121 
 498   0.0000       1.326819        36.1046 
 499   0.0000       1.331042        36.2195 
 500   0.0000       1.333409        36.2839 
 501   0.0000       1.340380        36.4736 
 502   0.0000       1.341724        36.5102 
 503   0.0000       1.344189        36.5773 
 504   0.0000       1.347467        36.6664 
 505   0.0000       1.350423        36.7469 
 506   0.0000       1.351952        36.7885 
 507   0.0000       1.357394        36.9366 
 508   0.0000       1.359453        36.9926 
 509   0.0000       1.362089        37.0643 
[...]
      pz      :     0.022120  p :     0.079778
      px      :     0.043608
      py      :     0.014050
 77 H s       :     0.884535  s :     0.884535
      pz      :     0.047974  p :     0.079290
      px      :     0.015024
      py      :     0.016292
 78 H s       :     0.884860  s :     0.884860
      pz      :     0.025883  p :     0.079263
      px      :     0.020456
      py      :     0.032924
 79 H s       :     0.910814  s :     0.910814
      pz      :     0.021788  p :     0.086291
      px      :     0.021660
      py      :     0.042843
 80 H s       :     0.864403  s :     0.864403
      pz      :     0.039389  p :     0.084821
      px      :     0.030278
      py      :     0.015154
 81 H s       :     0.886650  s :     0.886650
      pz      :     0.037835  p :     0.084128
      px      :     0.016171
      py      :     0.030123
 82 H s       :     0.915925  s :     0.915925
      pz      :     0.021943  p :     0.086731
      px      :     0.031657
      py      :     0.033131
 83 H s       :     0.873211  s :     0.873211
      pz      :     0.039294  p :     0.084118
      px      :     0.015270
      py      :     0.029553
 84 H s       :     0.886484  s :     0.886484
      pz      :     0.035782  p :     0.083431
      px      :     0.031704
      py      :     0.015945
 85 H s       :     0.892635  s :     0.892635
      pz      :     0.022495  p :     0.079795
      px      :     0.014062
      py      :     0.043238
 86 H s       :     0.890861  s :     0.890861
      pz      :     0.024735  p :     0.078840
      px      :     0.032990
      py      :     0.021115
 87 H s       :     0.889738  s :     0.889738
      pz      :     0.048025  p :     0.078751
      px      :     0.015586
      py      :     0.015139
 88 H s       :     0.910564  s :     0.910564
      pz      :     0.021609  p :     0.087009
      px      :     0.042947
      py      :     0.022454
 89 H s       :     0.871069  s :     0.871069
      pz      :     0.037963  p :     0.083861
      px      :     0.030503
      py      :     0.015395


                      *****************************
                      * MAYER POPULATION ANALYSIS *
                      *****************************

  NA   - Mulliken gross atomic population
  ZA   - Total nuclear charge
  QA   - Mulliken gross atomic charge
  VA   - Mayer's total valence
  BVA  - Mayer's bonded valence
  FA   - Mayer's free valence

  ATOM       NA         ZA         QA         VA         BVA        FA
  0 C      5.7837     6.0000     0.2163     3.8472     3.8472     0.0000
  1 N      7.4558     7.0000    -0.4558     3.3407     3.3407     0.0000
  2 C      6.0717     6.0000    -0.0717     3.9233     3.9233     0.0000
  3 N      7.3403     7.0000    -0.3403     3.4556     3.4556     0.0000
  4 C      6.0584     6.0000    -0.0584     4.0877     4.0877     0.0000
  5 N      7.5675     7.0000    -0.5675     3.0951     3.0951     0.0000
  6 C      6.1064     6.0000    -0.1064     3.9436     3.9436    -0.0000
  7 N      7.3408     7.0000    -0.3408     3.4326     3.4326     0.0000
  8 C      5.7897     6.0000     0.2103     3.8477     3.8477     0.0000
  9 N      7.5621     7.0000    -0.5621     3.0769     3.0769    -0.0000
 10 C      5.8811     6.0000     0.1189     3.9095     3.9095     0.0000
 11 N      7.4387     7.0000    -0.4387     3.3771     3.3771     0.0000
 12 C      6.0653     6.0000    -0.0653     3.8651     3.8651     0.0000
 13 N      7.4295     7.0000    -0.4295     3.4278     3.4278     0.0000
 14 C      5.7760     6.0000     0.2240     3.7922     3.7922    -0.0000
 15 N      7.4407     7.0000    -0.4407     3.3735     3.3735    -0.0000
 16 C      5.7699     6.0000     0.2301     3.7762     3.7762     0.0000
 17 C      6.1212     6.0000    -0.1212     3.9612     3.9612     0.0000
 18 C      6.1842     6.0000    -0.1842     3.7614     3.7614    -0.0000
 19 C      5.7831     6.0000     0.2169     3.8699     3.8699    -0.0000
 20 C      5.7868     6.0000     0.2132     3.8293     3.8293    -0.0000
 21 C      6.0677     6.0000    -0.0677     3.8360     3.8360     0.0000
 22 C      6.0912     6.0000    -0.0912     3.9830     3.9830     0.0000
 23 C      6.0396     6.0000    -0.0396     3.9927     3.9927    -0.0000
 24 C      5.8067     6.0000     0.1933     3.8212     3.8212    -0.0000
 25 C      5.8853     6.0000     0.1147     3.8919     3.8919     0.0000
 26 C      6.0901     6.0000    -0.0901     3.9104     3.9104     0.0000
 27 C      5.7848     6.0000     0.2152     3.8621     3.8621    -0.0000
 28 C      6.0618     6.0000    -0.0618     3.9887     3.9887     0.0000
 29 C      6.1817     6.0000    -0.1817     3.7456     3.7456    -0.0000
 30 C      5.7538     6.0000     0.2462     3.8012     3.8012    -0.0000
 31 C      5.7703     6.0000     0.2297     3.8171     3.8171    -0.0000
 32 C      6.0619     6.0000    -0.0619     3.9228     3.9228    -0.0000
 33 C      6.0604     6.0000    -0.0604     3.9714     3.9714    -0.0000
 34 C      6.0516     6.0000    -0.0516     3.9835     3.9835    -0.0000
 35 C      5.7713     6.0000     0.2287     3.8167     3.8167     0.0000
 36 C      5.8917     6.0000     0.1083     3.8749     3.8749    -0.0000
 37 C      6.0642     6.0000    -0.0642     3.9179     3.9179    -0.0000
 38 C      5.7693     6.0000     0.2307     3.8003     3.8003     0.0000
 39 C      6.0574     6.0000    -0.0574     3.9832     3.9832     0.0000
 40 C      6.1815     6.0000    -0.1815     3.7271     3.7271    -0.0000
 41 C      5.7737     6.0000     0.2263     3.8875     3.8875     0.0000
 42 C      5.8023     6.0000     0.1977     3.8256     3.8256    -0.0000
 43 C      6.0722     6.0000    -0.0722     3.9000     3.9000    -0.0000
 44 C      6.0890     6.0000    -0.0890     3.9849     3.9849     0.0000
 45 C      6.0615     6.0000    -0.0615     3.9919     3.9919     0.0000
 46 C      5.7878     6.0000     0.2122     3.8283     3.8283    -0.0000
 47 C      5.8848     6.0000     0.1152     3.8925     3.8925     0.0000
 48 C      6.0667     6.0000    -0.0667     3.9095     3.9095     0.0000
 49 C      5.7611     6.0000     0.2389     3.8940     3.8940    -0.0000
 50 C      6.0463     6.0000    -0.0463     3.9903     3.9903     0.0000
 51 C      6.1927     6.0000    -0.1927     3.7364     3.7364     0.0000
 52 H      0.9637     1.0000     0.0363     0.9858     0.9858     0.0000
 53 H      1.0178     1.0000    -0.0178     0.9987     0.9987     0.0000
 54 H      0.9540     1.0000     0.0460     1.0204     1.0204    -0.0000
 55 H      0.9650     1.0000     0.0350     0.9864     0.9864    -0.0000
 56 H      0.9507     1.0000     0.0493     0.9695     0.9695     0.0000
 57 H      0.9524     1.0000     0.0476     0.9826     0.9826    -0.0000
 58 H      0.9532     1.0000     0.0468     0.9847     0.9847    -0.0000
 59 H      1.0061     1.0000    -0.0061     0.9989     0.9989     0.0000
 60 H      0.9561     1.0000     0.0439     1.0168     1.0168    -0.0000
 61 H      0.8288     1.0000     0.1712     1.0422     1.0422     0.0000
 62 H      0.8246     1.0000     0.1754     1.0436     1.0436     0.0000
 63 H      0.9451     1.0000     0.0549     0.9853     0.9853     0.0000
 64 H      1.0237     1.0000    -0.0237     0.9932     0.9932    -0.0000
 65 H      0.9530     1.0000     0.0470     1.0098     1.0098    -0.0000
 66 H      0.9447     1.0000     0.0553     0.9855     0.9855    -0.0000
 67 H      0.9379     1.0000     0.0621     0.9719     0.9719     0.0000
 68 H      0.9430     1.0000     0.0570     0.9868     0.9868     0.0000
 69 H      0.9439     1.0000     0.0561     0.9828     0.9828     0.0000
 70 H      1.0305     1.0000    -0.0305     0.9941     0.9941     0.0000
 71 H      0.9556     1.0000     0.0444     1.0059     1.0059     0.0000
 72 H      0.9287     1.0000     0.0713     0.9836     0.9836     0.0000
 73 H      1.0080     1.0000    -0.0080     1.0010     1.0010    -0.0000
 74 H      0.9397     1.0000     0.0603     1.0100     1.0100    -0.0000
 75 H      0.9293     1.0000     0.0707     0.9838     0.9838     0.0000
 76 H      0.9251     1.0000     0.0749     0.9721     0.9721     0.0000
 77 H      0.9320     1.0000     0.0680     0.9855     0.9855    -0.0000
 78 H      0.9327     1.0000     0.0673     0.9854     0.9854    -0.0000
 79 H      1.0167     1.0000    -0.0167     0.9974     0.9974    -0.0000
 80 H      0.9387     1.0000     0.0613     1.0072     1.0072    -0.0000
 81 H      0.9453     1.0000     0.0547     0.9856     0.9856     0.0000
 82 H      1.0247     1.0000    -0.0247     0.9935     0.9935     0.0000
 83 H      0.9577     1.0000     0.0423     1.0083     1.0083     0.0000
 84 H      0.9454     1.0000     0.0546     0.9852     0.9852     0.0000
 85 H      0.9388     1.0000     0.0612     0.9716     0.9716    -0.0000
 86 H      0.9442     1.0000     0.0558     0.9839     0.9839    -0.0000
 87 H      0.9426     1.0000     0.0574     0.9857     0.9857     0.0000
 88 H      1.0144     1.0000    -0.0144     0.9968     0.9968     0.0000
 89 H      0.9530     1.0000     0.0470     1.0076     1.0076     0.0000

  Mayer bond orders larger than 0.100000
B(  0-C ,  1-N ) :   1.0996 B(  0-C , 17-C ) :   1.7088 B(  0-C , 52-H ) :   0.9641 
B(  1-N ,  8-C ) :   1.0877 B(  1-N , 10-C ) :   0.9778 B(  2-C , 12-C ) :   1.4945 
B(  2-C , 16-C ) :   1.3674 B(  2-C , 53-H ) :   0.9732 B(  3-N , 14-C ) :   1.2212 
B(  3-N , 16-C ) :   1.1828 B(  3-N , 61-H ) :   0.8988 B(  4-C ,  6-C ) :   1.2133 
B(  4-C , 17-C ) :   1.2156 B(  4-C , 18-C ) :   1.4662 B(  5-N , 19-C ) :   1.4571 
B(  5-N , 27-C ) :   1.3729 B(  6-C ,  8-C ) :   1.7207 B(  6-C , 54-H ) :   0.8977 
B(  7-N , 30-C ) :   1.1961 B(  7-N , 38-C ) :   1.1891 B(  7-N , 62-H ) :   0.8968 
B(  8-C , 55-H ) :   0.9636 B(  9-N , 41-C ) :   1.3949 B(  9-N , 49-C ) :   1.4246 
B( 10-C , 56-H ) :   0.9774 B( 10-C , 57-H ) :   0.9822 B( 10-C , 58-H ) :   0.9842 
B( 11-N , 20-C ) :   1.1303 B( 11-N , 24-C ) :   1.1061 B( 11-N , 25-C ) :   0.9606 
B( 12-C , 14-C ) :   1.3568 B( 12-C , 59-H ) :   0.9498 B( 13-N , 31-C ) :   1.1607 
B( 13-N , 35-C ) :   1.1604 B( 13-N , 36-C ) :   0.9415 B( 14-C , 18-C ) :   1.1217 
B( 15-N , 42-C ) :   1.1085 B( 15-N , 46-C ) :   1.1252 B( 15-N , 47-C ) :   0.9609 
B( 16-C , 51-C ) :   1.1687 B( 17-C , 60-H ) :   0.9197 B( 18-C , 19-C ) :   1.1209 
B( 19-C , 21-C ) :   1.2528 B( 20-C , 28-C ) :   1.6296 B( 20-C , 63-H ) :   0.9703 
B( 21-C , 26-C ) :   1.5830 B( 21-C , 64-H ) :   0.9290 B( 22-C , 23-C ) :   1.2884 
B( 22-C , 28-C ) :   1.2629 B( 22-C , 29-C ) :   1.2274 B( 23-C , 24-C ) :   1.6213 
B( 23-C , 65-H ) :   0.9703 B( 24-C , 66-H ) :   0.9695 B( 25-C , 67-H ) :   0.9761 
B( 25-C , 68-H ) :   0.9828 B( 25-C , 69-H ) :   0.9823 B( 26-C , 27-C ) :   1.2594 
B( 26-C , 70-H ) :   0.9682 B( 27-C , 29-C ) :   1.2054 B( 28-C , 71-H ) :   0.9720 
B( 29-C , 30-C ) :   1.2460 B( 30-C , 32-C ) :   1.2796 B( 31-C , 39-C ) :   1.5879 
B( 31-C , 72-H ) :   0.9681 B( 32-C , 37-C ) :   1.5789 B( 32-C , 73-H ) :   0.9786 
B( 33-C , 34-C ) :   1.3064 B( 33-C , 39-C ) :   1.3042 B( 33-C , 40-C ) :   1.1769 
B( 34-C , 35-C ) :   1.5858 B( 34-C , 74-H ) :   0.9697 B( 35-C , 75-H ) :   0.9681 
B( 36-C , 76-H ) :   0.9768 B( 36-C , 77-H ) :   0.9816 B( 36-C , 78-H ) :   0.9823 
B( 37-C , 38-C ) :   1.2859 B( 37-C , 79-H ) :   0.9764 B( 38-C , 40-C ) :   1.2333 
B( 39-C , 80-H ) :   0.9705 B( 40-C , 41-C ) :   1.2507 B( 41-C , 43-C ) :   1.1838 
B( 42-C , 50-C ) :   1.6320 B( 42-C , 81-H ) :   0.9696 B( 43-C , 48-C ) :   1.6692 
B( 43-C , 82-H ) :   0.9722 B( 44-C , 45-C ) :   1.2643 B( 44-C , 50-C ) :   1.2734 
B( 44-C , 51-C ) :   1.2587 B( 45-C , 46-C ) :   1.6336 B( 45-C , 83-H ) :   0.9718 
B( 46-C , 84-H ) :   0.9700 B( 47-C , 85-H ) :   0.9762 B( 47-C , 86-H ) :   0.9829 
B( 47-C , 87-H ) :   0.9824 B( 48-C , 49-C ) :   1.1872 B( 48-C , 88-H ) :   0.9748 
B( 49-C , 51-C ) :   1.2453 B( 50-C , 89-H ) :   0.9708 

-------
TIMINGS
-------

Total SCF time: 0 days 0 hours 22 min 57 sec 

Total time                  ....    1377.845 sec
Sum of individual times     ....    1374.155 sec  ( 99.7%)

Fock matrix formation       ....    1353.617 sec  ( 98.2%)
Diagonalization             ....       6.688 sec  (  0.5%)
Density matrix formation    ....       0.370 sec  (  0.0%)
Population analysis         ....       0.423 sec  (  0.0%)
Initial guess               ....       1.925 sec  (  0.1%)
Orbital Transformation      ....       0.000 sec  (  0.0%)
Orbital Orthonormalization  ....       0.000 sec  (  0.0%)
DIIS solution               ....       2.911 sec  (  0.2%)
SOSCF solution              ....       7.220 sec  (  0.5%)

Maximum memory used throughout the entire SCF-calculation: 302.7 MB


           ************************************************************
           *        Program running with 16 parallel MPI-processes    *
           *              working on a common directory               *
           ************************************************************

------------------------------------------------------------------------------
                                ORCA  MP2 
------------------------------------------------------------------------------

Freezing NCore=104 chemical core electrons

----------
MP2 ENERGY (disk based algorithm)
----------

Dimension of the basis                    ...  918
Memory devoted to MP2                     ... 2000 MB   
Data format for buffers                   ... DOUBLE
Compression type for matrix containers    ... UNCOMPRESSED

-------------------------------
PARTIAL EXCHANGE TRANSFORMATION
-------------------------------

Transformation type                        ... one-operator
Generation of integrals (i,mue|j,nue)      ... ON
Generation of integrals (mue,kappa|nue,tau)... OFF
Generation of integrals (i,mue|a,nue)      ... OFF
Dimension of the basis                     ...  918
Number of internal MOs                     ...  127 (  52- 178)
Pair cutoff                                ... 2.500e-12 Eh
Number of AO pairs in the trafo            ... 421821
Total Number of distinct AO pairs          ... 421821
Memory devoted for trafo                   ... 2000.0 MB 
Max. Number of MO pairs treated together   ...  311      
Number Format for Storage                  ... Double (8 Byte)
Integral package used                      ... LIBINT

Starting integral evaluation:
    ... done with AO integral generation
Closing buffer AOK     (38.37 GB; CompressionRatio= 1.32)
Collecting buffer AOK 
Number of MO pairs included in the trafo   ... 8128
------------------------
SORTING OF (i,mue|j,nue)
------------------------

IBATCH = 1 of  2
IBATCH = 2 of  2
Closing buffer KAO     (51.03 GB; CompressionRatio= 1.00)
Collecting buffer KAO 
N(AO-Batches) Done                         ...  85996724 
N(AO-Batches) Skipped                      ...  82463352 
N(IJ)-pairs Skipped                        ...         0 
TOTAL TIME for half transformation         ...  2484.493 sec
AO-integral generation                     ...   177.871 sec
Half transformation                        ...   313.489 sec
K-integral sorting                         ...  1844.323 sec
Process 13:   Internal MO 156
Process 10:   Internal MO 132
Process  4:   Internal MO  84

Finished integral transformation - now doing MP2 part

OPERATOR COMBINATION   0   0: ij=( 52..178, 52..178)
Process  7:   Internal MO 108
Process  1:   Internal MO  60
Process  0:   Internal MO  54
Process  2:   Internal MO  69
Process  0:   Internal MO  57
Process  5:   Internal MO  93
Process  1:   Internal MO  63
Process  8:   Internal MO 117
Process  2:   Internal MO  72
Process  3:   Internal MO  78
Process  1:   Internal MO  66
Process  6:   Internal MO 102
Process 11:   Internal MO 141
Process  4:   Internal MO  87
Process 14:   Internal MO 165
Process  2:   Internal MO  75
Process  9:   Internal MO 126
Process  3:   Internal MO  81
Process 12:   Internal MO 150
Process  5:   Internal MO  96
Process  4:   Internal MO  90
Process 15:   Internal MO 174
Process  6:   Internal MO 105
Process  8:   Internal MO 120
Process 10:   Internal MO 135
Process  5:   Internal MO  99
Process  9:   Internal MO 129
Process 13:   Internal MO 159
Process  7:   Internal MO 111
Process 11:   Internal MO 144
Process 14:   Internal MO 168
Process 12:   Internal MO 153
Process  8:   Internal MO 123
Process 15:   Internal MO 177
Process  7:   Internal MO 114
Process 10:   Internal MO 138
Process 11:   Internal MO 147
Process 13:   Internal MO 162
Process 14:   Internal MO 171
-----------------------------------------------
 MP2 CORRELATION ENERGY   :     -7.288085034 Eh
-----------------------------------------------


-------
TIMINGS
-------
Total time                : 2767.041 sec
Integral trafo            : 2486.471 sec ( 89.9%)
K(i,j)                    :    6.327 sec (  0.2%)
T(i,j)                    :    0.089 sec (  0.0%)

---------------------------------------
MP2 TOTAL ENERGY:    -2130.811324054 Eh
---------------------------------------

Maximum memory used throughout the entire MP2-calculation: 2275.3 MB

-------------------------   --------------------
FINAL SINGLE POINT ENERGY     -2130.811324053795
-------------------------   --------------------


                            ***************************************
                            *     ORCA property calculations      *
                            ***************************************


  WARNING: The energy has been calculated at the MP2 level but the densities
           used in the property calculations are still SCF densities
           MP2 response densities have not been calculated 
           use %mp2 Density relaxed end
           or  %mp2 Density unrelaxed end

                                    ---------------------
                                    Active property flags
                                    ---------------------
   (+) Dipole Moment


------------------------------------------------------------------------------
                       ORCA ELECTRIC PROPERTIES CALCULATION
------------------------------------------------------------------------------

Dipole Moment Calculation                       ... on
Quadrupole Moment Calculation                   ... off
Polarizability Calculation                      ... off
GBWName                                         ... /scratch/allen/tmpyp4_amber_gaff2/conf1/conf1/Conf18.orca.gbw
Electron density                                ... /scratch/allen/tmpyp4_amber_gaff2/conf1/conf1/Conf18.orca.scfp
The origin for moment calculation is the CENTER OF MASS  = (-0.000999, -0.004799  0.002798)

-------------
DIPOLE MOMENT
-------------
                                X             Y             Z
Electronic contribution:      2.91120      -4.19574      -0.10295
Nuclear contribution   :     -0.04490       0.15704       0.11898
                        -----------------------------------------
Total Dipole Moment    :      2.86630      -4.03870       0.01603
                        -----------------------------------------
Magnitude (a.u.)       :      4.95248
Magnitude (Debye)      :     12.58820



--------------------
Rotational spectrum 
--------------------
 
Rotational constants in cm-1:     0.001503     0.001477     0.000760 
Rotational constants in MHz :    45.057916    44.292755    22.786735 

 Dipole components along the rotational axes: 
x,y,z [a.u.] :     3.569314     3.433165     0.020327 
x,y,z [Debye]:     9.072476     8.726413     0.051666 

 

Timings for individual modules:

Sum of individual times         ...     4166.950 sec (=  69.449 min)
GTO integral calculation        ...        2.629 sec (=   0.044 min)   0.1 %
SCF iterations                  ...     1378.748 sec (=  22.979 min)  33.1 %
MP2 module                      ...     2785.573 sec (=  46.426 min)  66.8 %
                             ****ORCA TERMINATED NORMALLY****
TOTAL RUN TIME: 0 days 1 hours 9 minutes 30 seconds 87 msec
# of primitive gaussian functions

