
                                 *****************
                                 * O   R   C   A *
                                 *****************

                                            #,                                       
                                            ###                                      
                                            ####                                     
                                            #####                                    
                                            ######                                   
                                           ########,                                 
                                     ,,################,,,,,                         
                               ,,#################################,,                 
                          ,,##########################################,,             
                       ,#########################################, ''#####,          
                    ,#############################################,,   '####,        
                  ,##################################################,,,,####,       
                ,###########''''           ''''###############################       
              ,#####''   ,,,,##########,,,,          '''####'''          '####       
            ,##' ,,,,###########################,,,                        '##       
           ' ,,###''''                  '''############,,,                           
         ,,##''                                '''############,,,,        ,,,,,,###''
      ,#''                                            '''#######################'''  
     '                                                          ''''####''''         
             ,#######,   #######,   ,#######,      ##                                
            ,#'     '#,  ##    ##  ,#'     '#,    #''#        ######   ,####,        
            ##       ##  ##   ,#'  ##            #'  '#       #        #'  '#        
            ##       ##  #######   ##           ,######,      #####,   #    #        
            '#,     ,#'  ##    ##  '#,     ,#' ,#      #,         ##   #,  ,#        
             '#######'   ##     ##  '#######'  #'      '#     #####' # '####'        



                  #######################################################
                  #                        -***-                        #
                  #          Department of theory and spectroscopy      #
                  #    Directorship and core code : Frank Neese         #
                  #        Max Planck Institute fuer Kohlenforschung    #
                  #                Kaiser Wilhelm Platz 1               #
                  #                 D-45470 Muelheim/Ruhr               #
                  #                      Germany                        #
                  #                                                     #
                  #                  All rights reserved                #
                  #                        -***-                        #
                  #######################################################


                         Program Version 5.0.4 -  RELEASE  -


 With contributions from (in alphabetic order):
   Daniel Aravena         : Magnetic Suceptibility
   Michael Atanasov       : Ab Initio Ligand Field Theory (pilot matlab implementation)
   Alexander A. Auer      : GIAO ZORA, VPT2 properties, NMR spectrum
   Ute Becker             : Parallelization
   Giovanni Bistoni       : ED, misc. LED, open-shell LED, HFLD
   Martin Brehm           : Molecular dynamics
   Dmytro Bykov           : SCF Hessian
   Vijay G. Chilkuri      : MRCI spin determinant printing, contributions to CSF-ICE
   Dipayan Datta          : RHF DLPNO-CCSD density
   Achintya Kumar Dutta   : EOM-CC, STEOM-CC
   Dmitry Ganyushin       : Spin-Orbit,Spin-Spin,Magnetic field MRCI
   Miquel Garcia          : C-PCM and meta-GGA Hessian, CC/C-PCM, Gaussian charge scheme
   Yang Guo               : DLPNO-NEVPT2, F12-NEVPT2, CIM, IAO-localization
   Andreas Hansen         : Spin unrestricted coupled pair/coupled cluster methods
   Benjamin Helmich-Paris : MC-RPA, TRAH-SCF, COSX integrals
   Lee Huntington         : MR-EOM, pCC
   Robert Izsak           : Overlap fitted RIJCOSX, COSX-SCS-MP3, EOM
   Marcus Kettner         : VPT2
   Christian Kollmar      : KDIIS, OOCD, Brueckner-CCSD(T), CCSD density, CASPT2, CASPT2-K
   Simone Kossmann        : Meta GGA functionals, TD-DFT gradient, OOMP2, MP2 Hessian
   Martin Krupicka        : Initial AUTO-CI
   Lucas Lang             : DCDCAS
   Marvin Lechner         : AUTO-CI (C++ implementation), FIC-MRCC
   Dagmar Lenk            : GEPOL surface, SMD
   Dimitrios Liakos       : Extrapolation schemes; Compound Job, initial MDCI parallelization
   Dimitrios Manganas     : Further ROCIS development; embedding schemes
   Dimitrios Pantazis     : SARC Basis sets
   Anastasios Papadopoulos: AUTO-CI, single reference methods and gradients
   Taras Petrenko         : DFT Hessian,TD-DFT gradient, ASA, ECA, R-Raman, ABS, FL, XAS/XES, NRVS
   Peter Pinski           : DLPNO-MP2, DLPNO-MP2 Gradient
   Christoph Reimann      : Effective Core Potentials
   Marius Retegan         : Local ZFS, SOC
   Christoph Riplinger    : Optimizer, TS searches, QM/MM, DLPNO-CCSD(T), (RO)-DLPNO pert. Triples
   Tobias Risthaus        : Range-separated hybrids, TD-DFT gradient, RPA, STAB
   Michael Roemelt        : Original ROCIS implementation
   Masaaki Saitow         : Open-shell DLPNO-CCSD energy and density
   Barbara Sandhoefer     : DKH picture change effects
   Avijit Sen             : IP-ROCIS
   Kantharuban Sivalingam : CASSCF convergence, NEVPT2, FIC-MRCI
   Bernardo de Souza      : ESD, SOC TD-DFT
   Georgi Stoychev        : AutoAux, RI-MP2 NMR, DLPNO-MP2 response
   Willem Van den Heuvel  : Paramagnetic NMR
   Boris Wezisla          : Elementary symmetry handling
   Frank Wennmohs         : Technical directorship


 We gratefully acknowledge several colleagues who have allowed us to
 interface, adapt or use parts of their codes:
   Stefan Grimme, W. Hujo, H. Kruse, P. Pracht,  : VdW corrections, initial TS optimization,
                  C. Bannwarth, S. Ehlert          DFT functionals, gCP, sTDA/sTD-DF
   Ed Valeev, F. Pavosevic, A. Kumar             : LibInt (2-el integral package), F12 methods
   Garnet Chan, S. Sharma, J. Yang, R. Olivares  : DMRG
   Ulf Ekstrom                                   : XCFun DFT Library
   Mihaly Kallay                                 : mrcc  (arbitrary order and MRCC methods)
   Jiri Pittner, Ondrej Demel                    : Mk-CCSD
   Frank Weinhold                                : gennbo (NPA and NBO analysis)
   Christopher J. Cramer and Donald G. Truhlar   : smd solvation model
   Lars Goerigk                                  : TD-DFT with DH, B97 family of functionals
   V. Asgeirsson, H. Jonsson                     : NEB implementation
   FAccTs GmbH                                   : IRC, NEB, NEB-TS, DLPNO-Multilevel, CI-OPT
                                                   MM, QMMM, 2- and 3-layer-ONIOM, Crystal-QMMM,
                                                   LR-CPCM, SF, NACMEs, symmetry and pop. for TD-DFT,
                                                   nearIR, NL-DFT gradient (VV10), updates on ESD,
                                                   ML-optimized integration grids
   S Lehtola, MJT Oliveira, MAL Marques          : LibXC Library
   Liviu Ungur et al                             : ANISO software


 Your calculation uses the libint2 library for the computation of 2-el integrals
 For citations please refer to: http://libint.valeyev.net

 Your ORCA version has been built with support for libXC version: 5.1.0
 For citations please refer to: https://tddft.org/programs/libxc/

 This ORCA versions uses:
   CBLAS   interface :  Fast vector & matrix operations
   LAPACKE interface :  Fast linear algebra routines
   SCALAPACK package :  Parallel linear algebra routines
   Shared memory     :  Shared parallel matrices
   BLAS/LAPACK       :  OpenBLAS 0.3.15  USE64BITINT DYNAMIC_ARCH NO_AFFINITY Sandybridge SINGLE_THREADED
        Core in use  :  Sandybridge
   Copyright (c) 2011-2014, The OpenBLAS Project


================================================================================

----- Orbital basis set information -----
Your calculation utilizes the basis: cc-pVDZ 
       H, B-Ne : Obtained from the ccRepo (grant-hill.group.shef.ac.uk/ccrepo) Feb. 2017
                 T. H. Dunning, Jr., J. Chem. Phys. 90, 1007 (1989)
            He : Obtained from the ccRepo (grant-hill.group.shef.ac.uk/ccrepo) Feb. 2017
                 D. E. Woon, T. H. Dunning, Jr., J. Chem. Phys. 100, 2975 (1994)
  Li-Be, Na-Mg : Obtained from the ccRepo (grant-hill.group.shef.ac.uk/ccrepo) Feb. 2017
                 B. P. Prascher, D. E. Woon, K. A. Peterson, T. H. Dunning, Jr., A. K. Wilson, Theor. Chem. Acc. 128, 69 (2011)
         Al-Ar : Obtained from the ccRepo (grant-hill.group.shef.ac.uk/ccrepo) Feb. 2017
                 D. E. Woon, T. H. Dunning, Jr., J. Chem. Phys. 98, 1358 (1993)
            Ca : Obtained from the Peterson Research Group Website (tyr0.chem.wsu.edu/~kipeters) Feb. 2017
                 J. Koput, K. A. Peterson, J. Phys. Chem. 106, 9595 (2002)
         Sc-Zn : Obtained from the ccRepo (grant-hill.group.shef.ac.uk/ccrepo) Feb. 2017
                 N. B. Balabanov, K. A. Peterson, J. Chem. Phys. 123, 064107 (2005)
                 N. B. Balabanov, K. A. Peterson, J. Chem. Phys. 125, 074110 (2006)
         Ga-Kr : Obtained from the ccRepo (grant-hill.group.shef.ac.uk/ccrepo) Feb. 2017
                 A. K. Wilson, D. E. Woon, K. A. Peterson, T. H. Dunning, Jr., J. Chem. Phys. 110, 7667 (1999)

================================================================================
                                        WARNINGS
                       Please study these warnings very carefully!
================================================================================


WARNING: No MP2 level density has been requested!
         To caclulate MP2 level properties use
         %mp2 Density relaxed end
         or
         %mp2 Density unrelaxed end

WARNING: Post HF methods need fully converged wavefunctions
  ===> : Setting SCFConvForced true
         You can overwrite this default with %scf ConvForced false 


INFO   : the flag for use of the SHARK integral package has been found!

================================================================================
                                       INPUT FILE
================================================================================
NAME = /scratch/allen/tmpyp4_amber_gaff2/2.Mdgx/conf11/conf11/Conf28.orca
|  1> ! PAL2
|  2> ! mp2 cc-pvdz TightSCF  NoKeepInts
|  3> 
|  4> %scf
|  5>   MaxCore 2000
|  6> end
|  7> %mp2
|  8>   MaxCore 2000
|  9> end
| 10> * xyz 0 1
| 11>    C       -3.12700         6.44100        -0.40400
| 12>    C        1.47400         4.04100         0.05700
| 13>    C       -2.80200         4.09300         0.04900
| 14>    C       -4.10000         4.06800         0.58100
| 15>    C       -4.86400         5.21900         0.60100
| 16>    C       -5.23100         7.59000         0.11800
| 17>    C        0.13200         4.30700         0.06100
| 18>    C       -0.56900         3.05600         0.04700
| 19>    C        1.64900         2.61800         0.02300
| 20>    C       -2.32700         5.31600        -0.45100
| 21>    N       -4.37400         6.38300         0.11700
| 22>    N        0.38800         2.06700         0.02500
| 23>    N       -2.01000         0.39500        -0.07500
| 24>    N       -0.38800        -2.07400        -0.02700
| 25>    N        2.01000        -0.40100         0.06500
| 26>    C       -1.96000         2.86100         0.02400
| 27>    C       -2.62300         1.61500        -0.01800
| 28>    C       -5.57300        -4.32900         1.06600
| 29>    C       -4.07300         1.47100         0.05600
| 30>    C       -4.10600        -2.75600        -0.02600
| 31>    C       -4.99500        -2.75700        -1.11100
| 32>    C       -6.13200        -3.54200        -1.07600
| 33>    C       -7.65100        -5.11300         0.04000
| 34>    C       -4.32400         0.14100         0.03700
| 35>    C       -3.02500        -0.52000        -0.04800
| 36>    C       -4.42200        -3.56600         1.07500
| 37>    N       -6.40700        -4.31300         0.00100
| 38>    C       -2.86700        -1.92200        -0.04000
| 39>    C       -1.65000        -2.62400        -0.02700
| 40>    C        3.56800        -6.14200        -1.04000
| 41>    C       -1.47600        -4.04900        -0.03400
| 42>    C        2.80300        -4.09900        -0.00800
| 43>    C        3.65700        -4.38400         1.06900
| 44>    C        4.42700        -5.53000         1.05900
| 45>    C        5.24500        -7.58800         0.01400
| 46>    C       -0.13400        -4.31500        -0.02200
| 47>    C        0.56800        -3.06400        -0.02700
| 48>    C        2.77500        -5.01200        -1.07400
| 49>    N        4.37600        -6.39100         0.01700
| 50>    C        1.95900        -2.86900        -0.00900
| 51>    C        2.62100        -1.62200         0.00900
| 52>    C        5.54300         4.33900        -1.13000
| 53>    C        4.07000        -1.47900        -0.09400
| 54>    C        4.10400         2.75100        -0.02100
| 55>    C        5.02700         2.72900         1.03600
| 56>    C        6.16600         3.50900         0.97800
| 57>    C        7.61900         5.15300        -0.11500
| 58>    C        4.32100        -0.14800        -0.09200
| 59>    C        3.02500         0.51400         0.01500
| 60>    C        4.38700         3.58200        -1.11500
| 61>    C        2.86600         1.91600         0.01300
| 62>    N        6.41300         4.29600        -0.09500
| 63>    H       -2.79800         7.40700        -0.76600
| 64>    H        2.27400         4.76600         0.08100
| 65>    H       -4.52600         3.15300         0.97300
| 66>    H       -5.87200         5.24600         0.99300
| 67>    H       -5.84300         7.59200        -0.78700
| 68>    H       -5.86800         7.56700         1.00200
| 69>    H       -4.59300         8.47300         0.14000
| 70>    H       -0.33200         5.28200         0.06900
| 71>    H       -1.32800         5.40300        -0.86200
| 72>    H        0.18200         1.07200         0.00500
| 73>    H       -0.18300        -1.08000        -0.02100
| 74>    H       -5.86400        -4.96200         1.89500
| 75>    H       -4.79400         2.27200         0.13900
| 76>    H       -4.80000        -2.16000        -1.99400
| 77>    H       -6.84100        -3.58200        -1.89300
| 78>    H       -8.42800        -4.53600         0.54600
| 79>    H       -7.95600        -5.33700        -0.98100
| 80>    H       -7.45600        -6.03700         0.58400
| 81>    H       -5.28700        -0.34400         0.10000
| 82>    H       -3.78000        -3.60100         1.94700
| 83>    H        3.58700        -6.86800        -1.84300
| 84>    H       -2.27600        -4.77400        -0.05000
| 85>    H        3.71400        -3.72400         1.92600
| 86>    H        5.09200        -5.79500         1.87100
| 87>    H        6.20500        -7.32900        -0.43900
| 88>    H        5.39300        -7.91700         1.04200
| 89>    H        4.75900        -8.37300        -0.56400
| 90>    H        0.32900        -5.29000        -0.00800
| 91>    H        2.14600        -4.84200        -1.94000
| 92>    H        5.80800         4.98600        -1.95600
| 93>    H        4.78800        -2.28100        -0.18500
| 94>    H        4.86000         2.11400         1.91200
| 95>    H        6.90100         3.53100         1.77200
| 96>    H        7.38300         6.10900         0.35600
| 97>    H        8.41400         4.65200         0.43500
| 98>    H        7.92100         5.31000        -1.15000
| 99>    H        5.28300         0.33600        -0.17900
|100>    H        3.72000         3.63200        -1.96700
|101> *
|102> 
|103>                          ****END OF INPUT****
================================================================================

                       ****************************
                       * Single Point Calculation *
                       ****************************

---------------------------------
CARTESIAN COORDINATES (ANGSTROEM)
---------------------------------
  C     -3.127000    6.441000   -0.404000
  C      1.474000    4.041000    0.057000
  C     -2.802000    4.093000    0.049000
  C     -4.100000    4.068000    0.581000
  C     -4.864000    5.219000    0.601000
  C     -5.231000    7.590000    0.118000
  C      0.132000    4.307000    0.061000
  C     -0.569000    3.056000    0.047000
  C      1.649000    2.618000    0.023000
  C     -2.327000    5.316000   -0.451000
  N     -4.374000    6.383000    0.117000
  N      0.388000    2.067000    0.025000
  N     -2.010000    0.395000   -0.075000
  N     -0.388000   -2.074000   -0.027000
  N      2.010000   -0.401000    0.065000
  C     -1.960000    2.861000    0.024000
  C     -2.623000    1.615000   -0.018000
  C     -5.573000   -4.329000    1.066000
  C     -4.073000    1.471000    0.056000
  C     -4.106000   -2.756000   -0.026000
  C     -4.995000   -2.757000   -1.111000
  C     -6.132000   -3.542000   -1.076000
  C     -7.651000   -5.113000    0.040000
  C     -4.324000    0.141000    0.037000
  C     -3.025000   -0.520000   -0.048000
  C     -4.422000   -3.566000    1.075000
  N     -6.407000   -4.313000    0.001000
  C     -2.867000   -1.922000   -0.040000
  C     -1.650000   -2.624000   -0.027000
  C      3.568000   -6.142000   -1.040000
  C     -1.476000   -4.049000   -0.034000
  C      2.803000   -4.099000   -0.008000
  C      3.657000   -4.384000    1.069000
  C      4.427000   -5.530000    1.059000
  C      5.245000   -7.588000    0.014000
  C     -0.134000   -4.315000   -0.022000
  C      0.568000   -3.064000   -0.027000
  C      2.775000   -5.012000   -1.074000
  N      4.376000   -6.391000    0.017000
  C      1.959000   -2.869000   -0.009000
  C      2.621000   -1.622000    0.009000
  C      5.543000    4.339000   -1.130000
  C      4.070000   -1.479000   -0.094000
  C      4.104000    2.751000   -0.021000
  C      5.027000    2.729000    1.036000
  C      6.166000    3.509000    0.978000
  C      7.619000    5.153000   -0.115000
  C      4.321000   -0.148000   -0.092000
  C      3.025000    0.514000    0.015000
  C      4.387000    3.582000   -1.115000
  C      2.866000    1.916000    0.013000
  N      6.413000    4.296000   -0.095000
  H     -2.798000    7.407000   -0.766000
  H      2.274000    4.766000    0.081000
  H     -4.526000    3.153000    0.973000
  H     -5.872000    5.246000    0.993000
  H     -5.843000    7.592000   -0.787000
  H     -5.868000    7.567000    1.002000
  H     -4.593000    8.473000    0.140000
  H     -0.332000    5.282000    0.069000
  H     -1.328000    5.403000   -0.862000
  H      0.182000    1.072000    0.005000
  H     -0.183000   -1.080000   -0.021000
  H     -5.864000   -4.962000    1.895000
  H     -4.794000    2.272000    0.139000
  H     -4.800000   -2.160000   -1.994000
  H     -6.841000   -3.582000   -1.893000
  H     -8.428000   -4.536000    0.546000
  H     -7.956000   -5.337000   -0.981000
  H     -7.456000   -6.037000    0.584000
  H     -5.287000   -0.344000    0.100000
  H     -3.780000   -3.601000    1.947000
  H      3.587000   -6.868000   -1.843000
  H     -2.276000   -4.774000   -0.050000
  H      3.714000   -3.724000    1.926000
  H      5.092000   -5.795000    1.871000
  H      6.205000   -7.329000   -0.439000
  H      5.393000   -7.917000    1.042000
  H      4.759000   -8.373000   -0.564000
  H      0.329000   -5.290000   -0.008000
  H      2.146000   -4.842000   -1.940000
  H      5.808000    4.986000   -1.956000
  H      4.788000   -2.281000   -0.185000
  H      4.860000    2.114000    1.912000
  H      6.901000    3.531000    1.772000
  H      7.383000    6.109000    0.356000
  H      8.414000    4.652000    0.435000
  H      7.921000    5.310000   -1.150000
  H      5.283000    0.336000   -0.179000
  H      3.720000    3.632000   -1.967000

----------------------------
CARTESIAN COORDINATES (A.U.)
----------------------------
  NO LB      ZA    FRAG     MASS         X           Y           Z
   0 C     6.0000    0    12.011   -5.909174   12.171726   -0.763449
   1 C     6.0000    0    12.011    2.785456    7.636383    0.107714
   2 C     6.0000    0    12.011   -5.295013    7.734649    0.092597
   3 C     6.0000    0    12.011   -7.747877    7.687406    1.097931
   4 C     6.0000    0    12.011   -9.191628    9.862481    1.135725
   5 C     6.0000    0    12.011   -9.885157   14.343021    0.222988
   6 C     6.0000    0    12.011    0.249444    8.139050    0.115273
   7 C     6.0000    0    12.011   -1.075254    5.775003    0.088817
   8 C     6.0000    0    12.011    3.116158    4.947303    0.043464
   9 C     6.0000    0    12.011   -4.397393   10.045784   -0.852266
  10 N     7.0000    0    14.007   -8.265662   12.062122    0.221098
  11 N     7.0000    0    14.007    0.733214    3.906064    0.047243
  12 N     7.0000    0    14.007   -3.798350    0.746442   -0.141729
  13 N     7.0000    0    14.007   -0.733214   -3.919292   -0.051023
  14 N     7.0000    0    14.007    3.798350   -0.757780    0.122832
  15 C     6.0000    0    12.011   -3.703863    5.406506    0.045353
  16 C     6.0000    0    12.011   -4.956752    3.051908   -0.034015
  17 C     6.0000    0    12.011  -10.531444   -8.180624    2.014448
  18 C     6.0000    0    12.011   -7.696855    2.779787    0.105825
  19 C     6.0000    0    12.011   -7.759216   -5.208085   -0.049133
  20 C     6.0000    0    12.011   -9.439182   -5.209975   -2.099486
  21 C     6.0000    0    12.011  -11.587801   -6.693410   -2.033345
  22 C     6.0000    0    12.011  -14.458295   -9.662170    0.075589
  23 C     6.0000    0    12.011   -8.171176    0.266451    0.069920
  24 C     6.0000    0    12.011   -5.716422   -0.982658   -0.090707
  25 C     6.0000    0    12.011   -8.356369   -6.738763    2.031456
  26 N     7.0000    0    14.007  -12.107475   -8.150389    0.001890
  27 C     6.0000    0    12.011   -5.417845   -3.632054   -0.075589
  28 C     6.0000    0    12.011   -3.118048   -4.958641   -0.051023
  29 C     6.0000    0    12.011    6.742543  -11.606698   -1.965315
  30 C     6.0000    0    12.011   -2.789236   -7.651501   -0.064251
  31 C     6.0000    0    12.011    5.296902   -7.745987   -0.015118
  32 C     6.0000    0    12.011    6.910728   -8.284559    2.020117
  33 C     6.0000    0    12.011    8.365818  -10.450186    2.001220
  34 C     6.0000    0    12.011    9.911614  -14.339242    0.026456
  35 C     6.0000    0    12.011   -0.253223   -8.154168   -0.041574
  36 C     6.0000    0    12.011    1.073364   -5.790121   -0.051023
  37 C     6.0000    0    12.011    5.243990   -9.471307   -2.029566
  38 N     7.0000    0    14.007    8.269442  -12.077240    0.032125
  39 C     6.0000    0    12.011    3.701973   -5.421624   -0.017008
  40 C     6.0000    0    12.011    4.952972   -3.065136    0.017008
  41 C     6.0000    0    12.011   10.474752    8.199522   -2.135391
  42 C     6.0000    0    12.011    7.691185   -2.794905   -0.177634
  43 C     6.0000    0    12.011    7.755436    5.198637   -0.039684
  44 C     6.0000    0    12.011    9.499653    5.157063    1.957756
  45 C     6.0000    0    12.011   11.652051    6.631049    1.848152
  46 C     6.0000    0    12.011   14.397823    9.737759   -0.217319
  47 C     6.0000    0    12.011    8.165507   -0.279679   -0.173855
  48 C     6.0000    0    12.011    5.716422    0.971319    0.028346
  49 C     6.0000    0    12.011    8.290229    6.768999   -2.107045
  50 C     6.0000    0    12.011    5.415955    3.620715    0.024566
  51 N     7.0000    0    14.007   12.118814    8.118263   -0.179524
  52 H     1.0000    0     1.008   -5.287454   13.997201   -1.447530
  53 H     1.0000    0     1.008    4.297237    9.006435    0.153068
  54 H     1.0000    0     1.008   -8.552900    5.958307    1.838704
  55 H     1.0000    0     1.008  -11.096472    9.913503    1.876498
  56 H     1.0000    0     1.008  -11.041670   14.346801   -1.487214
  57 H     1.0000    0     1.008  -11.088913   14.299558    1.893506
  58 H     1.0000    0     1.008   -8.679512   16.011650    0.264562
  59 H     1.0000    0     1.008   -0.627389    9.981533    0.130391
  60 H     1.0000    0     1.008   -2.509556   10.210190   -1.628944
  61 H     1.0000    0     1.008    0.343930    2.025786    0.009449
  62 H     1.0000    0     1.008   -0.345820   -2.040904   -0.039684
  63 H     1.0000    0     1.008  -11.081354   -9.376821    3.581031
  64 H     1.0000    0     1.008   -9.059347    4.293458    0.262672
  65 H     1.0000    0     1.008   -9.070685   -4.081808   -3.768114
  66 H     1.0000    0     1.008  -12.927616   -6.768999   -3.577252
  67 H     1.0000    0     1.008  -15.926612   -8.571798    1.031790
  68 H     1.0000    0     1.008  -15.034661  -10.085468   -1.853821
  69 H     1.0000    0     1.008  -14.089798  -11.408277    1.103600
  70 H     1.0000    0     1.008   -9.990982   -0.650066    0.188973
  71 H     1.0000    0     1.008   -7.143165   -6.804904    3.679297
  72 H     1.0000    0     1.008    6.778448  -12.978639   -3.482765
  73 H     1.0000    0     1.008   -4.301017   -9.021553   -0.094486
  74 H     1.0000    0     1.008    7.018443   -7.037340    3.639613
  75 H     1.0000    0     1.008    9.622485  -10.950963    3.535678
  76 H     1.0000    0     1.008   11.725751  -13.849803   -0.829590
  77 H     1.0000    0     1.008   10.191293  -14.960962    1.969095
  78 H     1.0000    0     1.008    8.993207  -15.822677   -1.065806
  79 H     1.0000    0     1.008    0.621720   -9.996651   -0.015118
  80 H     1.0000    0     1.008    4.055352   -9.150054   -3.666069
  81 H     1.0000    0     1.008   10.975529    9.422175   -3.696304
  82 H     1.0000    0     1.008    9.048009   -4.310465   -0.349599
  83 H     1.0000    0     1.008    9.184069    3.994881    3.613156
  84 H     1.0000    0     1.008   13.041000    6.672623    3.348595
  85 H     1.0000    0     1.008   13.951848   11.544337    0.672743
  86 H     1.0000    0     1.008   15.900156    8.791006    0.822031
  87 H     1.0000    0     1.008   14.968521   10.034446   -2.173185
  88 H     1.0000    0     1.008    9.983423    0.634948   -0.338261
  89 H     1.0000    0     1.008    7.029781    6.863485   -3.717091

--------------------------------
INTERNAL COORDINATES (ANGSTROEM)
--------------------------------
 C      0   0   0     0.000000000000     0.00000000     0.00000000
 C      1   0   0     5.209771780030     0.00000000     0.00000000
 C      1   2   0     2.413283655106    54.28487808     0.00000000
 C      3   1   2     1.403015680597    87.93246112   158.36184439
 C      4   3   1     1.381628387085   120.14734204     0.12446712
 C      5   4   3     2.447369812676   152.51651607     1.62230327
 C      2   1   3     1.368114030335    17.13757350   352.34417020
 C      7   2   1     1.434084376876   108.05010202   161.31114510
 C      2   1   3     1.434123425651   124.24748480    14.80683998
 C      1   2   3     1.381243642519    27.90702317   336.38593650
 N      5   4   3     1.352498428835   120.76056333   359.68130174
 N      9   2   1     1.376127174356   106.58526707   352.43023531
 N     12   9   2     2.925062050624   168.53581413   171.12065651
 N     13  12   9     2.954513327098    91.55032014    11.12112580
 N     14  13  12     2.925371258490    88.43092389   359.84326247
 C      8   7   2     1.404790019896   127.24786865   181.11170171
 C     13  12   9     1.366535034311    81.72106996   188.00453233
 C     14  13  12     5.758810554272    80.56209567   166.76250791
 C     17  13  12     1.459010623676   111.08861209   183.82872609
 C     18  14  13     2.412235892279    27.27532823    36.33507194
 C     20  18  14     1.402692767501    87.95206320   148.94598259
 C     21  20  18     1.382106725257   120.14573887   359.70382047
 C     18  14  13     2.446510985056   144.15733107    82.80075377
 C     19  17  13     1.353610726908   106.29293361   359.75308708
 C     13  12   9     1.366813447402   172.21332906    33.46711076
 C     18  14  13     1.380960173213    15.08449437   309.23336894
 N     22  21  20     1.352773077792   120.73759875     0.27865223
 C     25  13  17     1.410897586645   125.60330303   182.37774668
 C     14  13  12     1.376642291955    80.24689249   177.85461986
 C     14  13  12     5.764089607215   164.51507311   312.20821879
 C     29  14  13     1.435600919476   106.58649366   178.76395472
 C     30  14  13     2.413316804732    27.10625047    82.12560436
 C     32  30  14     1.403734305344    87.90059683   149.76154742
 C     33  32  30     1.380694028378   120.14881443   359.74174632
 C     34  33  32     2.448777858443   152.49203239     2.45173620
 C     31  29  14     1.368160809262   108.16950133     0.70383075
 C     14  13  12     1.376239804685   169.26375223   353.09862627
 C     30  14  13     1.380907310430    14.68948582   353.70041132
 N     34  33  32     1.352658863128   120.85575621     0.19603406
 C     37  14  29     1.404717053360   126.01551127   180.90772073
 C     15  14  13     1.366491126938    81.61824056   183.09049352
 C      2   1   3     4.249062720177   142.06372036   154.92419614
 C     41  15  14     1.459677704153   111.05201287   175.08990246
 C     42   2   1     2.412953791518    41.78584867   188.41595990
 C     44  42   2     1.403446472082    87.95153797   233.97558675
 C     45  44  42     1.381696421071   120.11137308     0.19721020
 C     42   2   1     2.450019795838   135.97209175    98.73080900
 C     43  41  15     1.354461516618   106.26758155     0.30894352
 C     15  14  13     1.367461151185   171.87382904   332.35056460
 C     42   2   1     1.381886391857    32.59078432   237.27123909
 C      9   2   1     1.404988612053   126.98745415   173.43457284
 N     42   2   1     1.352765315936   113.57249190   126.46739820
 H      1   2   3     1.082793147374    99.91735137   189.29249543
 H      2   1   3     1.079907866440   110.29976671   189.16519839
 H      4   3   1     1.082758052383   121.08623703   179.53176619
 H      5   4   3     1.081876610340   122.76853464   179.46167436
 H      6   5   4     1.092507665877   104.43366118   100.07290618
 H      6   5   4     1.089841272847    84.67085252   209.54197687
 H      6   5   4     1.089594878843   133.89304748   322.38724502
 H      7   2   1     1.079807853278   126.66122480   341.54955888
 H     10   1   2     1.083739359809   118.77820751   320.84691779
 H     12   9   2     1.016297692608   125.29023241   180.00180175
 H     14  13  12     1.014936943854    44.97226959   359.42596618
 H     18  14  13     1.082871645210   128.03556573   234.20482432
 H     19  17  13     1.080893611786   126.41830519   178.11313280
 H     21  20  18     1.083569563987   121.05669627   180.67006309
 H     22  21  20     1.082483256222   122.73097286   180.59748951
 H     23  18  14     1.092105306278   103.92715769   234.93429879
 H     23  18  14     1.088871893291   134.19244188    12.25587044
 H     23  18  14     1.089833473518    84.85857450   125.45241208
 H     24  19  17     1.080075460327   127.28078426   178.44613241
 H     26  18  14     1.083408048706   118.76995697   244.94906660
 H     30  14  13     1.082703098730   127.99711412   279.66882698
 H     31  29  14     1.079759695488   125.22293469   180.92530585
 H     33  32  30     1.083188810873   121.01964473   180.74284758
 H     34  33  32     1.082494341787   122.70821597   180.59516895
 H     35  34  33     1.092652735319   105.73575241    97.19771933
 H     35  34  33     1.089462711615    84.05943581   206.43036958
 H     35  34  33     1.089268102902   133.08365142   318.50306270
 H     36  31  29     1.079439669458   126.61599965   178.98859863
 H     38  30  73     1.083742127999   118.77264435   359.90091293
 H     42   2   1     1.082178358682   119.31790784   343.09892865
 H     43  41  15     1.080281907652   126.36969097   182.06329380
 H     45  44  42     1.083277434455   121.10105945   179.58025624
 H     46  45  44     1.082194529648   122.72144639   179.46906377
 H     47  42   2     1.091546151109   106.65128841   315.16475048
 H     47  42   2     1.088818625851   132.46019523    94.52397119
 H     47  42   2     1.089531091801    83.63838232   206.04504406
 H     48  43  41     1.080402239909   127.23657387   181.62955349
 H     50  42   2     1.083186502870   118.77001737    94.71359229

---------------------------
INTERNAL COORDINATES (A.U.)
---------------------------
 C      0   0   0     0.000000000000     0.00000000     0.00000000
 C      1   0   0     9.845041884489     0.00000000     0.00000000
 C      1   2   0     4.560445191618    54.28487808     0.00000000
 C      3   1   2     2.651315397925    87.93246112   158.36184439
 C      4   3   1     2.610899270443   120.14734204     0.12446712
 C      5   4   3     4.624858694385   152.51651607     1.62230327
 C      2   1   3     2.585360837309    17.13757350   352.34417020
 C      7   2   1     2.710026725231   108.05010202   161.31114510
 C      2   1   3     2.710100516721   124.24748480    14.80683998
 C      1   2   3     2.610172208581    27.90702317   336.38593650
 N      5   4   3     2.555851627056   120.76056333   359.68130174
 N      9   2   1     2.600503484979   106.58526707   352.43023531
 N     12   9   2     5.527566200405   168.53581413   171.12065651
 N     13  12   9     5.583221047236    91.55032014    11.12112580
 N     14  13  12     5.528150518591    88.43092389   359.84326247
 C      8   7   2     2.654668413270   127.24786865   181.11170171
 C     13  12   9     2.582376967257    81.72106996   188.00453233
 C     14  13  12    10.882574804710    80.56209567   166.76250791
 C     17  13  12     2.757130505230   111.08861209   183.82872609
 C     18  14  13     4.558465206823    27.27532823    36.33507194
 C     20  18  14     2.650705180609    87.95206320   148.94598259
 C     21  20  18     2.611803198586   120.14573887   359.70382047
 C     18  14  13     4.623235745386   144.15733107    82.80075377
 C     19  17  13     2.557953565794   106.29293361   359.75308708
 C     13  12   9     2.582903091751   172.21332906    33.46711076
 C     18  14  13     2.609636529225    15.08449437   309.23336894
 N     22  21  20     2.556370638369   120.73759875     0.27865223
 C     25  13  17     2.666210041769   125.60330303   182.37774668
 C     14  13  12     2.601476916169    80.24689249   177.85461986
 C     14  13  12    10.892550769017   164.51507311   312.20821879
 C     29  14  13     2.712892575415   106.58649366   178.76395472
 C     30  14  13     4.560507835333    27.10625047    82.12560436
 C     32  30  14     2.652673401891    87.90059683   149.76154742
 C     33  32  30     2.609133588376   120.14881443   359.74174632
 C     34  33  32     4.627519515267   152.49203239     2.45173620
 C     31  29  14     2.585449236669   108.16950133     0.70383075
 C     14  13  12     2.600716325456   169.26375223   353.09862627
 C     30  14  13     2.609536633043    14.68948582   353.70041132
 N     34  33  32     2.556154803934   120.85575621     0.19603406
 C     37  14  29     2.654530526499   126.01551127   180.90772073
 C     15  14  13     2.582293994346    81.61824056   183.09049352
 C      2   1   3     8.029564866989   142.06372036   154.92419614
 C     41  15  14     2.758391104639   111.05201287   175.08990246
 C     42   2   1     4.559821839776    41.78584867   188.41595990
 C     44  42   2     2.652129475853    87.95153797   233.97558675
 C     45  44  42     2.611027836043   120.11137308     0.19721020
 C     42   2   1     4.629866436820   135.97209175    98.73080900
 C     43  41  15     2.559561325344   106.26758155     0.30894352
 C     15  14  13     2.584127074516   171.87382904   332.35056460
 C     42   2   1     2.611386828803    32.59078432   237.27123909
 C      9   2   1     2.655043698059   126.98745415   173.43457284
 N     42   2   1     2.556355970587   113.57249190   126.46739820
 H      1   2   3     2.046182508223    99.91735137   189.29249543
 H      2   1   3     2.040730117440   110.29976671   189.16519839
 H      4   3   1     2.046116188302   121.08623703   179.53176619
 H      5   4   3     2.044450504237   122.76853464   179.46167436
 H      6   5   4     2.064540287717   104.43366118   100.07290618
 H      6   5   4     2.059501535124    84.67085252   209.54197687
 H      6   5   4     2.059035917936   133.89304748   322.38724502
 H      7   2   1     2.040541119952   126.66122480   341.54955888
 H     10   1   2     2.047970590591   118.77820751   320.84691779
 H     12   9   2     1.920524309565   125.29023241   180.00180175
 H     14  13  12     1.917952867083    44.97226959   359.42596618
 H     18  14  13     2.046330847636   128.03556573   234.20482432
 H     19  17  13     2.042592906181   126.41830519   178.11313280
 H     21  20  18     2.047649722989   121.05669627   180.67006309
 H     22  21  20     2.045596898814   122.73097286   180.59748951
 H     23  18  14     2.063779938267   103.92715769   234.93429879
 H     23  18  14     2.057669673245   134.19244188    12.25587044
 H     23  18  14     2.059486796529    84.85857450   125.45241208
 H     24  19  17     2.041046823986   127.28078426   178.44613241
 H     26  18  14     2.047344503340   118.76995697   244.94906660
 H     30  14  13     2.046012340948   127.99711412   279.66882698
 H     31  29  14     2.040450114918   125.22293469   180.92530585
 H     33  32  30     2.046930203877   121.01964473   180.74284758
 H     34  33  32     2.045617847496   122.70821597   180.59516895
 H     35  34  33     2.064814429233   105.73575241    97.19771933
 H     35  34  33     2.058786158072    84.05943581   206.43036958
 H     35  34  33     2.058418400901   133.08365142   318.50306270
 H     36  31  29     2.039845353366   126.61599965   178.98859863
 H     38  30  73     2.047975821711   118.77264435   359.90091293
 H     42   2   1     2.045020725966   119.31790784   343.09892865
 H     43  41  15     2.041436952892   126.36969097   182.06329380
 H     45  44  42     2.047097678177   121.10105945   179.58025624
 H     46  45  44     2.045051284662   122.72144639   179.46906377
 H     47  42   2     2.062723288131   106.65128841   315.16475048
 H     47  42   2     2.057569012371   132.46019523    94.52397119
 H     47  42   2     2.058915377895    83.63838232   206.04504406
 H     48  43  41     2.041664347903   127.23657387   181.62955349
 H     50  42   2     2.046925842384   118.77001737    94.71359229

---------------------
BASIS SET INFORMATION
---------------------
There are 3 groups of distinct atoms

 Group   1 Type C   : 17s4p1d contracted to 3s2p1d pattern {881/31/1}
 Group   2 Type N   : 17s4p1d contracted to 3s2p1d pattern {881/31/1}
 Group   3 Type H   : 4s1p contracted to 2s1p pattern {31/1}

Atom   0C    basis set group =>   1
Atom   1N    basis set group =>   2
Atom   2C    basis set group =>   1
Atom   3N    basis set group =>   2
Atom   4C    basis set group =>   1
Atom   5N    basis set group =>   2
Atom   6C    basis set group =>   1
Atom   7N    basis set group =>   2
Atom   8C    basis set group =>   1
Atom   9N    basis set group =>   2
Atom  10C    basis set group =>   1
Atom  11N    basis set group =>   2
Atom  12C    basis set group =>   1
Atom  13N    basis set group =>   2
Atom  14C    basis set group =>   1
Atom  15N    basis set group =>   2
Atom  16C    basis set group =>   1
Atom  17C    basis set group =>   1
Atom  18C    basis set group =>   1
Atom  19C    basis set group =>   1
Atom  20C    basis set group =>   1
Atom  21C    basis set group =>   1
Atom  22C    basis set group =>   1
Atom  23C    basis set group =>   1
Atom  24C    basis set group =>   1
Atom  25C    basis set group =>   1
Atom  26C    basis set group =>   1
Atom  27C    basis set group =>   1
Atom  28C    basis set group =>   1
Atom  29C    basis set group =>   1
Atom  30C    basis set group =>   1
Atom  31C    basis set group =>   1
Atom  32C    basis set group =>   1
Atom  33C    basis set group =>   1
Atom  34C    basis set group =>   1
Atom  35C    basis set group =>   1
Atom  36C    basis set group =>   1
Atom  37C    basis set group =>   1
Atom  38C    basis set group =>   1
Atom  39C    basis set group =>   1
Atom  40C    basis set group =>   1
Atom  41C    basis set group =>   1
Atom  42C    basis set group =>   1
Atom  43C    basis set group =>   1
Atom  44C    basis set group =>   1
Atom  45C    basis set group =>   1
Atom  46C    basis set group =>   1
Atom  47C    basis set group =>   1
Atom  48C    basis set group =>   1
Atom  49C    basis set group =>   1
Atom  50C    basis set group =>   1
Atom  51C    basis set group =>   1
Atom  52H    basis set group =>   3
Atom  53H    basis set group =>   3
Atom  54H    basis set group =>   3
Atom  55H    basis set group =>   3
Atom  56H    basis set group =>   3
Atom  57H    basis set group =>   3
Atom  58H    basis set group =>   3
Atom  59H    basis set group =>   3
Atom  60H    basis set group =>   3
Atom  61H    basis set group =>   3
Atom  62H    basis set group =>   3
Atom  63H    basis set group =>   3
Atom  64H    basis set group =>   3
Atom  65H    basis set group =>   3
Atom  66H    basis set group =>   3
Atom  67H    basis set group =>   3
Atom  68H    basis set group =>   3
Atom  69H    basis set group =>   3
Atom  70H    basis set group =>   3
Atom  71H    basis set group =>   3
Atom  72H    basis set group =>   3
Atom  73H    basis set group =>   3
Atom  74H    basis set group =>   3
Atom  75H    basis set group =>   3
Atom  76H    basis set group =>   3
Atom  77H    basis set group =>   3
Atom  78H    basis set group =>   3
Atom  79H    basis set group =>   3
Atom  80H    basis set group =>   3
Atom  81H    basis set group =>   3
Atom  82H    basis set group =>   3
Atom  83H    basis set group =>   3
Atom  84H    basis set group =>   3
Atom  85H    basis set group =>   3
Atom  86H    basis set group =>   3
Atom  87H    basis set group =>   3
Atom  88H    basis set group =>   3
Atom  89H    basis set group =>   3


           ************************************************************
           *        Program running with 16 parallel MPI-processes    *
           *              working on a common directory               *
           ************************************************************
------------------------------------------------------------------------------
                           ORCA GTO INTEGRAL CALCULATION
------------------------------------------------------------------------------
------------------------------------------------------------------------------
                   ___                                                        
                  /   \      - P O W E R E D   B Y -                         
                 /     \                                                     
                 |  |  |   _    _      __       _____    __    __             
                 |  |  |  | |  | |    /  \     |  _  \  |  |  /  |          
                  \  \/   | |  | |   /    \    | | | |  |  | /  /          
                 / \  \   | |__| |  /  /\  \   | |_| |  |  |/  /          
                |  |  |   |  __  | /  /__\  \  |    /   |      \           
                |  |  |   | |  | | |   __   |  |    \   |  |\   \          
                \     /   | |  | | |  |  |  |  | |\  \  |  | \   \       
                 \___/    |_|  |_| |__|  |__|  |_| \__\ |__|  \__/        
                                                                              
                      - O R C A' S   B I G   F R I E N D -                    
                                      &                                       
                       - I N T E G R A L  F E E D E R -                       
                                                                              
 v1 FN, 2020, v2 2021                                                         
------------------------------------------------------------------------------


Reading SHARK input file /scratch/allen/tmpyp4_amber_gaff2/conf1/conf1/Conf28.orca.SHARKINP.tmp ... ok
----------------------
SHARK INTEGRAL PACKAGE
----------------------

Number of atoms                             ...     90
Number of basis functions                   ...   1230
Number of shells                            ...    738
Maximum angular momentum                    ...      2
Integral batch strategy                     ... SHARK/LIBINT Hybrid
RI-J (if used) integral strategy            ... SPLIT-RIJ (Revised 2003 algorithm where possible)
Printlevel                                  ...      1
Contraction scheme used                     ... PARTIAL GENERAL contraction
Coulomb Range Separation                    ... NOT USED
Exchange Range Separation                   ... NOT USED
Finite Nucleus Model                        ... NOT USED
Auxiliary Coulomb fitting basis             ... NOT available
Auxiliary J/K fitting basis                 ... NOT available
Auxiliary Correlation fitting basis         ... NOT available
Auxiliary 'external' fitting basis          ... NOT available
Integral threshold                          ...     2.500000e-11
Primitive cut-off                           ...     2.500000e-12
Primitive pair pre-selection threshold      ...     2.500000e-12

Calculating pre-screening integrals         ... done (  0.1 sec) Dimension = 738
Calculating pre-screening integrals (ORCA)  ... done (  0.3 sec) Dimension = 426
Organizing shell pair data                  ... done (  0.5 sec)
Shell pair information
Total number of shell pairs                 ...    272691
Shell pairs after pre-screening             ...     71691
Total number of primitive shell pairs       ...    422091
Primitive shell pairs kept                  ...     92559
          la=0 lb=0:  29432 shell pairs
          la=1 lb=0:  26015 shell pairs
          la=1 lb=1:   4703 shell pairs
          la=2 lb=0:   7890 shell pairs
          la=2 lb=1:   3122 shell pairs
          la=2 lb=2:    529 shell pairs

Calculating one electron integrals          ... done (  0.2 sec)
Calculating Nuclear repulsion               ... done (  0.0 sec) ENN=   6232.518442092060 Eh

SHARK setup successfully completed in   1.7 seconds

Maximum memory used throughout the entire GTOINT-calculation: 99.1 MB


           ************************************************************
           *        Program running with 16 parallel MPI-processes    *
           *              working on a common directory               *
           ************************************************************
-------------------------------------------------------------------------------
                                 ORCA SCF
-------------------------------------------------------------------------------

------------
SCF SETTINGS
------------
Hamiltonian:
 Ab initio Hamiltonian  Method          .... Hartree-Fock(GTOs)


General Settings:
 Integral files         IntName         .... /scratch/allen/tmpyp4_amber_gaff2/conf1/conf1/Conf28.orca
 Hartree-Fock type      HFTyp           .... RHF
 Total Charge           Charge          ....    0
 Multiplicity           Mult            ....    1
 Number of Electrons    NEL             ....  358
 Basis Dimension        Dim             ....  918
 Nuclear Repulsion      ENuc            ....   6232.5184420921 Eh

Convergence Acceleration:
 DIIS                   CNVDIIS         .... on
   Start iteration      DIISMaxIt       ....    12
   Startup error        DIISStart       ....  0.200000
   # of expansion vecs  DIISMaxEq       ....     5
   Bias factor          DIISBfac        ....   1.050
   Max. coefficient     DIISMaxC        ....  10.000
 Trust-Rad. Augm. Hess. CNVTRAH         .... auto
   Auto Start mean grad. ratio tolernc. ....  1.125000
   Auto Start start iteration           ....    20
   Auto Start num. interpolation iter.  ....    10
   Max. Number of Micro iterations      ....    16
   Max. Number of Macro iterations      .... Maxiter - #DIIS iter
   Number of Davidson start vectors     ....     2
   Converg. threshold I  (grad. norm)   ....   1.000e-05
   Converg. threshold II (energy diff.) ....   1.000e-08
   Grad. Scal. Fac. for Micro threshold ....   0.100
   Minimum threshold for Micro iter.    ....   0.010
   NR start threshold (gradient norm)   ....   0.001
   Initial trust radius                 ....   0.400
   Minimum AH scaling param. (alpha)    ....   1.000
   Maximum AH scaling param. (alpha)    .... 1000.000
   Orbital update algorithm             .... Taylor
   White noise on init. David. guess    .... on
   Maximum white noise                  ....   0.010
   Quad. conv. algorithm                .... NR
 SOSCF                  CNVSOSCF        .... on
   Start iteration      SOSCFMaxIt      ....   150
   Startup grad/error   SOSCFStart      ....  0.003300
 Level Shifting         CNVShift        .... on
   Level shift para.    LevelShift      ....    0.2500
   Turn off err/grad.   ShiftErr        ....    0.0010
 Zerner damping         CNVZerner       .... off
 Static damping         CNVDamp         .... on
   Fraction old density DampFac         ....    0.7000
   Max. Damping (<1)    DampMax         ....    0.9800
   Min. Damping (>=0)   DampMin         ....    0.0000
   Turn off err/grad.   DampErr         ....    0.1000
 Fernandez-Rico         CNVRico         .... off

SCF Procedure:
 Maximum # iterations   MaxIter         ....   125
 SCF integral mode      SCFMode         .... Direct
   Integral package                     .... SHARK and LIBINT hybrid scheme
 Reset frequency        DirectResetFreq ....    20
 Integral Threshold     Thresh          ....  2.500e-11 Eh
 Primitive CutOff       TCut            ....  2.500e-12 Eh

Convergence Tolerance:
 Convergence Check Mode ConvCheckMode   .... Total+1el-Energy
 Convergence forced     ConvForced      .... 1
 Energy Change          TolE            ....  1.000e-08 Eh
 1-El. energy change                    ....  1.000e-05 Eh
 Orbital Gradient       TolG            ....  1.000e-05
 Orbital Rotation angle TolX            ....  1.000e-05
 DIIS Error             TolErr          ....  5.000e-07


Diagonalization of the overlap matrix:
Smallest eigenvalue                        ... 2.146e-04
Time for diagonalization                   ...    0.406 sec
Threshold for overlap eigenvalues          ... 1.000e-08
Number of eigenvalues below threshold      ... 0
Time for construction of square roots      ...    0.194 sec
Total time needed                          ...    0.606 sec

Time for model grid setup =    1.009 sec

------------------------------
INITIAL GUESS: MODEL POTENTIAL
------------------------------
Loading Hartree-Fock densities                     ... done
Calculating cut-offs                               ... done
Initializing the effective Hamiltonian             ... done
Setting up the integral package (SHARK)            ... done
Starting the Coulomb interaction                   ... done (   1.1 sec)
Reading the grid                                   ... done
Mapping shells                                     ... done
Starting the XC term evaluation                    ... done (   0.2 sec)
Transforming the Hamiltonian                       ... done (   0.2 sec)
Diagonalizing the Hamiltonian                      ... done (   0.3 sec)
Back transforming the eigenvectors                 ... done (   0.1 sec)
Now organizing SCF variables                       ... done
                      ------------------
                      INITIAL GUESS DONE (   2.9 sec)
                      ------------------
--------------
SCF ITERATIONS
--------------
ITER       Energy         Delta-E        Max-DP      RMS-DP      [F,P]     Damp
               ***  Starting incremental Fock matrix formation  ***
  0  -2121.6672045443   0.000000000000 0.07448446  0.00123002  0.2318135 0.7000
  1  -2122.3178287977  -0.650624253305 0.05635271  0.00100146  0.1436873 0.7000
                               ***Turning on DIIS***
  2  -2122.7227462300  -0.404917432354 0.13173414  0.00227156  0.0802563 0.0000
  3  -2117.9665430068   4.756203223207 0.04723280  0.00068201  0.0437285 0.0000
  4  -2123.4036464019  -5.437103395145 0.01403480  0.00022698  0.0086351 0.0000
  5  -2123.5541798075  -0.150533405520 0.00669666  0.00013283  0.0049209 0.0000
  6  -2123.5384011291   0.015778678388 0.00392945  0.00008528  0.0020957 0.0000
  7  -2123.6340640210  -0.095662891958 0.00305665  0.00006728  0.0015860 0.0000
  8  -2123.6437621105  -0.009698089425 0.00324857  0.00006391  0.0014817 0.0000
  9  -2123.6145813265   0.029180783973 0.00259656  0.00004496  0.0011877 0.0000
 10  -2123.6234565800  -0.008875253518 0.00520591  0.00009372  0.0009226 0.0000
                      *** Initiating the SOSCF procedure ***
                           *** Shutting down DIIS ***
                      *** Re-Reading the Fockian *** 
                      *** Removing any level shift *** 
ITER      Energy       Delta-E        Grad      Rot      Max-DP    RMS-DP
 11  -2123.51512221   0.1083343724  0.000183  0.000183  0.000239  0.000005
               *** Restarting incremental Fock matrix formation ***
 12  -2123.58146530  -0.0663430970  0.000883  0.006115  0.001392  0.000035
 13  -2123.58157196  -0.0001066573  0.001098  0.030568  0.006407  0.000135
 14  -2123.58175466  -0.0001827011  0.000352  0.001699  0.000655  0.000012
 15  -2123.58177029  -0.0000156222  0.000183  0.002637  0.000663  0.000016
 16  -2123.58177913  -0.0000088484  0.000151  0.002616  0.000448  0.000010
 17  -2123.58178211  -0.0000029799  0.000140  0.001858  0.000324  0.000007
 18  -2123.58178372  -0.0000016050  0.000069  0.001012  0.000275  0.000004
 19  -2123.58178453  -0.0000008107  0.000045  0.001071  0.000205  0.000004
 20  -2123.58178489  -0.0000003618  0.000027  0.000741  0.000118  0.000003
 21  -2123.58178509  -0.0000001993  0.000024  0.000910  0.000148  0.000003
 22  -2123.58178526  -0.0000001732  0.000022  0.000798  0.000132  0.000003
 23  -2123.58178537  -0.0000001041  0.000014  0.000484  0.000080  0.000002
 24  -2123.58178542  -0.0000000534  0.000009  0.000353  0.000053  0.000001
 25  -2123.58178546  -0.0000000341  0.000009  0.000183  0.000038  0.000001
 26  -2123.58178547  -0.0000000170  0.000007  0.000137  0.000033  0.000001
 27  -2123.58178548  -0.0000000054  0.000004  0.000100  0.000023  0.000000
                  ***Gradient check signals convergence***
              ***Rediagonalizing the Fockian in SOSCF/NRSCF***

               *****************************************************
               *                     SUCCESS                       *
               *           SCF CONVERGED AFTER  28 CYCLES          *
               *****************************************************


----------------
TOTAL SCF ENERGY
----------------

Total Energy       :        -2123.58178548 Eh          -57785.59815 eV

Components:
Nuclear Repulsion  :         6232.51844209 Eh          169595.44888 eV
Electronic Energy  :        -8356.10022757 Eh         -227381.04702 eV
One Electron Energy:       -15305.73931571 Eh         -416490.34074 eV
Two Electron Energy:         6949.63908814 Eh          189109.29372 eV

Virial components:
Potential Energy   :        -4245.86213428 Eh         -115535.78240 eV
Kinetic Energy     :         2122.28034881 Eh           57750.18425 eV
Virial Ratio       :            2.00061323


---------------
SCF CONVERGENCE
---------------

  Last Energy change         ...    1.8317e-09  Tolerance :   1.0000e-08
  Last MAX-Density change    ...    1.1679e-05  Tolerance :   1.0000e-07
  Last RMS-Density change    ...    2.3678e-07  Tolerance :   5.0000e-09
  Last Orbital Gradient      ...    2.2590e-06  Tolerance :   1.0000e-05
  Last Orbital Rotation      ...    5.7624e-05  Tolerance :   1.0000e-05

             **** THE GBW FILE WAS UPDATED (/scratch/allen/tmpyp4_amber_gaff2/conf1/conf1/Conf28.orca.gbw) ****
             **** DENSITY /scratch/allen/tmpyp4_amber_gaff2/conf1/conf1/Conf28.orca.scfp WAS UPDATED ****
             **** ENERGY FILE WAS UPDATED (/scratch/allen/tmpyp4_amber_gaff2/conf1/conf1/Conf28.orca.en.tmp) ****
             **** THE GBW FILE WAS UPDATED (/scratch/allen/tmpyp4_amber_gaff2/conf1/conf1/Conf28.orca.gbw) ****
             **** DENSITY /scratch/allen/tmpyp4_amber_gaff2/conf1/conf1/Conf28.orca.scfp WAS UPDATED ****
----------------
ORBITAL ENERGIES
----------------

  NO   OCC          E(Eh)            E(eV) 
   0   2.0000     -15.675410      -426.5496 
   1   2.0000     -15.633932      -425.4209 
   2   2.0000     -15.631541      -425.3559 
   3   2.0000     -15.590493      -424.2389 
   4   2.0000     -15.524701      -422.4486 
   5   2.0000     -15.516073      -422.2138 
   6   2.0000     -15.453054      -420.4990 
   7   2.0000     -15.440733      -420.1637 
   8   2.0000     -11.325842      -308.1918 
   9   2.0000     -11.325231      -308.1752 
  10   2.0000     -11.324630      -308.1588 
  11   2.0000     -11.299301      -307.4696 
  12   2.0000     -11.298162      -307.4386 
  13   2.0000     -11.292755      -307.2915 
  14   2.0000     -11.290690      -307.2353 
  15   2.0000     -11.286749      -307.1281 
  16   2.0000     -11.286545      -307.1225 
  17   2.0000     -11.277946      -306.8885 
  18   2.0000     -11.272475      -306.7396 
  19   2.0000     -11.260323      -306.4090 
  20   2.0000     -11.259350      -306.3825 
  21   2.0000     -11.255440      -306.2761 
  22   2.0000     -11.253001      -306.2097 
  23   2.0000     -11.237640      -305.7917 
  24   2.0000     -11.236305      -305.7554 
  25   2.0000     -11.231155      -305.6153 
  26   2.0000     -11.230346      -305.5933 
  27   2.0000     -11.229540      -305.5713 
  28   2.0000     -11.229430      -305.5683 
  29   2.0000     -11.209994      -305.0394 
  30   2.0000     -11.208739      -305.0053 
  31   2.0000     -11.198458      -304.7255 
  32   2.0000     -11.190488      -304.5087 
  33   2.0000     -11.189671      -304.4864 
  34   2.0000     -11.189586      -304.4841 
  35   2.0000     -11.189004      -304.4683 
  36   2.0000     -11.186874      -304.4103 
  37   2.0000     -11.186141      -304.3904 
  38   2.0000     -11.185650      -304.3770 
  39   2.0000     -11.173104      -304.0356 
  40   2.0000     -11.172136      -304.0093 
  41   2.0000     -11.170617      -303.9679 
  42   2.0000     -11.167394      -303.8802 
  43   2.0000     -11.160676      -303.6974 
  44   2.0000     -11.160142      -303.6829 
  45   2.0000     -11.158075      -303.6267 
  46   2.0000     -11.156292      -303.5781 
  47   2.0000     -11.155326      -303.5518 
  48   2.0000     -11.147941      -303.3509 
  49   2.0000     -11.138489      -303.0937 
  50   2.0000     -11.131164      -302.8944 
  51   2.0000     -11.120397      -302.6014 
  52   2.0000      -1.356662       -36.9166 
  53   2.0000      -1.321189       -35.9514 
  54   2.0000      -1.319358       -35.9016 
  55   2.0000      -1.284029       -34.9402 
  56   2.0000      -1.225411       -33.3451 
  57   2.0000      -1.210546       -32.9406 
  58   2.0000      -1.172252       -31.8986 
  59   2.0000      -1.151471       -31.3331 
  60   2.0000      -1.140559       -31.0362 
  61   2.0000      -1.110245       -30.2113 
  62   2.0000      -1.108706       -30.1694 
  63   2.0000      -1.079870       -29.3847 
  64   2.0000      -1.078630       -29.3510 
  65   2.0000      -1.045375       -28.4461 
  66   2.0000      -1.044045       -28.4099 
  67   2.0000      -1.039042       -28.2738 
  68   2.0000      -1.014551       -27.6073 
  69   2.0000      -1.013534       -27.5797 
  70   2.0000      -1.009572       -27.4719 
  71   2.0000      -0.992808       -27.0157 
  72   2.0000      -0.986606       -26.8469 
  73   2.0000      -0.980304       -26.6754 
  74   2.0000      -0.972383       -26.4599 
  75   2.0000      -0.961270       -26.1575 
  76   2.0000      -0.953665       -25.9505 
  77   2.0000      -0.946181       -25.7469 
  78   2.0000      -0.935233       -25.4490 
  79   2.0000      -0.918740       -25.0002 
  80   2.0000      -0.907410       -24.6919 
  81   2.0000      -0.894451       -24.3392 
  82   2.0000      -0.874922       -23.8078 
  83   2.0000      -0.871808       -23.7231 
  84   2.0000      -0.869507       -23.6605 
  85   2.0000      -0.857404       -23.3312 
  86   2.0000      -0.841519       -22.8989 
  87   2.0000      -0.835727       -22.7413 
  88   2.0000      -0.824767       -22.4431 
  89   2.0000      -0.797567       -21.7029 
  90   2.0000      -0.791081       -21.5264 
  91   2.0000      -0.751523       -20.4500 
  92   2.0000      -0.745262       -20.2796 
  93   2.0000      -0.732911       -19.9435 
  94   2.0000      -0.724693       -19.7199 
  95   2.0000      -0.722014       -19.6470 
  96   2.0000      -0.716415       -19.4946 
  97   2.0000      -0.712507       -19.3883 
  98   2.0000      -0.708266       -19.2729 
  99   2.0000      -0.696985       -18.9659 
 100   2.0000      -0.696258       -18.9461 
 101   2.0000      -0.685580       -18.6556 
 102   2.0000      -0.681751       -18.5514 
 103   2.0000      -0.681355       -18.5406 
 104   2.0000      -0.678236       -18.4558 
 105   2.0000      -0.673678       -18.3317 
 106   2.0000      -0.670226       -18.2378 
 107   2.0000      -0.660513       -17.9735 
 108   2.0000      -0.656841       -17.8736 
 109   2.0000      -0.653063       -17.7707 
 110   2.0000      -0.651273       -17.7221 
 111   2.0000      -0.643697       -17.5159 
 112   2.0000      -0.642951       -17.4956 
 113   2.0000      -0.639236       -17.3945 
 114   2.0000      -0.637584       -17.3496 
 115   2.0000      -0.627908       -17.0862 
 116   2.0000      -0.623904       -16.9773 
 117   2.0000      -0.619936       -16.8693 
 118   2.0000      -0.612619       -16.6702 
 119   2.0000      -0.612225       -16.6595 
 120   2.0000      -0.611249       -16.6329 
 121   2.0000      -0.608560       -16.5597 
 122   2.0000      -0.600670       -16.3451 
 123   2.0000      -0.586683       -15.9645 
 124   2.0000      -0.581686       -15.8285 
 125   2.0000      -0.580585       -15.7985 
 126   2.0000      -0.579572       -15.7709 
 127   2.0000      -0.573820       -15.6144 
 128   2.0000      -0.568084       -15.4583 
 129   2.0000      -0.559349       -15.2207 
 130   2.0000      -0.551491       -15.0068 
 131   2.0000      -0.547524       -14.8989 
 132   2.0000      -0.542196       -14.7539 
 133   2.0000      -0.541405       -14.7324 
 134   2.0000      -0.538174       -14.6445 
 135   2.0000      -0.535822       -14.5805 
 136   2.0000      -0.528997       -14.3948 
 137   2.0000      -0.521779       -14.1983 
 138   2.0000      -0.516705       -14.0602 
 139   2.0000      -0.514102       -13.9894 
 140   2.0000      -0.512552       -13.9473 
 141   2.0000      -0.511330       -13.9140 
 142   2.0000      -0.509008       -13.8508 
 143   2.0000      -0.504197       -13.7199 
 144   2.0000      -0.501892       -13.6572 
 145   2.0000      -0.496748       -13.5172 
 146   2.0000      -0.491986       -13.3876 
 147   2.0000      -0.483210       -13.1488 
 148   2.0000      -0.479372       -13.0444 
 149   2.0000      -0.466620       -12.6974 
 150   2.0000      -0.466432       -12.6923 
 151   2.0000      -0.457218       -12.4415 
 152   2.0000      -0.450896       -12.2695 
 153   2.0000      -0.445018       -12.1096 
 154   2.0000      -0.440877       -11.9969 
 155   2.0000      -0.428662       -11.6645 
 156   2.0000      -0.425815       -11.5870 
 157   2.0000      -0.409609       -11.1460 
 158   2.0000      -0.404005       -10.9935 
 159   2.0000      -0.388436       -10.5699 
 160   2.0000      -0.384804       -10.4711 
 161   2.0000      -0.378443       -10.2980 
 162   2.0000      -0.370077       -10.0703 
 163   2.0000      -0.356621        -9.7042 
 164   2.0000      -0.355654        -9.6778 
 165   2.0000      -0.341017        -9.2795 
 166   2.0000      -0.337544        -9.1850 
 167   2.0000      -0.325577        -8.8594 
 168   2.0000      -0.323603        -8.8057 
 169   2.0000      -0.304350        -8.2818 
 170   2.0000      -0.299673        -8.1545 
 171   2.0000      -0.285725        -7.7750 
 172   2.0000      -0.281103        -7.6492 
 173   2.0000      -0.263173        -7.1613 
 174   2.0000      -0.242212        -6.5909 
 175   2.0000      -0.189876        -5.1668 
 176   2.0000      -0.180373        -4.9082 
 177   2.0000      -0.076677        -2.0865 
 178   2.0000      -0.058746        -1.5986 
 179   0.0000       0.028436         0.7738 
 180   0.0000       0.066043         1.7971 
 181   0.0000       0.090981         2.4757 
 182   0.0000       0.109061         2.9677 
 183   0.0000       0.111389         3.0310 
 184   0.0000       0.137027         3.7287 
 185   0.0000       0.139567         3.7978 
 186   0.0000       0.143211         3.8970 
 187   0.0000       0.163519         4.4496 
 188   0.0000       0.165110         4.4929 
 189   0.0000       0.165831         4.5125 
 190   0.0000       0.170223         4.6320 
 191   0.0000       0.182670         4.9707 
 192   0.0000       0.186070         5.0632 
 193   0.0000       0.187332         5.0976 
 194   0.0000       0.204903         5.5757 
 195   0.0000       0.205749         5.5987 
 196   0.0000       0.208257         5.6670 
 197   0.0000       0.208769         5.6809 
 198   0.0000       0.218660         5.9500 
 199   0.0000       0.227246         6.1837 
 200   0.0000       0.231738         6.3059 
 201   0.0000       0.235867         6.4183 
 202   0.0000       0.239150         6.5076 
 203   0.0000       0.239922         6.5286 
 204   0.0000       0.247669         6.7394 
 205   0.0000       0.256369         6.9762 
 206   0.0000       0.256971         6.9925 
 207   0.0000       0.257132         6.9969 
 208   0.0000       0.258704         7.0397 
 209   0.0000       0.261589         7.1182 
 210   0.0000       0.262875         7.1532 
 211   0.0000       0.267452         7.2777 
 212   0.0000       0.270469         7.3598 
 213   0.0000       0.271907         7.3990 
 214   0.0000       0.272752         7.4219 
 215   0.0000       0.275852         7.5063 
 216   0.0000       0.278058         7.5664 
 217   0.0000       0.282291         7.6815 
 218   0.0000       0.286337         7.7916 
 219   0.0000       0.287859         7.8330 
 220   0.0000       0.289894         7.8884 
 221   0.0000       0.292197         7.9511 
 222   0.0000       0.295232         8.0337 
 223   0.0000       0.296319         8.0632 
 224   0.0000       0.297416         8.0931 
 225   0.0000       0.299052         8.1376 
 226   0.0000       0.305438         8.3114 
 227   0.0000       0.308494         8.3945 
 228   0.0000       0.309932         8.4337 
 229   0.0000       0.324754         8.8370 
 230   0.0000       0.327146         8.9021 
 231   0.0000       0.331678         9.0254 
 232   0.0000       0.338724         9.2172 
 233   0.0000       0.344467         9.3734 
 234   0.0000       0.353813         9.6277 
 235   0.0000       0.357778         9.7356 
 236   0.0000       0.376450        10.2437 
 237   0.0000       0.383485        10.4352 
 238   0.0000       0.393561        10.7093 
 239   0.0000       0.396663        10.7938 
 240   0.0000       0.400830        10.9071 
 241   0.0000       0.410202        11.1622 
 242   0.0000       0.413868        11.2619 
 243   0.0000       0.419612        11.4182 
 244   0.0000       0.429279        11.6813 
 245   0.0000       0.433976        11.8091 
 246   0.0000       0.436433        11.8759 
 247   0.0000       0.441150        12.0043 
 248   0.0000       0.441788        12.0217 
 249   0.0000       0.448635        12.2080 
 250   0.0000       0.457319        12.4443 
 251   0.0000       0.462424        12.5832 
 252   0.0000       0.469192        12.7674 
 253   0.0000       0.470572        12.8049 
 254   0.0000       0.472215        12.8496 
 255   0.0000       0.473661        12.8890 
 256   0.0000       0.477105        12.9827 
 257   0.0000       0.480742        13.0817 
 258   0.0000       0.486995        13.2518 
 259   0.0000       0.497200        13.5295 
 260   0.0000       0.503925        13.7125 
 261   0.0000       0.505215        13.7476 
 262   0.0000       0.506704        13.7881 
 263   0.0000       0.509480        13.8637 
 264   0.0000       0.514702        14.0058 
 265   0.0000       0.519483        14.1358 
 266   0.0000       0.524529        14.2732 
 267   0.0000       0.530108        14.4250 
 268   0.0000       0.532737        14.4965 
 269   0.0000       0.536900        14.6098 
 270   0.0000       0.541008        14.7216 
 271   0.0000       0.545668        14.8484 
 272   0.0000       0.555657        15.1202 
 273   0.0000       0.559270        15.2185 
 274   0.0000       0.561707        15.2848 
 275   0.0000       0.565155        15.3786 
 276   0.0000       0.570224        15.5166 
 277   0.0000       0.572901        15.5894 
 278   0.0000       0.577676        15.7194 
 279   0.0000       0.586737        15.9659 
 280   0.0000       0.589952        16.0534 
 281   0.0000       0.593018        16.1368 
 282   0.0000       0.594696        16.1825 
 283   0.0000       0.594935        16.1890 
 284   0.0000       0.597917        16.2701 
 285   0.0000       0.600093        16.3293 
 286   0.0000       0.607145        16.5213 
 287   0.0000       0.612088        16.6558 
 288   0.0000       0.616576        16.7779 
 289   0.0000       0.622954        16.9515 
 290   0.0000       0.626705        17.0535 
 291   0.0000       0.629058        17.1175 
 292   0.0000       0.634541        17.2667 
 293   0.0000       0.639302        17.3963 
 294   0.0000       0.645015        17.5518 
 295   0.0000       0.647698        17.6248 
 296   0.0000       0.653134        17.7727 
 297   0.0000       0.655838        17.8463 
 298   0.0000       0.662409        18.0251 
 299   0.0000       0.667386        18.1605 
 300   0.0000       0.672110        18.2890 
 301   0.0000       0.675193        18.3729 
 302   0.0000       0.676722        18.4145 
 303   0.0000       0.679472        18.4894 
 304   0.0000       0.680787        18.5252 
 305   0.0000       0.685090        18.6422 
 306   0.0000       0.688128        18.7249 
 307   0.0000       0.690762        18.7966 
 308   0.0000       0.695582        18.9278 
 309   0.0000       0.698049        18.9949 
 310   0.0000       0.702596        19.1186 
 311   0.0000       0.703819        19.1519 
 312   0.0000       0.707340        19.2477 
 313   0.0000       0.711411        19.3585 
 314   0.0000       0.711893        19.3716 
 315   0.0000       0.715751        19.4766 
 316   0.0000       0.717196        19.5159 
 317   0.0000       0.718359        19.5475 
 318   0.0000       0.721471        19.6322 
 319   0.0000       0.723199        19.6793 
 320   0.0000       0.726365        19.7654 
 321   0.0000       0.730582        19.8801 
 322   0.0000       0.732509        19.9326 
 323   0.0000       0.733618        19.9628 
 324   0.0000       0.734461        19.9857 
 325   0.0000       0.740059        20.1380 
 326   0.0000       0.743812        20.2402 
 327   0.0000       0.749280        20.3889 
 328   0.0000       0.751727        20.4555 
 329   0.0000       0.752689        20.4817 
 330   0.0000       0.754231        20.5237 
 331   0.0000       0.758773        20.6473 
 332   0.0000       0.760399        20.6915 
 333   0.0000       0.766555        20.8590 
 334   0.0000       0.767508        20.8850 
 335   0.0000       0.772200        21.0126 
 336   0.0000       0.774620        21.0785 
 337   0.0000       0.781222        21.2581 
 338   0.0000       0.782099        21.2820 
 339   0.0000       0.788790        21.4641 
 340   0.0000       0.793137        21.5823 
 341   0.0000       0.794688        21.6246 
 342   0.0000       0.795985        21.6599 
 343   0.0000       0.803098        21.8534 
 344   0.0000       0.805199        21.9106 
 345   0.0000       0.807785        21.9809 
 346   0.0000       0.808603        22.0032 
 347   0.0000       0.813447        22.1350 
 348   0.0000       0.815499        22.1909 
 349   0.0000       0.818046        22.2602 
 350   0.0000       0.819368        22.2961 
 351   0.0000       0.821951        22.3664 
 352   0.0000       0.824286        22.4300 
 353   0.0000       0.826414        22.4879 
 354   0.0000       0.827183        22.5088 
 355   0.0000       0.832231        22.6462 
 356   0.0000       0.833094        22.6697 
 357   0.0000       0.836334        22.7578 
 358   0.0000       0.837447        22.7881 
 359   0.0000       0.839468        22.8431 
 360   0.0000       0.839584        22.8462 
 361   0.0000       0.842824        22.9344 
 362   0.0000       0.844346        22.9758 
 363   0.0000       0.848389        23.0858 
 364   0.0000       0.848994        23.1023 
 365   0.0000       0.854646        23.2561 
 366   0.0000       0.857168        23.3247 
 367   0.0000       0.860692        23.4206 
 368   0.0000       0.864554        23.5257 
 369   0.0000       0.867463        23.6049 
 370   0.0000       0.871323        23.7099 
 371   0.0000       0.872103        23.7311 
 372   0.0000       0.873988        23.7824 
 373   0.0000       0.875698        23.8290 
 374   0.0000       0.878925        23.9168 
 375   0.0000       0.884101        24.0576 
 376   0.0000       0.885851        24.1052 
 377   0.0000       0.889527        24.2053 
 378   0.0000       0.890553        24.2332 
 379   0.0000       0.892120        24.2758 
 380   0.0000       0.897027        24.4093 
 381   0.0000       0.899091        24.4655 
 382   0.0000       0.899963        24.4892 
 383   0.0000       0.901066        24.5193 
 384   0.0000       0.904818        24.6213 
 385   0.0000       0.905447        24.6385 
 386   0.0000       0.907989        24.7076 
 387   0.0000       0.909055        24.7367 
 388   0.0000       0.912033        24.8177 
 389   0.0000       0.916383        24.9361 
 390   0.0000       0.920913        25.0593 
 391   0.0000       0.924455        25.1557 
 392   0.0000       0.926021        25.1983 
 393   0.0000       0.927402        25.2359 
 394   0.0000       0.928306        25.2605 
 395   0.0000       0.930014        25.3070 
 396   0.0000       0.934569        25.4309 
 397   0.0000       0.939593        25.5676 
 398   0.0000       0.941787        25.6273 
 399   0.0000       0.943881        25.6843 
 400   0.0000       0.945755        25.7353 
 401   0.0000       0.951180        25.8829 
 402   0.0000       0.953316        25.9410 
 403   0.0000       0.956172        26.0188 
 404   0.0000       0.959906        26.1204 
 405   0.0000       0.963321        26.2133 
 406   0.0000       0.967524        26.3277 
 407   0.0000       0.971412        26.4335 
 408   0.0000       0.977147        26.5895 
 409   0.0000       0.980014        26.6675 
 410   0.0000       0.983597        26.7650 
 411   0.0000       0.986703        26.8496 
 412   0.0000       0.991614        26.9832 
 413   0.0000       0.998665        27.1751 
 414   0.0000       1.001580        27.2544 
 415   0.0000       1.004127        27.3237 
 416   0.0000       1.010431        27.4952 
 417   0.0000       1.012406        27.5490 
 418   0.0000       1.022991        27.8370 
 419   0.0000       1.028548        27.9882 
 420   0.0000       1.032042        28.0833 
 421   0.0000       1.032792        28.1037 
 422   0.0000       1.038732        28.2653 
 423   0.0000       1.046793        28.4847 
 424   0.0000       1.054098        28.6835 
 425   0.0000       1.056946        28.7610 
 426   0.0000       1.060818        28.8663 
 427   0.0000       1.066614        29.0241 
 428   0.0000       1.077112        29.3097 
 429   0.0000       1.083442        29.4820 
 430   0.0000       1.084585        29.5130 
 431   0.0000       1.089235        29.6396 
 432   0.0000       1.089366        29.6432 
 433   0.0000       1.095401        29.8074 
 434   0.0000       1.101317        29.9684 
 435   0.0000       1.102590        30.0030 
 436   0.0000       1.107198        30.1284 
 437   0.0000       1.110844        30.2276 
 438   0.0000       1.115501        30.3543 
 439   0.0000       1.119656        30.4674 
 440   0.0000       1.120858        30.5001 
 441   0.0000       1.123003        30.5585 
 442   0.0000       1.124807        30.6076 
 443   0.0000       1.127977        30.6938 
 444   0.0000       1.134463        30.8703 
 445   0.0000       1.136415        30.9234 
 446   0.0000       1.140147        31.0250 
 447   0.0000       1.145698        31.1760 
 448   0.0000       1.147893        31.2357 
 449   0.0000       1.149723        31.2855 
 450   0.0000       1.153175        31.3795 
 451   0.0000       1.159351        31.5475 
 452   0.0000       1.163814        31.6690 
 453   0.0000       1.166444        31.7406 
 454   0.0000       1.169489        31.8234 
 455   0.0000       1.171289        31.8724 
 456   0.0000       1.174984        31.9729 
 457   0.0000       1.178711        32.0744 
 458   0.0000       1.184463        32.2309 
 459   0.0000       1.190159        32.3859 
 460   0.0000       1.196746        32.5651 
 461   0.0000       1.198882        32.6232 
 462   0.0000       1.199698        32.6454 
 463   0.0000       1.205549        32.8047 
 464   0.0000       1.208603        32.8878 
 465   0.0000       1.212118        32.9834 
 466   0.0000       1.217262        33.1234 
 467   0.0000       1.218945        33.1692 
 468   0.0000       1.223939        33.3051 
 469   0.0000       1.225899        33.3584 
 470   0.0000       1.228890        33.4398 
 471   0.0000       1.232271        33.5318 
 472   0.0000       1.235274        33.6135 
 473   0.0000       1.236993        33.6603 
 474   0.0000       1.243064        33.8255 
 475   0.0000       1.243362        33.8336 
 476   0.0000       1.249499        34.0006 
 477   0.0000       1.250528        34.0286 
 478   0.0000       1.251909        34.0662 
 479   0.0000       1.255678        34.1687 
 480   0.0000       1.258763        34.2527 
 481   0.0000       1.263788        34.3894 
 482   0.0000       1.264435        34.4070 
 483   0.0000       1.271312        34.5941 
 484   0.0000       1.275296        34.7026 
 485   0.0000       1.279534        34.8179 
 486   0.0000       1.282383        34.8954 
 487   0.0000       1.285513        34.9806 
 488   0.0000       1.288486        35.0615 
 489   0.0000       1.291901        35.1544 
 490   0.0000       1.294988        35.2384 
 491   0.0000       1.298210        35.3261 
 492   0.0000       1.300387        35.3853 
 493   0.0000       1.310478        35.6599 
 494   0.0000       1.311155        35.6784 
 495   0.0000       1.318088        35.8670 
 496   0.0000       1.320449        35.9313 
 497   0.0000       1.321048        35.9475 
 498   0.0000       1.326745        36.1026 
 499   0.0000       1.328572        36.1523 
 500   0.0000       1.332891        36.2698 
 501   0.0000       1.339353        36.4456 
 502   0.0000       1.340448        36.4754 
 503   0.0000       1.344256        36.5791 
 504   0.0000       1.346730        36.6464 
 505   0.0000       1.351455        36.7750 
 506   0.0000       1.351637        36.7799 
 507   0.0000       1.355356        36.8811 
 508   0.0000       1.358593        36.9692 
 509   0.0000       1.360658        37.0254 
[...]
      pz      :     0.022105  p :     0.079759
      px      :     0.043581
      py      :     0.014074
 77 H s       :     0.884977  s :     0.884977
      pz      :     0.047942  p :     0.079251
      px      :     0.015022
      py      :     0.016287
 78 H s       :     0.885322  s :     0.885322
      pz      :     0.025865  p :     0.079218
      px      :     0.020465
      py      :     0.032888
 79 H s       :     0.910579  s :     0.910579
      pz      :     0.021825  p :     0.086343
      px      :     0.021670
      py      :     0.042848
 80 H s       :     0.865038  s :     0.865038
      pz      :     0.039339  p :     0.084754
      px      :     0.030244
      py      :     0.015171
 81 H s       :     0.886863  s :     0.886863
      pz      :     0.037815  p :     0.084106
      px      :     0.016179
      py      :     0.030112
 82 H s       :     0.915882  s :     0.915882
      pz      :     0.021961  p :     0.086740
      px      :     0.031627
      py      :     0.033152
 83 H s       :     0.873281  s :     0.873281
      pz      :     0.039281  p :     0.084089
      px      :     0.015271
      py      :     0.029536
 84 H s       :     0.886661  s :     0.886661
      pz      :     0.035777  p :     0.083464
      px      :     0.031701
      py      :     0.015987
 85 H s       :     0.892854  s :     0.892854
      pz      :     0.022493  p :     0.079787
      px      :     0.014069
      py      :     0.043225
 86 H s       :     0.890939  s :     0.890939
      pz      :     0.024731  p :     0.078834
      px      :     0.032984
      py      :     0.021119
 87 H s       :     0.889886  s :     0.889886
      pz      :     0.048010  p :     0.078737
      px      :     0.015589
      py      :     0.015139
 88 H s       :     0.910814  s :     0.910814
      pz      :     0.021647  p :     0.087006
      px      :     0.042909
      py      :     0.022450
 89 H s       :     0.871444  s :     0.871444
      pz      :     0.037940  p :     0.083836
      px      :     0.030479
      py      :     0.015417


                      *****************************
                      * MAYER POPULATION ANALYSIS *
                      *****************************

  NA   - Mulliken gross atomic population
  ZA   - Total nuclear charge
  QA   - Mulliken gross atomic charge
  VA   - Mayer's total valence
  BVA  - Mayer's bonded valence
  FA   - Mayer's free valence

  ATOM       NA         ZA         QA         VA         BVA        FA
  0 C      5.7889     6.0000     0.2111     3.8428     3.8428     0.0000
  1 N      7.4552     7.0000    -0.4552     3.3346     3.3346     0.0000
  2 C      6.0676     6.0000    -0.0676     3.9212     3.9212     0.0000
  3 N      7.3381     7.0000    -0.3381     3.4570     3.4570    -0.0000
  4 C      6.0486     6.0000    -0.0486     4.0415     4.0415     0.0000
  5 N      7.5653     7.0000    -0.5653     3.0945     3.0945     0.0000
  6 C      6.1100     6.0000    -0.1100     3.9767     3.9767     0.0000
  7 N      7.3404     7.0000    -0.3404     3.4338     3.4338    -0.0000
  8 C      5.7927     6.0000     0.2073     3.8437     3.8437     0.0000
  9 N      7.5622     7.0000    -0.5622     3.0776     3.0776    -0.0000
 10 C      5.8813     6.0000     0.1187     3.9087     3.9087     0.0000
 11 N      7.4385     7.0000    -0.4385     3.3780     3.3780     0.0000
 12 C      6.0792     6.0000    -0.0792     3.8906     3.8906     0.0000
 13 N      7.4304     7.0000    -0.4304     3.4235     3.4235    -0.0000
 14 C      5.7692     6.0000     0.2308     3.7866     3.7866    -0.0000
 15 N      7.4410     7.0000    -0.4410     3.3723     3.3723     0.0000
 16 C      5.7715     6.0000     0.2285     3.7780     3.7780    -0.0000
 17 C      6.1214     6.0000    -0.1214     3.9880     3.9880     0.0000
 18 C      6.1920     6.0000    -0.1920     3.7662     3.7662    -0.0000
 19 C      5.7768     6.0000     0.2232     3.8636     3.8636    -0.0000
 20 C      5.7871     6.0000     0.2129     3.8290     3.8290    -0.0000
 21 C      6.0883     6.0000    -0.0883     3.8721     3.8721    -0.0000
 22 C      6.0912     6.0000    -0.0912     3.9828     3.9828     0.0000
 23 C      6.0402     6.0000    -0.0402     3.9926     3.9926    -0.0000
 24 C      5.8057     6.0000     0.1943     3.8215     3.8215    -0.0000
 25 C      5.8854     6.0000     0.1146     3.8916     3.8916     0.0000
 26 C      6.0845     6.0000    -0.0845     3.9104     3.9104     0.0000
 27 C      5.7866     6.0000     0.2134     3.8631     3.8631    -0.0000
 28 C      6.0611     6.0000    -0.0611     3.9887     3.9887     0.0000
 29 C      6.1807     6.0000    -0.1807     3.7449     3.7449    -0.0000
 30 C      5.7546     6.0000     0.2454     3.8002     3.8002    -0.0000
 31 C      5.7716     6.0000     0.2284     3.8182     3.8182    -0.0000
 32 C      6.0621     6.0000    -0.0621     3.9227     3.9227     0.0000
 33 C      6.0623     6.0000    -0.0623     3.9730     3.9730     0.0000
 34 C      6.0511     6.0000    -0.0511     3.9844     3.9844     0.0000
 35 C      5.7738     6.0000     0.2262     3.8175     3.8175    -0.0000
 36 C      5.8912     6.0000     0.1088     3.8764     3.8764     0.0000
 37 C      6.0645     6.0000    -0.0645     3.9177     3.9177     0.0000
 38 C      5.7684     6.0000     0.2316     3.8002     3.8002     0.0000
 39 C      6.0579     6.0000    -0.0579     3.9839     3.9839     0.0000
 40 C      6.1820     6.0000    -0.1820     3.7286     3.7286    -0.0000
 41 C      5.7744     6.0000     0.2256     3.8865     3.8865    -0.0000
 42 C      5.8022     6.0000     0.1978     3.8259     3.8259    -0.0000
 43 C      6.0724     6.0000    -0.0724     3.9002     3.9002     0.0000
 44 C      6.0895     6.0000    -0.0895     3.9849     3.9849     0.0000
 45 C      6.0607     6.0000    -0.0607     3.9922     3.9922    -0.0000
 46 C      5.7890     6.0000     0.2110     3.8283     3.8283    -0.0000
 47 C      5.8846     6.0000     0.1154     3.8929     3.8929     0.0000
 48 C      6.0674     6.0000    -0.0674     3.9092     3.9092     0.0000
 49 C      5.7620     6.0000     0.2380     3.8930     3.8930    -0.0000
 50 C      6.0470     6.0000    -0.0470     3.9905     3.9905     0.0000
 51 C      6.1920     6.0000    -0.1920     3.7362     3.7362     0.0000
 52 H      0.9614     1.0000     0.0386     0.9859     0.9859    -0.0000
 53 H      1.0170     1.0000    -0.0170     0.9984     0.9984    -0.0000
 54 H      0.9484     1.0000     0.0516     1.0180     1.0180    -0.0000
 55 H      0.9623     1.0000     0.0377     0.9867     0.9867    -0.0000
 56 H      0.9502     1.0000     0.0498     0.9696     0.9696    -0.0000
 57 H      0.9518     1.0000     0.0482     0.9829     0.9829     0.0000
 58 H      0.9525     1.0000     0.0475     0.9848     0.9848     0.0000
 59 H      0.9995     1.0000     0.0005     1.0021     1.0021     0.0000
 60 H      0.9523     1.0000     0.0477     1.0158     1.0158     0.0000
 61 H      0.8288     1.0000     0.1712     1.0421     1.0421    -0.0000
 62 H      0.8248     1.0000     0.1752     1.0436     1.0436    -0.0000
 63 H      0.9449     1.0000     0.0551     0.9853     0.9853    -0.0000
 64 H      1.0108     1.0000    -0.0108     0.9954     0.9954    -0.0000
 65 H      0.9528     1.0000     0.0472     1.0096     1.0096     0.0000
 66 H      0.9443     1.0000     0.0557     0.9855     0.9855    -0.0000
 67 H      0.9378     1.0000     0.0622     0.9719     0.9719    -0.0000
 68 H      0.9428     1.0000     0.0572     0.9868     0.9868    -0.0000
 69 H      0.9436     1.0000     0.0564     0.9828     0.9828    -0.0000
 70 H      1.0297     1.0000    -0.0297     0.9937     0.9937     0.0000
 71 H      0.9553     1.0000     0.0447     1.0060     1.0060    -0.0000
 72 H      0.9300     1.0000     0.0700     0.9837     0.9837    -0.0000
 73 H      1.0084     1.0000    -0.0084     1.0008     1.0008     0.0000
 74 H      0.9408     1.0000     0.0592     1.0100     1.0100     0.0000
 75 H      0.9306     1.0000     0.0694     0.9840     0.9840     0.0000
 76 H      0.9262     1.0000     0.0738     0.9721     0.9721     0.0000
 77 H      0.9329     1.0000     0.0671     0.9854     0.9854    -0.0000
 78 H      0.9336     1.0000     0.0664     0.9853     0.9853    -0.0000
 79 H      1.0164     1.0000    -0.0164     0.9976     0.9976    -0.0000
 80 H      0.9399     1.0000     0.0601     1.0072     1.0072    -0.0000
 81 H      0.9458     1.0000     0.0542     0.9856     0.9856     0.0000
 82 H      1.0247     1.0000    -0.0247     0.9935     0.9935     0.0000
 83 H      0.9579     1.0000     0.0421     1.0083     1.0083    -0.0000
 84 H      0.9458     1.0000     0.0542     0.9852     0.9852     0.0000
 85 H      0.9392     1.0000     0.0608     0.9716     0.9716    -0.0000
 86 H      0.9443     1.0000     0.0557     0.9839     0.9839    -0.0000
 87 H      0.9428     1.0000     0.0572     0.9856     0.9856     0.0000
 88 H      1.0149     1.0000    -0.0149     0.9966     0.9966     0.0000
 89 H      0.9538     1.0000     0.0462     1.0075     1.0075     0.0000

  Mayer bond orders larger than 0.100000
B(  0-C ,  1-N ) :   1.0951 B(  0-C , 17-C ) :   1.7037 B(  0-C , 52-H ) :   0.9664 
B(  1-N ,  8-C ) :   1.0886 B(  1-N , 10-C ) :   0.9770 B(  2-C , 12-C ) :   1.5041 
B(  2-C , 16-C ) :   1.3588 B(  2-C , 53-H ) :   0.9747 B(  3-N , 14-C ) :   1.2195 
B(  3-N , 16-C ) :   1.1878 B(  3-N , 61-H ) :   0.8990 B(  4-C ,  6-C ) :   1.2127 
B(  4-C , 17-C ) :   1.2131 B(  4-C , 18-C ) :   1.4432 B(  5-N , 19-C ) :   1.4526 
B(  5-N , 27-C ) :   1.3778 B(  6-C ,  8-C ) :   1.7097 B(  6-C , 54-H ) :   0.9416 
B(  7-N , 30-C ) :   1.1958 B(  7-N , 38-C ) :   1.1906 B(  7-N , 62-H ) :   0.8969 
B(  8-C , 55-H ) :   0.9663 B(  9-N , 41-C ) :   1.3952 B(  9-N , 49-C ) :   1.4246 
B( 10-C , 56-H ) :   0.9772 B( 10-C , 57-H ) :   0.9822 B( 10-C , 58-H ) :   0.9843 
B( 11-N , 20-C ) :   1.1301 B( 11-N , 24-C ) :   1.1076 B( 11-N , 25-C ) :   0.9603 
B( 12-C , 14-C ) :   1.3558 B( 12-C , 59-H ) :   0.9695 B( 13-N , 31-C ) :   1.1577 
B( 13-N , 35-C ) :   1.1560 B( 13-N , 36-C ) :   0.9431 B( 14-C , 18-C ) :   1.1286 
B( 15-N , 42-C ) :   1.1083 B( 15-N , 46-C ) :   1.1234 B( 15-N , 47-C ) :   0.9613 
B( 16-C , 51-C ) :   1.1713 B( 17-C , 60-H ) :   0.9500 B( 18-C , 19-C ) :   1.1318 
B( 19-C , 21-C ) :   1.2476 B( 20-C , 28-C ) :   1.6287 B( 20-C , 63-H ) :   0.9703 
B( 21-C , 26-C ) :   1.5995 B( 21-C , 64-H ) :   0.9606 B( 22-C , 23-C ) :   1.2886 
B( 22-C , 28-C ) :   1.2642 B( 22-C , 29-C ) :   1.2252 B( 23-C , 24-C ) :   1.6205 
B( 23-C , 65-H ) :   0.9703 B( 24-C , 66-H ) :   0.9695 B( 25-C , 67-H ) :   0.9760 
B( 25-C , 68-H ) :   0.9828 B( 25-C , 69-H ) :   0.9823 B( 26-C , 27-C ) :   1.2469 
B( 26-C , 70-H ) :   0.9701 B( 27-C , 29-C ) :   1.2106 B( 28-C , 71-H ) :   0.9719 
B( 29-C , 30-C ) :   1.2420 B( 30-C , 32-C ) :   1.2828 B( 31-C , 39-C ) :   1.5919 
B( 31-C , 72-H ) :   0.9683 B( 32-C , 37-C ) :   1.5759 B( 32-C , 73-H ) :   0.9786 
B( 33-C , 34-C ) :   1.3041 B( 33-C , 39-C ) :   1.3007 B( 33-C , 40-C ) :   1.1828 
B( 34-C , 35-C ) :   1.5893 B( 34-C , 74-H ) :   0.9697 B( 35-C , 75-H ) :   0.9683 
B( 36-C , 76-H ) :   0.9767 B( 36-C , 77-H ) :   0.9816 B( 36-C , 78-H ) :   0.9824 
B( 37-C , 38-C ) :   1.2881 B( 37-C , 79-H ) :   0.9766 B( 38-C , 40-C ) :   1.2310 
B( 39-C , 80-H ) :   0.9706 B( 40-C , 41-C ) :   1.2482 B( 41-C , 43-C ) :   1.1866 
B( 42-C , 50-C ) :   1.6331 B( 42-C , 81-H ) :   0.9697 B( 43-C , 48-C ) :   1.6660 
B( 43-C , 82-H ) :   0.9723 B( 44-C , 45-C ) :   1.2642 B( 44-C , 50-C ) :   1.2720 
B( 44-C , 51-C ) :   1.2598 B( 45-C , 46-C ) :   1.6345 B( 45-C , 83-H ) :   0.9718 
B( 46-C , 84-H ) :   0.9700 B( 47-C , 85-H ) :   0.9762 B( 47-C , 86-H ) :   0.9829 
B( 47-C , 87-H ) :   0.9825 B( 48-C , 49-C ) :   1.1900 B( 48-C , 88-H ) :   0.9748 
B( 49-C , 51-C ) :   1.2418 B( 50-C , 89-H ) :   0.9709 

-------
TIMINGS
-------

Total SCF time: 0 days 0 hours 23 min 24 sec 

Total time                  ....    1404.178 sec
Sum of individual times     ....    1400.400 sec  ( 99.7%)

Fock matrix formation       ....    1379.716 sec  ( 98.3%)
Diagonalization             ....       6.622 sec  (  0.5%)
Density matrix formation    ....       0.413 sec  (  0.0%)
Population analysis         ....       0.438 sec  (  0.0%)
Initial guess               ....       1.926 sec  (  0.1%)
Orbital Transformation      ....       0.000 sec  (  0.0%)
Orbital Orthonormalization  ....       0.000 sec  (  0.0%)
DIIS solution               ....       2.914 sec  (  0.2%)
SOSCF solution              ....       7.361 sec  (  0.5%)

Maximum memory used throughout the entire SCF-calculation: 302.6 MB


           ************************************************************
           *        Program running with 16 parallel MPI-processes    *
           *              working on a common directory               *
           ************************************************************

------------------------------------------------------------------------------
                                ORCA  MP2 
------------------------------------------------------------------------------

Freezing NCore=104 chemical core electrons

----------
MP2 ENERGY (disk based algorithm)
----------

Dimension of the basis                    ...  918
Memory devoted to MP2                     ... 2000 MB   
Data format for buffers                   ... DOUBLE
Compression type for matrix containers    ... UNCOMPRESSED

-------------------------------
PARTIAL EXCHANGE TRANSFORMATION
-------------------------------

Transformation type                        ... one-operator
Generation of integrals (i,mue|j,nue)      ... ON
Generation of integrals (mue,kappa|nue,tau)... OFF
Generation of integrals (i,mue|a,nue)      ... OFF
Dimension of the basis                     ...  918
Number of internal MOs                     ...  127 (  52- 178)
Pair cutoff                                ... 2.500e-12 Eh
Number of AO pairs in the trafo            ... 421821
Total Number of distinct AO pairs          ... 421821
Memory devoted for trafo                   ... 2000.0 MB 
Max. Number of MO pairs treated together   ...  311      
Number Format for Storage                  ... Double (8 Byte)
Integral package used                      ... LIBINT

Starting integral evaluation:
    ... done with AO integral generation
Closing buffer AOK     (38.32 GB; CompressionRatio= 1.32)
Collecting buffer AOK 
Number of MO pairs included in the trafo   ... 8128
------------------------
SORTING OF (i,mue|j,nue)
------------------------

IBATCH = 1 of  2
IBATCH = 2 of  2
Closing buffer KAO     (51.03 GB; CompressionRatio= 1.00)
Collecting buffer KAO 
N(AO-Batches) Done                         ...  85935049 
N(AO-Batches) Skipped                      ...  82431924 
N(IJ)-pairs Skipped                        ...         0 
TOTAL TIME for half transformation         ...  5538.666 sec
AO-integral generation                     ...   174.731 sec
Half transformation                        ...   311.147 sec
K-integral sorting                         ...  4877.277 sec
Process 10:   Internal MO 132
Process  1:   Internal MO  60
Process  7:   Internal MO 108

Finished integral transformation - now doing MP2 part

OPERATOR COMBINATION   0   0: ij=( 52..178, 52..178)
Process  4:   Internal MO  84
Process 13:   Internal MO 156
Process  2:   Internal MO  69
Process  1:   Internal MO  63
Process  5:   Internal MO  93
Process  3:   Internal MO  78
Process  1:   Internal MO  66
Process  2:   Internal MO  72
Process 11:   Internal MO 141
Process  0:   Internal MO  54
Process  6:   Internal MO 102
Process  8:   Internal MO 117
Process 14:   Internal MO 165
Process  3:   Internal MO  81
Process  0:   Internal MO  57
Process  2:   Internal MO  75
Process  9:   Internal MO 126
Process  7:   Internal MO 111
Process  5:   Internal MO  96
Process 12:   Internal MO 150
Process 15:   Internal MO 174
Process  6:   Internal MO 105
Process 10:   Internal MO 135
Process  8:   Internal MO 120
Process  5:   Internal MO  99
Process 13:   Internal MO 159
Process  7:   Internal MO 114
Process  9:   Internal MO 129
Process 11:   Internal MO 144
Process 12:   Internal MO 153
Process 14:   Internal MO 168
Process 10:   Internal MO 138
Process  8:   Internal MO 123
Process 15:   Internal MO 177
Process 13:   Internal MO 162
Process 11:   Internal MO 147
Process  4:   Internal MO  87
Process 14:   Internal MO 171
Process  4:   Internal MO  90
-----------------------------------------------
 MP2 CORRELATION ENERGY   :     -7.284353801 Eh
-----------------------------------------------


-------
TIMINGS
-------
Total time                : 5862.387 sec
Integral trafo            : 5541.019 sec ( 94.5%)
K(i,j)                    :   45.537 sec (  0.8%)
T(i,j)                    :    1.201 sec (  0.0%)

---------------------------------------
MP2 TOTAL ENERGY:    -2130.866139276 Eh
---------------------------------------

Maximum memory used throughout the entire MP2-calculation: 2275.3 MB

-------------------------   --------------------
FINAL SINGLE POINT ENERGY     -2130.866139276346
-------------------------   --------------------


                            ***************************************
                            *     ORCA property calculations      *
                            ***************************************


  WARNING: The energy has been calculated at the MP2 level but the densities
           used in the property calculations are still SCF densities
           MP2 response densities have not been calculated 
           use %mp2 Density relaxed end
           or  %mp2 Density unrelaxed end

                                    ---------------------
                                    Active property flags
                                    ---------------------
   (+) Dipole Moment


------------------------------------------------------------------------------
                       ORCA ELECTRIC PROPERTIES CALCULATION
------------------------------------------------------------------------------

Dipole Moment Calculation                       ... on
Quadrupole Moment Calculation                   ... off
Polarizability Calculation                      ... off
GBWName                                         ... /scratch/allen/tmpyp4_amber_gaff2/conf1/conf1/Conf28.orca.gbw
Electron density                                ... /scratch/allen/tmpyp4_amber_gaff2/conf1/conf1/Conf28.orca.scfp
The origin for moment calculation is the CENTER OF MASS  = (-0.000709, -0.004626  0.003199)

-------------
DIPOLE MOMENT
-------------
                                X             Y             Z
Electronic contribution:      2.59703      -3.93448      -0.11064
Nuclear contribution   :     -0.04848       0.15378       0.13017
                        -----------------------------------------
Total Dipole Moment    :      2.54855      -3.78070       0.01953
                        -----------------------------------------
Magnitude (a.u.)       :      4.55951
Magnitude (Debye)      :     11.58936



--------------------
Rotational spectrum 
--------------------
 
Rotational constants in cm-1:     0.001502     0.001477     0.000760 
Rotational constants in MHz :    45.036099    44.278137    22.796327 

 Dipole components along the rotational axes: 
x,y,z [a.u.] :     3.285510     3.161332     0.023566 
x,y,z [Debye]:     8.351103     8.035468     0.059901 

 

Timings for individual modules:

Sum of individual times         ...     7292.713 sec (= 121.545 min)
GTO integral calculation        ...        2.708 sec (=   0.045 min)   0.0 %
SCF iterations                  ...     1405.132 sec (=  23.419 min)  19.3 %
MP2 module                      ...     5884.872 sec (=  98.081 min)  80.7 %
                             ****ORCA TERMINATED NORMALLY****
TOTAL RUN TIME: 0 days 2 hours 1 minutes 36 seconds 109 msec
# of primitive gaussian functions

