
                                 *****************
                                 * O   R   C   A *
                                 *****************

                                            #,                                       
                                            ###                                      
                                            ####                                     
                                            #####                                    
                                            ######                                   
                                           ########,                                 
                                     ,,################,,,,,                         
                               ,,#################################,,                 
                          ,,##########################################,,             
                       ,#########################################, ''#####,          
                    ,#############################################,,   '####,        
                  ,##################################################,,,,####,       
                ,###########''''           ''''###############################       
              ,#####''   ,,,,##########,,,,          '''####'''          '####       
            ,##' ,,,,###########################,,,                        '##       
           ' ,,###''''                  '''############,,,                           
         ,,##''                                '''############,,,,        ,,,,,,###''
      ,#''                                            '''#######################'''  
     '                                                          ''''####''''         
             ,#######,   #######,   ,#######,      ##                                
            ,#'     '#,  ##    ##  ,#'     '#,    #''#        ######   ,####,        
            ##       ##  ##   ,#'  ##            #'  '#       #        #'  '#        
            ##       ##  #######   ##           ,######,      #####,   #    #        
            '#,     ,#'  ##    ##  '#,     ,#' ,#      #,         ##   #,  ,#        
             '#######'   ##     ##  '#######'  #'      '#     #####' # '####'        



                  #######################################################
                  #                        -***-                        #
                  #          Department of theory and spectroscopy      #
                  #    Directorship and core code : Frank Neese         #
                  #        Max Planck Institute fuer Kohlenforschung    #
                  #                Kaiser Wilhelm Platz 1               #
                  #                 D-45470 Muelheim/Ruhr               #
                  #                      Germany                        #
                  #                                                     #
                  #                  All rights reserved                #
                  #                        -***-                        #
                  #######################################################


                         Program Version 5.0.4 -  RELEASE  -


 With contributions from (in alphabetic order):
   Daniel Aravena         : Magnetic Suceptibility
   Michael Atanasov       : Ab Initio Ligand Field Theory (pilot matlab implementation)
   Alexander A. Auer      : GIAO ZORA, VPT2 properties, NMR spectrum
   Ute Becker             : Parallelization
   Giovanni Bistoni       : ED, misc. LED, open-shell LED, HFLD
   Martin Brehm           : Molecular dynamics
   Dmytro Bykov           : SCF Hessian
   Vijay G. Chilkuri      : MRCI spin determinant printing, contributions to CSF-ICE
   Dipayan Datta          : RHF DLPNO-CCSD density
   Achintya Kumar Dutta   : EOM-CC, STEOM-CC
   Dmitry Ganyushin       : Spin-Orbit,Spin-Spin,Magnetic field MRCI
   Miquel Garcia          : C-PCM and meta-GGA Hessian, CC/C-PCM, Gaussian charge scheme
   Yang Guo               : DLPNO-NEVPT2, F12-NEVPT2, CIM, IAO-localization
   Andreas Hansen         : Spin unrestricted coupled pair/coupled cluster methods
   Benjamin Helmich-Paris : MC-RPA, TRAH-SCF, COSX integrals
   Lee Huntington         : MR-EOM, pCC
   Robert Izsak           : Overlap fitted RIJCOSX, COSX-SCS-MP3, EOM
   Marcus Kettner         : VPT2
   Christian Kollmar      : KDIIS, OOCD, Brueckner-CCSD(T), CCSD density, CASPT2, CASPT2-K
   Simone Kossmann        : Meta GGA functionals, TD-DFT gradient, OOMP2, MP2 Hessian
   Martin Krupicka        : Initial AUTO-CI
   Lucas Lang             : DCDCAS
   Marvin Lechner         : AUTO-CI (C++ implementation), FIC-MRCC
   Dagmar Lenk            : GEPOL surface, SMD
   Dimitrios Liakos       : Extrapolation schemes; Compound Job, initial MDCI parallelization
   Dimitrios Manganas     : Further ROCIS development; embedding schemes
   Dimitrios Pantazis     : SARC Basis sets
   Anastasios Papadopoulos: AUTO-CI, single reference methods and gradients
   Taras Petrenko         : DFT Hessian,TD-DFT gradient, ASA, ECA, R-Raman, ABS, FL, XAS/XES, NRVS
   Peter Pinski           : DLPNO-MP2, DLPNO-MP2 Gradient
   Christoph Reimann      : Effective Core Potentials
   Marius Retegan         : Local ZFS, SOC
   Christoph Riplinger    : Optimizer, TS searches, QM/MM, DLPNO-CCSD(T), (RO)-DLPNO pert. Triples
   Tobias Risthaus        : Range-separated hybrids, TD-DFT gradient, RPA, STAB
   Michael Roemelt        : Original ROCIS implementation
   Masaaki Saitow         : Open-shell DLPNO-CCSD energy and density
   Barbara Sandhoefer     : DKH picture change effects
   Avijit Sen             : IP-ROCIS
   Kantharuban Sivalingam : CASSCF convergence, NEVPT2, FIC-MRCI
   Bernardo de Souza      : ESD, SOC TD-DFT
   Georgi Stoychev        : AutoAux, RI-MP2 NMR, DLPNO-MP2 response
   Willem Van den Heuvel  : Paramagnetic NMR
   Boris Wezisla          : Elementary symmetry handling
   Frank Wennmohs         : Technical directorship


 We gratefully acknowledge several colleagues who have allowed us to
 interface, adapt or use parts of their codes:
   Stefan Grimme, W. Hujo, H. Kruse, P. Pracht,  : VdW corrections, initial TS optimization,
                  C. Bannwarth, S. Ehlert          DFT functionals, gCP, sTDA/sTD-DF
   Ed Valeev, F. Pavosevic, A. Kumar             : LibInt (2-el integral package), F12 methods
   Garnet Chan, S. Sharma, J. Yang, R. Olivares  : DMRG
   Ulf Ekstrom                                   : XCFun DFT Library
   Mihaly Kallay                                 : mrcc  (arbitrary order and MRCC methods)
   Jiri Pittner, Ondrej Demel                    : Mk-CCSD
   Frank Weinhold                                : gennbo (NPA and NBO analysis)
   Christopher J. Cramer and Donald G. Truhlar   : smd solvation model
   Lars Goerigk                                  : TD-DFT with DH, B97 family of functionals
   V. Asgeirsson, H. Jonsson                     : NEB implementation
   FAccTs GmbH                                   : IRC, NEB, NEB-TS, DLPNO-Multilevel, CI-OPT
                                                   MM, QMMM, 2- and 3-layer-ONIOM, Crystal-QMMM,
                                                   LR-CPCM, SF, NACMEs, symmetry and pop. for TD-DFT,
                                                   nearIR, NL-DFT gradient (VV10), updates on ESD,
                                                   ML-optimized integration grids
   S Lehtola, MJT Oliveira, MAL Marques          : LibXC Library
   Liviu Ungur et al                             : ANISO software


 Your calculation uses the libint2 library for the computation of 2-el integrals
 For citations please refer to: http://libint.valeyev.net

 Your ORCA version has been built with support for libXC version: 5.1.0
 For citations please refer to: https://tddft.org/programs/libxc/

 This ORCA versions uses:
   CBLAS   interface :  Fast vector & matrix operations
   LAPACKE interface :  Fast linear algebra routines
   SCALAPACK package :  Parallel linear algebra routines
   Shared memory     :  Shared parallel matrices
   BLAS/LAPACK       :  OpenBLAS 0.3.15  USE64BITINT DYNAMIC_ARCH NO_AFFINITY Sandybridge SINGLE_THREADED
        Core in use  :  Sandybridge
   Copyright (c) 2011-2014, The OpenBLAS Project


================================================================================

----- Orbital basis set information -----
Your calculation utilizes the basis: cc-pVDZ 
       H, B-Ne : Obtained from the ccRepo (grant-hill.group.shef.ac.uk/ccrepo) Feb. 2017
                 T. H. Dunning, Jr., J. Chem. Phys. 90, 1007 (1989)
            He : Obtained from the ccRepo (grant-hill.group.shef.ac.uk/ccrepo) Feb. 2017
                 D. E. Woon, T. H. Dunning, Jr., J. Chem. Phys. 100, 2975 (1994)
  Li-Be, Na-Mg : Obtained from the ccRepo (grant-hill.group.shef.ac.uk/ccrepo) Feb. 2017
                 B. P. Prascher, D. E. Woon, K. A. Peterson, T. H. Dunning, Jr., A. K. Wilson, Theor. Chem. Acc. 128, 69 (2011)
         Al-Ar : Obtained from the ccRepo (grant-hill.group.shef.ac.uk/ccrepo) Feb. 2017
                 D. E. Woon, T. H. Dunning, Jr., J. Chem. Phys. 98, 1358 (1993)
            Ca : Obtained from the Peterson Research Group Website (tyr0.chem.wsu.edu/~kipeters) Feb. 2017
                 J. Koput, K. A. Peterson, J. Phys. Chem. 106, 9595 (2002)
         Sc-Zn : Obtained from the ccRepo (grant-hill.group.shef.ac.uk/ccrepo) Feb. 2017
                 N. B. Balabanov, K. A. Peterson, J. Chem. Phys. 123, 064107 (2005)
                 N. B. Balabanov, K. A. Peterson, J. Chem. Phys. 125, 074110 (2006)
         Ga-Kr : Obtained from the ccRepo (grant-hill.group.shef.ac.uk/ccrepo) Feb. 2017
                 A. K. Wilson, D. E. Woon, K. A. Peterson, T. H. Dunning, Jr., J. Chem. Phys. 110, 7667 (1999)

================================================================================
                                        WARNINGS
                       Please study these warnings very carefully!
================================================================================


WARNING: No MP2 level density has been requested!
         To caclulate MP2 level properties use
         %mp2 Density relaxed end
         or
         %mp2 Density unrelaxed end

WARNING: Post HF methods need fully converged wavefunctions
  ===> : Setting SCFConvForced true
         You can overwrite this default with %scf ConvForced false 


INFO   : the flag for use of the SHARK integral package has been found!

================================================================================
                                       INPUT FILE
================================================================================
NAME = /scratch/allen/tmpyp4_amber_gaff2/2.Mdgx/conf11/conf11/Conf281.orca
|  1> ! PAL2
|  2> ! mp2 cc-pvdz TightSCF  NoKeepInts
|  3> 
|  4> %scf
|  5>   MaxCore 2000
|  6> end
|  7> %mp2
|  8>   MaxCore 2000
|  9> end
| 10> * xyz 0 1
| 11>    C       -3.83800         5.92200         1.23500
| 12>    C        1.47400         4.04100         0.05700
| 13>    C       -2.80200         4.09300         0.04900
| 14>    C       -3.38400         4.59200        -1.12600
| 15>    C       -4.16500         5.73100        -1.08400
| 16>    C       -5.19500         7.61500         0.09000
| 17>    C        0.13200         4.30700         0.06100
| 18>    C       -0.56900         3.05600         0.04700
| 19>    C        1.64900         2.61800         0.02300
| 20>    C       -3.04600         4.79000         1.24200
| 21>    N       -4.38500         6.37600         0.08500
| 22>    N        0.38800         2.06700         0.02500
| 23>    N       -2.01000         0.39500        -0.07500
| 24>    N       -0.38800        -2.07400        -0.02700
| 25>    N        2.01000        -0.40100         0.06500
| 26>    C       -1.96000         2.86100         0.02400
| 27>    C       -2.62300         1.61500        -0.01800
| 28>    C       -5.57300        -4.32900         1.06600
| 29>    C       -4.07300         1.47100         0.05600
| 30>    C       -4.10600        -2.75600        -0.02600
| 31>    C       -4.99500        -2.75700        -1.11100
| 32>    C       -6.13200        -3.54200        -1.07600
| 33>    C       -7.65100        -5.11300         0.04000
| 34>    C       -4.32400         0.14100         0.03700
| 35>    C       -3.02500        -0.52000        -0.04800
| 36>    C       -4.42200        -3.56600         1.07500
| 37>    N       -6.40700        -4.31300         0.00100
| 38>    C       -2.86700        -1.92200        -0.04000
| 39>    C       -1.65000        -2.62400        -0.02700
| 40>    C        3.56800        -6.14200        -1.04000
| 41>    C       -1.47600        -4.04900        -0.03400
| 42>    C        2.80300        -4.09900        -0.00800
| 43>    C        3.65700        -4.38400         1.06900
| 44>    C        4.42700        -5.53000         1.05900
| 45>    C        5.24500        -7.58800         0.01400
| 46>    C       -0.13400        -4.31500        -0.02200
| 47>    C        0.56800        -3.06400        -0.02700
| 48>    C        2.77500        -5.01200        -1.07400
| 49>    N        4.37600        -6.39100         0.01700
| 50>    C        1.95900        -2.86900        -0.00900
| 51>    C        2.62100        -1.62200         0.00900
| 52>    C        5.54300         4.33900        -1.13000
| 53>    C        4.07000        -1.47900        -0.09400
| 54>    C        4.10400         2.75100        -0.02100
| 55>    C        5.02700         2.72900         1.03600
| 56>    C        6.16600         3.50900         0.97800
| 57>    C        7.61900         5.15300        -0.11500
| 58>    C        4.32100        -0.14800        -0.09200
| 59>    C        3.02500         0.51400         0.01500
| 60>    C        4.38700         3.58200        -1.11500
| 61>    C        2.86600         1.91600         0.01300
| 62>    N        6.41300         4.29600        -0.09500
| 63>    H       -4.06300         6.48400         2.13300
| 64>    H        2.27400         4.76600         0.08100
| 65>    H       -3.22500         4.10400        -2.08000
| 66>    H       -4.62700         6.15800        -1.96500
| 67>    H       -4.54700         8.46500        -0.13700
| 68>    H       -5.97600         7.52700        -0.66500
| 69>    H       -5.64100         7.73700         1.07700
| 70>    H       -0.33200         5.28200         0.06900
| 71>    H       -2.63600         4.44700         2.18500
| 72>    H        0.18200         1.07200         0.00500
| 73>    H       -0.18300        -1.08000        -0.02100
| 74>    H       -5.86400        -4.96200         1.89500
| 75>    H       -4.79400         2.27200         0.13900
| 76>    H       -4.80000        -2.16000        -1.99400
| 77>    H       -6.84100        -3.58200        -1.89300
| 78>    H       -8.42800        -4.53600         0.54600
| 79>    H       -7.95600        -5.33700        -0.98100
| 80>    H       -7.45600        -6.03700         0.58400
| 81>    H       -5.28700        -0.34400         0.10000
| 82>    H       -3.78000        -3.60100         1.94700
| 83>    H        3.58700        -6.86800        -1.84300
| 84>    H       -2.27600        -4.77400        -0.05000
| 85>    H        3.71400        -3.72400         1.92600
| 86>    H        5.09200        -5.79500         1.87100
| 87>    H        6.20500        -7.32900        -0.43900
| 88>    H        5.39300        -7.91700         1.04200
| 89>    H        4.75900        -8.37300        -0.56400
| 90>    H        0.32900        -5.29000        -0.00800
| 91>    H        2.14600        -4.84200        -1.94000
| 92>    H        5.80800         4.98600        -1.95600
| 93>    H        4.78800        -2.28100        -0.18500
| 94>    H        4.86000         2.11400         1.91200
| 95>    H        6.90100         3.53100         1.77200
| 96>    H        7.38300         6.10900         0.35600
| 97>    H        8.41400         4.65200         0.43500
| 98>    H        7.92100         5.31000        -1.15000
| 99>    H        5.28300         0.33600        -0.17900
|100>    H        3.72000         3.63200        -1.96700
|101> *
|102> 
|103>                          ****END OF INPUT****
================================================================================

                       ****************************
                       * Single Point Calculation *
                       ****************************

---------------------------------
CARTESIAN COORDINATES (ANGSTROEM)
---------------------------------
  C     -3.838000    5.922000    1.235000
  C      1.474000    4.041000    0.057000
  C     -2.802000    4.093000    0.049000
  C     -3.384000    4.592000   -1.126000
  C     -4.165000    5.731000   -1.084000
  C     -5.195000    7.615000    0.090000
  C      0.132000    4.307000    0.061000
  C     -0.569000    3.056000    0.047000
  C      1.649000    2.618000    0.023000
  C     -3.046000    4.790000    1.242000
  N     -4.385000    6.376000    0.085000
  N      0.388000    2.067000    0.025000
  N     -2.010000    0.395000   -0.075000
  N     -0.388000   -2.074000   -0.027000
  N      2.010000   -0.401000    0.065000
  C     -1.960000    2.861000    0.024000
  C     -2.623000    1.615000   -0.018000
  C     -5.573000   -4.329000    1.066000
  C     -4.073000    1.471000    0.056000
  C     -4.106000   -2.756000   -0.026000
  C     -4.995000   -2.757000   -1.111000
  C     -6.132000   -3.542000   -1.076000
  C     -7.651000   -5.113000    0.040000
  C     -4.324000    0.141000    0.037000
  C     -3.025000   -0.520000   -0.048000
  C     -4.422000   -3.566000    1.075000
  N     -6.407000   -4.313000    0.001000
  C     -2.867000   -1.922000   -0.040000
  C     -1.650000   -2.624000   -0.027000
  C      3.568000   -6.142000   -1.040000
  C     -1.476000   -4.049000   -0.034000
  C      2.803000   -4.099000   -0.008000
  C      3.657000   -4.384000    1.069000
  C      4.427000   -5.530000    1.059000
  C      5.245000   -7.588000    0.014000
  C     -0.134000   -4.315000   -0.022000
  C      0.568000   -3.064000   -0.027000
  C      2.775000   -5.012000   -1.074000
  N      4.376000   -6.391000    0.017000
  C      1.959000   -2.869000   -0.009000
  C      2.621000   -1.622000    0.009000
  C      5.543000    4.339000   -1.130000
  C      4.070000   -1.479000   -0.094000
  C      4.104000    2.751000   -0.021000
  C      5.027000    2.729000    1.036000
  C      6.166000    3.509000    0.978000
  C      7.619000    5.153000   -0.115000
  C      4.321000   -0.148000   -0.092000
  C      3.025000    0.514000    0.015000
  C      4.387000    3.582000   -1.115000
  C      2.866000    1.916000    0.013000
  N      6.413000    4.296000   -0.095000
  H     -4.063000    6.484000    2.133000
  H      2.274000    4.766000    0.081000
  H     -3.225000    4.104000   -2.080000
  H     -4.627000    6.158000   -1.965000
  H     -4.547000    8.465000   -0.137000
  H     -5.976000    7.527000   -0.665000
  H     -5.641000    7.737000    1.077000
  H     -0.332000    5.282000    0.069000
  H     -2.636000    4.447000    2.185000
  H      0.182000    1.072000    0.005000
  H     -0.183000   -1.080000   -0.021000
  H     -5.864000   -4.962000    1.895000
  H     -4.794000    2.272000    0.139000
  H     -4.800000   -2.160000   -1.994000
  H     -6.841000   -3.582000   -1.893000
  H     -8.428000   -4.536000    0.546000
  H     -7.956000   -5.337000   -0.981000
  H     -7.456000   -6.037000    0.584000
  H     -5.287000   -0.344000    0.100000
  H     -3.780000   -3.601000    1.947000
  H      3.587000   -6.868000   -1.843000
  H     -2.276000   -4.774000   -0.050000
  H      3.714000   -3.724000    1.926000
  H      5.092000   -5.795000    1.871000
  H      6.205000   -7.329000   -0.439000
  H      5.393000   -7.917000    1.042000
  H      4.759000   -8.373000   -0.564000
  H      0.329000   -5.290000   -0.008000
  H      2.146000   -4.842000   -1.940000
  H      5.808000    4.986000   -1.956000
  H      4.788000   -2.281000   -0.185000
  H      4.860000    2.114000    1.912000
  H      6.901000    3.531000    1.772000
  H      7.383000    6.109000    0.356000
  H      8.414000    4.652000    0.435000
  H      7.921000    5.310000   -1.150000
  H      5.283000    0.336000   -0.179000
  H      3.720000    3.632000   -1.967000

----------------------------
CARTESIAN COORDINATES (A.U.)
----------------------------
  NO LB      ZA    FRAG     MASS         X           Y           Z
   0 C     6.0000    0    12.011   -7.252769   11.190958    2.333812
   1 C     6.0000    0    12.011    2.785456    7.636383    0.107714
   2 C     6.0000    0    12.011   -5.295013    7.734649    0.092597
   3 C     6.0000    0    12.011   -6.394833    8.677622   -2.127832
   4 C     6.0000    0    12.011   -7.870709   10.830020   -2.048463
   5 C     6.0000    0    12.011   -9.817127   14.390265    0.170075
   6 C     6.0000    0    12.011    0.249444    8.139050    0.115273
   7 C     6.0000    0    12.011   -1.075254    5.775003    0.088817
   8 C     6.0000    0    12.011    3.116158    4.947303    0.043464
   9 C     6.0000    0    12.011   -5.756106    9.051788    2.347040
  10 N     7.0000    0    14.007   -8.286449   12.048894    0.160627
  11 N     7.0000    0    14.007    0.733214    3.906064    0.047243
  12 N     7.0000    0    14.007   -3.798350    0.746442   -0.141729
  13 N     7.0000    0    14.007   -0.733214   -3.919292   -0.051023
  14 N     7.0000    0    14.007    3.798350   -0.757780    0.122832
  15 C     6.0000    0    12.011   -3.703863    5.406506    0.045353
  16 C     6.0000    0    12.011   -4.956752    3.051908   -0.034015
  17 C     6.0000    0    12.011  -10.531444   -8.180624    2.014448
  18 C     6.0000    0    12.011   -7.696855    2.779787    0.105825
  19 C     6.0000    0    12.011   -7.759216   -5.208085   -0.049133
  20 C     6.0000    0    12.011   -9.439182   -5.209975   -2.099486
  21 C     6.0000    0    12.011  -11.587801   -6.693410   -2.033345
  22 C     6.0000    0    12.011  -14.458295   -9.662170    0.075589
  23 C     6.0000    0    12.011   -8.171176    0.266451    0.069920
  24 C     6.0000    0    12.011   -5.716422   -0.982658   -0.090707
  25 C     6.0000    0    12.011   -8.356369   -6.738763    2.031456
  26 N     7.0000    0    14.007  -12.107475   -8.150389    0.001890
  27 C     6.0000    0    12.011   -5.417845   -3.632054   -0.075589
  28 C     6.0000    0    12.011   -3.118048   -4.958641   -0.051023
  29 C     6.0000    0    12.011    6.742543  -11.606698   -1.965315
  30 C     6.0000    0    12.011   -2.789236   -7.651501   -0.064251
  31 C     6.0000    0    12.011    5.296902   -7.745987   -0.015118
  32 C     6.0000    0    12.011    6.910728   -8.284559    2.020117
  33 C     6.0000    0    12.011    8.365818  -10.450186    2.001220
  34 C     6.0000    0    12.011    9.911614  -14.339242    0.026456
  35 C     6.0000    0    12.011   -0.253223   -8.154168   -0.041574
  36 C     6.0000    0    12.011    1.073364   -5.790121   -0.051023
  37 C     6.0000    0    12.011    5.243990   -9.471307   -2.029566
  38 N     7.0000    0    14.007    8.269442  -12.077240    0.032125
  39 C     6.0000    0    12.011    3.701973   -5.421624   -0.017008
  40 C     6.0000    0    12.011    4.952972   -3.065136    0.017008
  41 C     6.0000    0    12.011   10.474752    8.199522   -2.135391
  42 C     6.0000    0    12.011    7.691185   -2.794905   -0.177634
  43 C     6.0000    0    12.011    7.755436    5.198637   -0.039684
  44 C     6.0000    0    12.011    9.499653    5.157063    1.957756
  45 C     6.0000    0    12.011   11.652051    6.631049    1.848152
  46 C     6.0000    0    12.011   14.397823    9.737759   -0.217319
  47 C     6.0000    0    12.011    8.165507   -0.279679   -0.173855
  48 C     6.0000    0    12.011    5.716422    0.971319    0.028346
  49 C     6.0000    0    12.011    8.290229    6.768999   -2.107045
  50 C     6.0000    0    12.011    5.415955    3.620715    0.024566
  51 N     7.0000    0    14.007   12.118814    8.118263   -0.179524
  52 H     1.0000    0     1.008   -7.677957   12.252984    4.030786
  53 H     1.0000    0     1.008    4.297237    9.006435    0.153068
  54 H     1.0000    0     1.008   -6.094367    7.755436   -3.930630
  55 H     1.0000    0     1.008   -8.743763   11.636934   -3.713312
  56 H     1.0000    0     1.008   -8.592585   15.996532   -0.258892
  57 H     1.0000    0     1.008  -11.293003   14.223969   -1.256668
  58 H     1.0000    0     1.008  -10.659945   14.620811    2.035235
  59 H     1.0000    0     1.008   -0.627389    9.981533    0.130391
  60 H     1.0000    0     1.008   -4.981318    8.403612    4.129052
  61 H     1.0000    0     1.008    0.343930    2.025786    0.009449
  62 H     1.0000    0     1.008   -0.345820   -2.040904   -0.039684
  63 H     1.0000    0     1.008  -11.081354   -9.376821    3.581031
  64 H     1.0000    0     1.008   -9.059347    4.293458    0.262672
  65 H     1.0000    0     1.008   -9.070685   -4.081808   -3.768114
  66 H     1.0000    0     1.008  -12.927616   -6.768999   -3.577252
  67 H     1.0000    0     1.008  -15.926612   -8.571798    1.031790
  68 H     1.0000    0     1.008  -15.034661  -10.085468   -1.853821
  69 H     1.0000    0     1.008  -14.089798  -11.408277    1.103600
  70 H     1.0000    0     1.008   -9.990982   -0.650066    0.188973
  71 H     1.0000    0     1.008   -7.143165   -6.804904    3.679297
  72 H     1.0000    0     1.008    6.778448  -12.978639   -3.482765
  73 H     1.0000    0     1.008   -4.301017   -9.021553   -0.094486
  74 H     1.0000    0     1.008    7.018443   -7.037340    3.639613
  75 H     1.0000    0     1.008    9.622485  -10.950963    3.535678
  76 H     1.0000    0     1.008   11.725751  -13.849803   -0.829590
  77 H     1.0000    0     1.008   10.191293  -14.960962    1.969095
  78 H     1.0000    0     1.008    8.993207  -15.822677   -1.065806
  79 H     1.0000    0     1.008    0.621720   -9.996651   -0.015118
  80 H     1.0000    0     1.008    4.055352   -9.150054   -3.666069
  81 H     1.0000    0     1.008   10.975529    9.422175   -3.696304
  82 H     1.0000    0     1.008    9.048009   -4.310465   -0.349599
  83 H     1.0000    0     1.008    9.184069    3.994881    3.613156
  84 H     1.0000    0     1.008   13.041000    6.672623    3.348595
  85 H     1.0000    0     1.008   13.951848   11.544337    0.672743
  86 H     1.0000    0     1.008   15.900156    8.791006    0.822031
  87 H     1.0000    0     1.008   14.968521   10.034446   -2.173185
  88 H     1.0000    0     1.008    9.983423    0.634948   -0.338261
  89 H     1.0000    0     1.008    7.029781    6.863485   -3.717091

--------------------------------
INTERNAL COORDINATES (ANGSTROEM)
--------------------------------
 C      0   0   0     0.000000000000     0.00000000     0.00000000
 C      1   0   0     5.757012159098     0.00000000     0.00000000
 C      1   2   0     2.413531230376    41.90813715     0.00000000
 C      3   1   2     1.402978973470    87.93399065   243.21802554
 C      4   3   1     1.381682307913   120.14746090     0.12855965
 C      5   4   3     2.447168159322   152.51633635     1.63996729
 C      2   1   3     1.368114030335    14.25419847    22.92325787
 C      7   2   3     1.434084376876   108.05010202     0.84668783
 C      2   1   3     1.434123425651   116.20870327   324.40313183
 C      1   2   3     1.381570483182    37.28599197    47.68843850
 N      1   2   3     1.351970783708   107.99815974   290.24221366
 N      9   2   1     1.376127174356   106.58526707    12.00948385
 N     12   9   2     2.925062050624   168.53581413   171.12065651
 N     13  12   9     2.954513327098    91.55032014    11.12112580
 N     14  13  12     2.925371258490    88.43092389   359.84326247
 C      8   7   2     1.404790019896   127.24786865   181.11170171
 C     13  12   9     1.366535034311    81.72106996   188.00453233
 C     14  13  12     5.758810554272    80.56209567   166.76250791
 C     17  13  12     1.459010623676   111.08861209   183.82872609
 C     18  14  13     2.412235892279    27.27532823    36.33507194
 C     20  18  14     1.402692767501    87.95206320   148.94598259
 C     21  20  18     1.382106725257   120.14573887   359.70382047
 C     18  14  13     2.446510985056   144.15733107    82.80075377
 C     19  17  13     1.353610726908   106.29293361   359.75308708
 C     13  12   9     1.366813447402   172.21332906    33.46711076
 C     18  14  13     1.380960173213    15.08449437   309.23336894
 N     22  21  20     1.352773077792   120.73759875     0.27865223
 C     25  13  17     1.410897586645   125.60330303   182.37774668
 C     14  13  12     1.376642291955    80.24689249   177.85461986
 C     14  13  12     5.764089607215   164.51507311   312.20821879
 C     29  14  13     1.435600919476   106.58649366   178.76395472
 C     30  14  13     2.413316804732    27.10625047    82.12560436
 C     32  30  14     1.403734305344    87.90059683   149.76154742
 C     33  32  30     1.380694028378   120.14881443   359.74174632
 C     34  33  32     2.448777858443   152.49203239     2.45173620
 C     31  29  14     1.368160809262   108.16950133     0.70383075
 C     14  13  12     1.376239804685   169.26375223   353.09862627
 C     30  14  13     1.380907310430    14.68948582   353.70041132
 N     34  33  32     1.352658863128   120.85575621     0.19603406
 C     37  14  29     1.404717053360   126.01551127   180.90772073
 C     15  14  13     1.366491126938    81.61824056   183.09049352
 C      2   1   3     4.249062720177   156.61326651   135.12838902
 C     41  15  14     1.459677704153   111.05201287   175.08990246
 C     42   2   1     2.412953791518    41.78584867   164.68196869
 C     44  42   2     1.403446472082    87.95153797   233.97558675
 C     45  44  42     1.381696421071   120.11137308     0.19721020
 C     42   2   1     2.450019795838   135.97209175    74.99681780
 C     43  41  15     1.354461516618   106.26758155     0.30894352
 C     15  14  13     1.367461151185   171.87382904   332.35056460
 C     42   2   1     1.381886391857    32.59078432   213.53724789
 C      9   2   1     1.404988612053   126.98745415   193.01382138
 N     42   2   1     1.352765315936   113.57249190   102.73340699
 H      1   2   3     1.082992613087   122.06747517   150.94032501
 H      2   1   3     1.079907866440   117.36389521   156.44306659
 H      4   3   1     1.083300973876   121.09329066   179.50272859
 H      5   4   3     1.082559005320   122.79596806   179.43782514
 H      6   5   4     1.092672412025   104.45480159   100.09056545
 H      6   5   4     1.089830262013    84.67022865   209.51821388
 H      6   5   4     1.089939906600   133.85466470   322.36600788
 H      7   2  54     1.079807853278   126.66122480     1.30600390
 H     10   1   2     1.083973246902   118.71837677   101.72033969
 H     12   9   2     1.016297692608   125.29023241   180.00180175
 H     14  13  12     1.014936943854    44.97226959   359.42596618
 H     18  14  13     1.082871645210   128.03556573   234.20482432
 H     19  17  13     1.080893611786   126.41830519   178.11313280
 H     21  20  18     1.083569563987   121.05669627   180.67006309
 H     22  21  20     1.082483256222   122.73097286   180.59748951
 H     23  18  14     1.092105306278   103.92715769   234.93429879
 H     23  18  14     1.088871893291   134.19244188    12.25587044
 H     23  18  14     1.089833473518    84.85857450   125.45241208
 H     24  19  17     1.080075460327   127.28078426   178.44613241
 H     26  18  14     1.083408048706   118.76995697   244.94906660
 H     30  14  13     1.082703098730   127.99711412   279.66882698
 H     31  29  14     1.079759695488   125.22293469   180.92530585
 H     33  32  30     1.083188810873   121.01964473   180.74284758
 H     34  33  32     1.082494341787   122.70821597   180.59516895
 H     35  34  33     1.092652735319   105.73575241    97.19771933
 H     35  34  33     1.089462711615    84.05943581   206.43036958
 H     35  34  33     1.089268102902   133.08365142   318.50306270
 H     36  31  29     1.079439669458   126.61599965   178.98859863
 H     38  30  73     1.083742127999   118.77264435   359.90091293
 H     42   2   1     1.082178358682   119.31790784   319.36493744
 H     43  41  15     1.080281907652   126.36969097   182.06329380
 H     45  44  42     1.083277434455   121.10105945   179.58025624
 H     46  45  44     1.082194529648   122.72144639   179.46906377
 H     47  42   2     1.091546151109   106.65128841   315.16475048
 H     47  42   2     1.088818625851   132.46019523    94.52397119
 H     47  42   2     1.089531091801    83.63838232   206.04504406
 H     48  43  41     1.080402239909   127.23657387   181.62955349
 H     50  42   2     1.083186502870   118.77001737    94.71359229

---------------------------
INTERNAL COORDINATES (A.U.)
---------------------------
 C      0   0   0     0.000000000000     0.00000000     0.00000000
 C      1   0   0    10.879176330350     0.00000000     0.00000000
 C      1   2   0     4.560913041077    41.90813715     0.00000000
 C      3   1   2     2.651246031509    87.93399065   243.21802554
 C      4   3   1     2.611001166040   120.14746090     0.12855965
 C      5   4   3     4.624477624771   152.51633635     1.63996729
 C      2   1   3     2.585360837309    14.25419847    22.92325787
 C      7   2   3     2.710026725231   108.05010202     0.84668783
 C      2   1   3     2.710100516721   116.20870327   324.40313183
 C      1   2   3     2.610789847923    37.28599197    47.68843850
 N      1   2   3     2.554854522271   107.99815974   290.24221366
 N      9   2   1     2.600503484979   106.58526707    12.00948385
 N     12   9   2     5.527566200405   168.53581413   171.12065651
 N     13  12   9     5.583221047236    91.55032014    11.12112580
 N     14  13  12     5.528150518591    88.43092389   359.84326247
 C      8   7   2     2.654668413270   127.24786865   181.11170171
 C     13  12   9     2.582376967257    81.72106996   188.00453233
 C     14  13  12    10.882574804710    80.56209567   166.76250791
 C     17  13  12     2.757130505230   111.08861209   183.82872609
 C     18  14  13     4.558465206823    27.27532823    36.33507194
 C     20  18  14     2.650705180609    87.95206320   148.94598259
 C     21  20  18     2.611803198586   120.14573887   359.70382047
 C     18  14  13     4.623235745386   144.15733107    82.80075377
 C     19  17  13     2.557953565794   106.29293361   359.75308708
 C     13  12   9     2.582903091751   172.21332906    33.46711076
 C     18  14  13     2.609636529225    15.08449437   309.23336894
 N     22  21  20     2.556370638369   120.73759875     0.27865223
 C     25  13  17     2.666210041769   125.60330303   182.37774668
 C     14  13  12     2.601476916169    80.24689249   177.85461986
 C     14  13  12    10.892550769017   164.51507311   312.20821879
 C     29  14  13     2.712892575415   106.58649366   178.76395472
 C     30  14  13     4.560507835333    27.10625047    82.12560436
 C     32  30  14     2.652673401891    87.90059683   149.76154742
 C     33  32  30     2.609133588376   120.14881443   359.74174632
 C     34  33  32     4.627519515267   152.49203239     2.45173620
 C     31  29  14     2.585449236669   108.16950133     0.70383075
 C     14  13  12     2.600716325456   169.26375223   353.09862627
 C     30  14  13     2.609536633043    14.68948582   353.70041132
 N     34  33  32     2.556154803934   120.85575621     0.19603406
 C     37  14  29     2.654530526499   126.01551127   180.90772073
 C     15  14  13     2.582293994346    81.61824056   183.09049352
 C      2   1   3     8.029564866989   156.61326651   135.12838902
 C     41  15  14     2.758391104639   111.05201287   175.08990246
 C     42   2   1     4.559821839776    41.78584867   164.68196869
 C     44  42   2     2.652129475853    87.95153797   233.97558675
 C     45  44  42     2.611027836043   120.11137308     0.19721020
 C     42   2   1     4.629866436820   135.97209175    74.99681780
 C     43  41  15     2.559561325344   106.26758155     0.30894352
 C     15  14  13     2.584127074516   171.87382904   332.35056460
 C     42   2   1     2.611386828803    32.59078432   213.53724789
 C      9   2   1     2.655043698059   126.98745415   193.01382138
 N     42   2   1     2.556355970587   113.57249190   102.73340699
 H      1   2   3     2.046559443793   122.06747517   150.94032501
 H      2   1   3     2.040730117440   117.36389521   156.44306659
 H      4   3   1     2.047142161235   121.09329066   179.50272859
 H      5   4   3     2.045740043865   122.79596806   179.43782514
 H      6   5   4     2.064851612818   104.45480159   100.09056545
 H      6   5   4     2.059480727665    84.67022865   209.51821388
 H      6   5   4     2.059687925906   133.85466470   322.36600788
 H      7   2  54     2.040541119952   126.66122480     1.30600390
 H     10   1   2     2.048412573143   118.71837677   101.72033969
 H     12   9   2     1.920524309565   125.29023241   180.00180175
 H     14  13  12     1.917952867083    44.97226959   359.42596618
 H     18  14  13     2.046330847636   128.03556573   234.20482432
 H     19  17  13     2.042592906181   126.41830519   178.11313280
 H     21  20  18     2.047649722989   121.05669627   180.67006309
 H     22  21  20     2.045596898814   122.73097286   180.59748951
 H     23  18  14     2.063779938267   103.92715769   234.93429879
 H     23  18  14     2.057669673245   134.19244188    12.25587044
 H     23  18  14     2.059486796529    84.85857450   125.45241208
 H     24  19  17     2.041046823986   127.28078426   178.44613241
 H     26  18  14     2.047344503340   118.76995697   244.94906660
 H     30  14  13     2.046012340948   127.99711412   279.66882698
 H     31  29  14     2.040450114918   125.22293469   180.92530585
 H     33  32  30     2.046930203877   121.01964473   180.74284758
 H     34  33  32     2.045617847496   122.70821597   180.59516895
 H     35  34  33     2.064814429233   105.73575241    97.19771933
 H     35  34  33     2.058786158072    84.05943581   206.43036958
 H     35  34  33     2.058418400901   133.08365142   318.50306270
 H     36  31  29     2.039845353366   126.61599965   178.98859863
 H     38  30  73     2.047975821711   118.77264435   359.90091293
 H     42   2   1     2.045020725966   119.31790784   319.36493744
 H     43  41  15     2.041436952892   126.36969097   182.06329380
 H     45  44  42     2.047097678177   121.10105945   179.58025624
 H     46  45  44     2.045051284662   122.72144639   179.46906377
 H     47  42   2     2.062723288131   106.65128841   315.16475048
 H     47  42   2     2.057569012371   132.46019523    94.52397119
 H     47  42   2     2.058915377895    83.63838232   206.04504406
 H     48  43  41     2.041664347903   127.23657387   181.62955349
 H     50  42   2     2.046925842384   118.77001737    94.71359229

---------------------
BASIS SET INFORMATION
---------------------
There are 3 groups of distinct atoms

 Group   1 Type C   : 17s4p1d contracted to 3s2p1d pattern {881/31/1}
 Group   2 Type N   : 17s4p1d contracted to 3s2p1d pattern {881/31/1}
 Group   3 Type H   : 4s1p contracted to 2s1p pattern {31/1}

Atom   0C    basis set group =>   1
Atom   1N    basis set group =>   2
Atom   2C    basis set group =>   1
Atom   3N    basis set group =>   2
Atom   4C    basis set group =>   1
Atom   5N    basis set group =>   2
Atom   6C    basis set group =>   1
Atom   7N    basis set group =>   2
Atom   8C    basis set group =>   1
Atom   9N    basis set group =>   2
Atom  10C    basis set group =>   1
Atom  11N    basis set group =>   2
Atom  12C    basis set group =>   1
Atom  13N    basis set group =>   2
Atom  14C    basis set group =>   1
Atom  15N    basis set group =>   2
Atom  16C    basis set group =>   1
Atom  17C    basis set group =>   1
Atom  18C    basis set group =>   1
Atom  19C    basis set group =>   1
Atom  20C    basis set group =>   1
Atom  21C    basis set group =>   1
Atom  22C    basis set group =>   1
Atom  23C    basis set group =>   1
Atom  24C    basis set group =>   1
Atom  25C    basis set group =>   1
Atom  26C    basis set group =>   1
Atom  27C    basis set group =>   1
Atom  28C    basis set group =>   1
Atom  29C    basis set group =>   1
Atom  30C    basis set group =>   1
Atom  31C    basis set group =>   1
Atom  32C    basis set group =>   1
Atom  33C    basis set group =>   1
Atom  34C    basis set group =>   1
Atom  35C    basis set group =>   1
Atom  36C    basis set group =>   1
Atom  37C    basis set group =>   1
Atom  38C    basis set group =>   1
Atom  39C    basis set group =>   1
Atom  40C    basis set group =>   1
Atom  41C    basis set group =>   1
Atom  42C    basis set group =>   1
Atom  43C    basis set group =>   1
Atom  44C    basis set group =>   1
Atom  45C    basis set group =>   1
Atom  46C    basis set group =>   1
Atom  47C    basis set group =>   1
Atom  48C    basis set group =>   1
Atom  49C    basis set group =>   1
Atom  50C    basis set group =>   1
Atom  51C    basis set group =>   1
Atom  52H    basis set group =>   3
Atom  53H    basis set group =>   3
Atom  54H    basis set group =>   3
Atom  55H    basis set group =>   3
Atom  56H    basis set group =>   3
Atom  57H    basis set group =>   3
Atom  58H    basis set group =>   3
Atom  59H    basis set group =>   3
Atom  60H    basis set group =>   3
Atom  61H    basis set group =>   3
Atom  62H    basis set group =>   3
Atom  63H    basis set group =>   3
Atom  64H    basis set group =>   3
Atom  65H    basis set group =>   3
Atom  66H    basis set group =>   3
Atom  67H    basis set group =>   3
Atom  68H    basis set group =>   3
Atom  69H    basis set group =>   3
Atom  70H    basis set group =>   3
Atom  71H    basis set group =>   3
Atom  72H    basis set group =>   3
Atom  73H    basis set group =>   3
Atom  74H    basis set group =>   3
Atom  75H    basis set group =>   3
Atom  76H    basis set group =>   3
Atom  77H    basis set group =>   3
Atom  78H    basis set group =>   3
Atom  79H    basis set group =>   3
Atom  80H    basis set group =>   3
Atom  81H    basis set group =>   3
Atom  82H    basis set group =>   3
Atom  83H    basis set group =>   3
Atom  84H    basis set group =>   3
Atom  85H    basis set group =>   3
Atom  86H    basis set group =>   3
Atom  87H    basis set group =>   3
Atom  88H    basis set group =>   3
Atom  89H    basis set group =>   3

Checking for AutoStart:
The File: /scratch/chu_02/allen/tmpyp4_amber_gaff2/conf1/conf1/Conf281.orca.gbw exists
Trying to determine its content:
     ... Fine, the file contains calculation information
     ... Fine, the calculation information was read
     ... Fine, the file contains a basis set
     ... Fine, the basis set was read
     ... Fine, the file contains a geometry
     ... Fine, the geometry was read
     ... Fine, the file contains a set of orbitals
     ... Fine, the orbitals can be read
     => possible old guess file was deleted
     => GBW file was renamed to GES file
     => GES file is set as startup file
     => Guess is set to MORead
     ... now leaving AutoStart



           ************************************************************
           *        Program running with 8 parallel MPI-processes     *
           *              working on a common directory               *
           ************************************************************
------------------------------------------------------------------------------
                           ORCA GTO INTEGRAL CALCULATION
------------------------------------------------------------------------------
------------------------------------------------------------------------------
                   ___                                                        
                  /   \      - P O W E R E D   B Y -                         
                 /     \                                                     
                 |  |  |   _    _      __       _____    __    __             
                 |  |  |  | |  | |    /  \     |  _  \  |  |  /  |          
                  \  \/   | |  | |   /    \    | | | |  |  | /  /          
                 / \  \   | |__| |  /  /\  \   | |_| |  |  |/  /          
                |  |  |   |  __  | /  /__\  \  |    /   |      \           
                |  |  |   | |  | | |   __   |  |    \   |  |\   \          
                \     /   | |  | | |  |  |  |  | |\  \  |  | \   \       
                 \___/    |_|  |_| |__|  |__|  |_| \__\ |__|  \__/        
                                                                              
                      - O R C A' S   B I G   F R I E N D -                    
                                      &                                       
                       - I N T E G R A L  F E E D E R -                       
                                                                              
 v1 FN, 2020, v2 2021                                                         
------------------------------------------------------------------------------


Reading SHARK input file /scratch/chu_02/allen/tmpyp4_amber_gaff2/conf1/conf1/Conf281.orca.SHARKINP.tmp ... ok
----------------------
SHARK INTEGRAL PACKAGE
----------------------

Number of atoms                             ...     90
Number of basis functions                   ...   1230
Number of shells                            ...    738
Maximum angular momentum                    ...      2
Integral batch strategy                     ... SHARK/LIBINT Hybrid
RI-J (if used) integral strategy            ... SPLIT-RIJ (Revised 2003 algorithm where possible)
Printlevel                                  ...      1
Contraction scheme used                     ... PARTIAL GENERAL contraction
Coulomb Range Separation                    ... NOT USED
Exchange Range Separation                   ... NOT USED
Finite Nucleus Model                        ... NOT USED
Auxiliary Coulomb fitting basis             ... NOT available
Auxiliary J/K fitting basis                 ... NOT available
Auxiliary Correlation fitting basis         ... NOT available
Auxiliary 'external' fitting basis          ... NOT available
Integral threshold                          ...     2.500000e-11
Primitive cut-off                           ...     2.500000e-12
Primitive pair pre-selection threshold      ...     2.500000e-12

Calculating pre-screening integrals         ... done (  0.1 sec) Dimension = 738
Calculating pre-screening integrals (ORCA)  ... done (  0.3 sec) Dimension = 426
Organizing shell pair data                  ... done (  0.5 sec)
Shell pair information
Total number of shell pairs                 ...    272691
Shell pairs after pre-screening             ...     71595
Total number of primitive shell pairs       ...    422091
Primitive shell pairs kept                  ...     92348
          la=0 lb=0:  29416 shell pairs
          la=1 lb=0:  25953 shell pairs
          la=1 lb=1:   4686 shell pairs
          la=2 lb=0:   7890 shell pairs
          la=2 lb=1:   3119 shell pairs
          la=2 lb=2:    531 shell pairs

Calculating one electron integrals          ... done (  0.2 sec)
Calculating Nuclear repulsion               ... done (  0.0 sec) ENN=   6222.143573818884 Eh

SHARK setup successfully completed in   1.5 seconds

Maximum memory used throughout the entire GTOINT-calculation: 99.0 MB


           ************************************************************
           *        Program running with 8 parallel MPI-processes     *
           *              working on a common directory               *
           ************************************************************
-------------------------------------------------------------------------------
                                 ORCA SCF
-------------------------------------------------------------------------------

------------
SCF SETTINGS
------------
Hamiltonian:
 Ab initio Hamiltonian  Method          .... Hartree-Fock(GTOs)


General Settings:
 Integral files         IntName         .... /scratch/chu_02/allen/tmpyp4_amber_gaff2/conf1/conf1/Conf281.orca
 Hartree-Fock type      HFTyp           .... RHF
 Total Charge           Charge          ....    0
 Multiplicity           Mult            ....    1
 Number of Electrons    NEL             ....  358
 Basis Dimension        Dim             ....  918
 Nuclear Repulsion      ENuc            ....   6222.1435738189 Eh

Convergence Acceleration:
 DIIS                   CNVDIIS         .... on
   Start iteration      DIISMaxIt       ....    12
   Startup error        DIISStart       ....  0.200000
   # of expansion vecs  DIISMaxEq       ....     5
   Bias factor          DIISBfac        ....   1.050
   Max. coefficient     DIISMaxC        ....  10.000
 Trust-Rad. Augm. Hess. CNVTRAH         .... auto
   Auto Start mean grad. ratio tolernc. ....  1.125000
   Auto Start start iteration           ....     1
   Auto Start num. interpolation iter.  ....    10
   Max. Number of Micro iterations      ....    16
   Max. Number of Macro iterations      .... Maxiter - #DIIS iter
   Number of Davidson start vectors     ....     2
   Converg. threshold I  (grad. norm)   ....   1.000e-05
   Converg. threshold II (energy diff.) ....   1.000e-08
   Grad. Scal. Fac. for Micro threshold ....   0.100
   Minimum threshold for Micro iter.    ....   0.010
   NR start threshold (gradient norm)   ....   0.001
   Initial trust radius                 ....   0.400
   Minimum AH scaling param. (alpha)    ....   1.000
   Maximum AH scaling param. (alpha)    .... 1000.000
   Orbital update algorithm             .... Taylor
   White noise on init. David. guess    .... on
   Maximum white noise                  ....   0.010
   Quad. conv. algorithm                .... NR
 SOSCF                  CNVSOSCF        .... on
   Start iteration      SOSCFMaxIt      ....   150
   Startup grad/error   SOSCFStart      ....  0.003300
 Level Shifting         CNVShift        .... on
   Level shift para.    LevelShift      ....    0.2500
   Turn off err/grad.   ShiftErr        ....    0.0010
 Zerner damping         CNVZerner       .... off
 Static damping         CNVDamp         .... on
   Fraction old density DampFac         ....    0.7000
   Max. Damping (<1)    DampMax         ....    0.9800
   Min. Damping (>=0)   DampMin         ....    0.0000
   Turn off err/grad.   DampErr         ....    0.1000
 Fernandez-Rico         CNVRico         .... off

SCF Procedure:
 Maximum # iterations   MaxIter         ....   125
 SCF integral mode      SCFMode         .... Direct
   Integral package                     .... SHARK and LIBINT hybrid scheme
 Reset frequency        DirectResetFreq ....    20
 Integral Threshold     Thresh          ....  2.500e-11 Eh
 Primitive CutOff       TCut            ....  2.500e-12 Eh

Convergence Tolerance:
 Convergence Check Mode ConvCheckMode   .... Total+1el-Energy
 Convergence forced     ConvForced      .... 1
 Energy Change          TolE            ....  1.000e-08 Eh
 1-El. energy change                    ....  1.000e-05 Eh
 Orbital Gradient       TolG            ....  1.000e-05
 Orbital Rotation angle TolX            ....  1.000e-05
 DIIS Error             TolErr          ....  5.000e-07


Diagonalization of the overlap matrix:
Smallest eigenvalue                        ... 2.263e-04
Time for diagonalization                   ...    0.197 sec
Threshold for overlap eigenvalues          ... 1.000e-08
Number of eigenvalues below threshold      ... 0
Time for construction of square roots      ...    0.114 sec
Total time needed                          ...    0.315 sec

---------------------
INITIAL GUESS: MOREAD
---------------------
Guess MOs are being read from file: /scratch/chu_02/allen/tmpyp4_amber_gaff2/conf1/conf1/Conf281.orca.ges
Input Geometry matches current geometry (good)
Input basis set matches current basis set (good)
MOs were renormalized
MOs were reorthogonalized (Cholesky)
                      ------------------
                      INITIAL GUESS DONE (   0.5 sec)
                      ------------------
--------------
SCF ITERATIONS
--------------
ITER       Energy         Delta-E        Max-DP      RMS-DP      [F,P]     Damp
               ***  Starting incremental Fock matrix formation  ***
  0  -2121.6462337752   0.000000000000 0.06930639  0.00121157  0.2347971 0.7000
  1  -2122.3152922114  -0.669058436182 0.05267149  0.00098180  0.1452193 0.7000
                               ***Turning on DIIS***
  2  -2122.7313730176  -0.416080806133 0.11709969  0.00222034  0.0806232 0.0000
  3  -2117.7179205379   5.013452479629 0.03372167  0.00068664  0.0443751 0.0000
  4  -2123.4039816588  -5.686061120832 0.00908383  0.00023024  0.0072241 0.0000
  5  -2123.5811085793  -0.177126920531 0.00524838  0.00013790  0.0051011 0.0000
  6  -2123.5620671778   0.019041401451 0.00411377  0.00009294  0.0022970 0.0000
  7  -2123.6672293919  -0.105162214084 0.00363138  0.00007699  0.0017905 0.0000
  8  -2123.6948335169  -0.027604125009 0.00346716  0.00007709  0.0016772 0.0000
  9  -2123.6543279522   0.040505564741 0.00281538  0.00005579  0.0013395 0.0000
 10  -2123.6765687844  -0.022240832221 0.00278550  0.00005311  0.0010175 0.0000
                      *** Initiating the SOSCF procedure ***
                           *** Shutting down DIIS ***
                      *** Re-Reading the Fockian *** 
                      *** Removing any level shift *** 
ITER      Energy       Delta-E        Grad      Rot      Max-DP    RMS-DP
 11  -2123.67098810   0.0055806824  0.003060  0.003060  0.007184  0.000116
               *** Restarting incremental Fock matrix formation ***
 12  -2123.61203127   0.0589568368  0.001008  0.008926  0.001819  0.000047
 13  -2123.61218210  -0.0001508313  0.001172  0.019863  0.005395  0.000087
 14  -2123.61244428  -0.0002621832  0.000804  0.035601  0.010271  0.000160
 15  -2123.61264407  -0.0001997895  0.000703  0.009328  0.002130  0.000033
 16  -2123.61268333  -0.0000392643  0.000471  0.007134  0.001627  0.000032
 17  -2123.61272496  -0.0000416256  0.000256  0.016441  0.002974  0.000060
 18  -2123.61275762  -0.0000326567  0.000189  0.003658  0.000802  0.000014
 19  -2123.61276724  -0.0000096266  0.000207  0.004997  0.000930  0.000016
 20  -2123.61277421  -0.0000069664  0.000143  0.004682  0.000875  0.000015
 21  -2123.61277782  -0.0000036122  0.000082  0.003018  0.000419  0.000009
 22  -2123.61277984  -0.0000020216  0.000073  0.004094  0.000652  0.000013
 23  -2123.61278177  -0.0000019224  0.000049  0.001310  0.000302  0.000006
 24  -2123.61278234  -0.0000005753  0.000034  0.000928  0.000259  0.000004
 25  -2123.61278268  -0.0000003381  0.000029  0.000714  0.000183  0.000003
 26  -2123.61278286  -0.0000001852  0.000027  0.000757  0.000172  0.000003
 27  -2123.61278301  -0.0000001422  0.000017  0.000749  0.000167  0.000003
 28  -2123.61278311  -0.0000001041  0.000012  0.000527  0.000120  0.000002
 29  -2123.61278317  -0.0000000564  0.000007  0.000219  0.000040  0.000001
 30  -2123.61278318  -0.0000000185  0.000005  0.000055  0.000015  0.000000
 31  -2123.61278320  -0.0000000108  0.000005  0.000052  0.000018  0.000000
               *** Restarting incremental Fock matrix formation ***
 32  -2123.61278319   0.0000000043  0.000003  0.000059  0.000019  0.000000
                  ***Gradient check signals convergence***
              ***Rediagonalizing the Fockian in SOSCF/NRSCF***

               *****************************************************
               *                     SUCCESS                       *
               *           SCF CONVERGED AFTER  33 CYCLES          *
               *****************************************************


----------------
TOTAL SCF ENERGY
----------------

Total Energy       :        -2123.61278318 Eh          -57786.44164 eV

Components:
Nuclear Repulsion  :         6222.14357382 Eh          169313.13436 eV
Electronic Energy  :        -8345.75635700 Eh         -227099.57599 eV
One Electron Energy:       -15285.76443892 Eh         -415946.79671 eV
Two Electron Energy:         6940.00808193 Eh          188847.22072 eV

Virial components:
Potential Energy   :        -4245.59303198 Eh         -115528.45975 eV
Kinetic Energy     :         2121.98024880 Eh           57742.01812 eV
Virial Ratio       :            2.00076934


---------------
SCF CONVERGENCE
---------------

  Last Energy change         ...    1.4717e-08  Tolerance :   1.0000e-08
  Last MAX-Density change    ...    9.4680e-06  Tolerance :   1.0000e-07
  Last RMS-Density change    ...    1.6415e-07  Tolerance :   5.0000e-09
  Last Orbital Gradient      ...    1.6407e-06  Tolerance :   1.0000e-05
  Last Orbital Rotation      ...    3.4309e-05  Tolerance :   1.0000e-05

             **** THE GBW FILE WAS UPDATED (/scratch/chu_02/allen/tmpyp4_amber_gaff2/conf1/conf1/Conf281.orca.gbw) ****
             **** DENSITY /scratch/chu_02/allen/tmpyp4_amber_gaff2/conf1/conf1/Conf281.orca.scfp WAS UPDATED ****
             **** ENERGY FILE WAS UPDATED (/scratch/chu_02/allen/tmpyp4_amber_gaff2/conf1/conf1/Conf281.orca.en.tmp) ****
             **** THE GBW FILE WAS UPDATED (/scratch/chu_02/allen/tmpyp4_amber_gaff2/conf1/conf1/Conf281.orca.gbw) ****
             **** DENSITY /scratch/chu_02/allen/tmpyp4_amber_gaff2/conf1/conf1/Conf281.orca.scfp WAS UPDATED ****
----------------
ORBITAL ENERGIES
----------------

  NO   OCC          E(Eh)            E(eV) 
   0   2.0000     -15.697172      -427.1418 
   1   2.0000     -15.632833      -425.3910 
   2   2.0000     -15.621725      -425.0887 
   3   2.0000     -15.588841      -424.1939 
   4   2.0000     -15.518924      -422.2914 
   5   2.0000     -15.507207      -421.9726 
   6   2.0000     -15.449546      -420.4035 
   7   2.0000     -15.430077      -419.8737 
   8   2.0000     -11.340085      -308.5794 
   9   2.0000     -11.339672      -308.5682 
  10   2.0000     -11.337141      -308.4993 
  11   2.0000     -11.298892      -307.4585 
  12   2.0000     -11.293209      -307.3038 
  13   2.0000     -11.293142      -307.3020 
  14   2.0000     -11.291493      -307.2571 
  15   2.0000     -11.285088      -307.0828 
  16   2.0000     -11.283020      -307.0266 
  17   2.0000     -11.275228      -306.8146 
  18   2.0000     -11.272706      -306.7459 
  19   2.0000     -11.272537      -306.7413 
  20   2.0000     -11.270966      -306.6986 
  21   2.0000     -11.253545      -306.2245 
  22   2.0000     -11.249953      -306.1268 
  23   2.0000     -11.236381      -305.7575 
  24   2.0000     -11.229725      -305.5763 
  25   2.0000     -11.228870      -305.5531 
  26   2.0000     -11.225918      -305.4728 
  27   2.0000     -11.221042      -305.3401 
  28   2.0000     -11.220814      -305.3339 
  29   2.0000     -11.206360      -304.9405 
  30   2.0000     -11.205631      -304.9207 
  31   2.0000     -11.197473      -304.6987 
  32   2.0000     -11.196691      -304.6775 
  33   2.0000     -11.194823      -304.6266 
  34   2.0000     -11.189166      -304.4727 
  35   2.0000     -11.188173      -304.4457 
  36   2.0000     -11.187685      -304.4324 
  37   2.0000     -11.184204      -304.3377 
  38   2.0000     -11.184102      -304.3349 
  39   2.0000     -11.171637      -303.9957 
  40   2.0000     -11.166595      -303.8585 
  41   2.0000     -11.163459      -303.7732 
  42   2.0000     -11.161766      -303.7271 
  43   2.0000     -11.161471      -303.7191 
  44   2.0000     -11.157160      -303.6018 
  45   2.0000     -11.149762      -303.4005 
  46   2.0000     -11.149117      -303.3829 
  47   2.0000     -11.144916      -303.2686 
  48   2.0000     -11.144245      -303.2503 
  49   2.0000     -11.136810      -303.0480 
  50   2.0000     -11.121391      -302.6284 
  51   2.0000     -11.117109      -302.5119 
  52   2.0000      -1.373372       -37.3714 
  53   2.0000      -1.320353       -35.9286 
  54   2.0000      -1.310283       -35.6546 
  55   2.0000      -1.282422       -34.8965 
  56   2.0000      -1.221171       -33.2297 
  57   2.0000      -1.203657       -32.7532 
  58   2.0000      -1.172645       -31.9093 
  59   2.0000      -1.151809       -31.3423 
  60   2.0000      -1.141019       -31.0487 
  61   2.0000      -1.108956       -30.1762 
  62   2.0000      -1.099695       -29.9242 
  63   2.0000      -1.092887       -29.7390 
  64   2.0000      -1.075256       -29.2592 
  65   2.0000      -1.045615       -28.4526 
  66   2.0000      -1.044506       -28.4225 
  67   2.0000      -1.035026       -28.1645 
  68   2.0000      -1.013884       -27.5892 
  69   2.0000      -1.009104       -27.4591 
  70   2.0000      -1.004806       -27.3422 
  71   2.0000      -0.989954       -26.9380 
  72   2.0000      -0.984087       -26.7784 
  73   2.0000      -0.979386       -26.6505 
  74   2.0000      -0.966127       -26.2897 
  75   2.0000      -0.960585       -26.1388 
  76   2.0000      -0.951619       -25.8949 
  77   2.0000      -0.942875       -25.6569 
  78   2.0000      -0.923492       -25.1295 
  79   2.0000      -0.919290       -25.0151 
  80   2.0000      -0.916028       -24.9264 
  81   2.0000      -0.888949       -24.1895 
  82   2.0000      -0.879223       -23.9249 
  83   2.0000      -0.870905       -23.6985 
  84   2.0000      -0.862314       -23.4647 
  85   2.0000      -0.849561       -23.1177 
  86   2.0000      -0.836505       -22.7624 
  87   2.0000      -0.829311       -22.5667 
  88   2.0000      -0.821882       -22.3645 
  89   2.0000      -0.795320       -21.6418 
  90   2.0000      -0.789298       -21.4779 
  91   2.0000      -0.760441       -20.6927 
  92   2.0000      -0.733615       -19.9627 
  93   2.0000      -0.727624       -19.7997 
  94   2.0000      -0.724130       -19.7046 
  95   2.0000      -0.721108       -19.6223 
  96   2.0000      -0.716604       -19.4998 
  97   2.0000      -0.707485       -19.2517 
  98   2.0000      -0.701097       -19.0778 
  99   2.0000      -0.695763       -18.9327 
 100   2.0000      -0.694558       -18.8999 
 101   2.0000      -0.691589       -18.8191 
 102   2.0000      -0.683344       -18.5947 
 103   2.0000      -0.675503       -18.3814 
 104   2.0000      -0.672127       -18.2895 
 105   2.0000      -0.669705       -18.2236 
 106   2.0000      -0.665062       -18.0973 
 107   2.0000      -0.656158       -17.8550 
 108   2.0000      -0.654078       -17.7984 
 109   2.0000      -0.651798       -17.7363 
 110   2.0000      -0.649014       -17.6606 
 111   2.0000      -0.644378       -17.5344 
 112   2.0000      -0.641879       -17.4664 
 113   2.0000      -0.638605       -17.3773 
 114   2.0000      -0.632627       -17.2147 
 115   2.0000      -0.624435       -16.9917 
 116   2.0000      -0.622375       -16.9357 
 117   2.0000      -0.621070       -16.9002 
 118   2.0000      -0.614048       -16.7091 
 119   2.0000      -0.611660       -16.6441 
 120   2.0000      -0.609532       -16.5862 
 121   2.0000      -0.602995       -16.4083 
 122   2.0000      -0.591845       -16.1049 
 123   2.0000      -0.586408       -15.9570 
 124   2.0000      -0.580673       -15.8009 
 125   2.0000      -0.579313       -15.7639 
 126   2.0000      -0.578866       -15.7518 
 127   2.0000      -0.576117       -15.6769 
 128   2.0000      -0.572766       -15.5858 
 129   2.0000      -0.557898       -15.1812 
 130   2.0000      -0.555849       -15.1254 
 131   2.0000      -0.550845       -14.9893 
 132   2.0000      -0.543462       -14.7884 
 133   2.0000      -0.538851       -14.6629 
 134   2.0000      -0.534565       -14.5463 
 135   2.0000      -0.530729       -14.4419 
 136   2.0000      -0.518905       -14.1201 
 137   2.0000      -0.516024       -14.0417 
 138   2.0000      -0.514850       -14.0098 
 139   2.0000      -0.512701       -13.9513 
 140   2.0000      -0.509986       -13.8774 
 141   2.0000      -0.504971       -13.7410 
 142   2.0000      -0.501683       -13.6515 
 143   2.0000      -0.500634       -13.6229 
 144   2.0000      -0.495410       -13.4808 
 145   2.0000      -0.493707       -13.4344 
 146   2.0000      -0.491787       -13.3822 
 147   2.0000      -0.478248       -13.0138 
 148   2.0000      -0.477446       -12.9920 
 149   2.0000      -0.464277       -12.6336 
 150   2.0000      -0.462711       -12.5910 
 151   2.0000      -0.458664       -12.4809 
 152   2.0000      -0.450826       -12.2676 
 153   2.0000      -0.441737       -12.0203 
 154   2.0000      -0.436275       -11.8716 
 155   2.0000      -0.434600       -11.8261 
 156   2.0000      -0.422818       -11.5055 
 157   2.0000      -0.416160       -11.3243 
 158   2.0000      -0.408129       -11.1058 
 159   2.0000      -0.396256       -10.7827 
 160   2.0000      -0.382974       -10.4213 
 161   2.0000      -0.371116       -10.0986 
 162   2.0000      -0.356004        -9.6874 
 163   2.0000      -0.355618        -9.6769 
 164   2.0000      -0.347693        -9.4612 
 165   2.0000      -0.339578        -9.2404 
 166   2.0000      -0.338646        -9.2150 
 167   2.0000      -0.325437        -8.8556 
 168   2.0000      -0.315474        -8.5845 
 169   2.0000      -0.300936        -8.1889 
 170   2.0000      -0.298590        -8.1250 
 171   2.0000      -0.283942        -7.7265 
 172   2.0000      -0.279197        -7.5973 
 173   2.0000      -0.263908        -7.1813 
 174   2.0000      -0.233237        -6.3467 
 175   2.0000      -0.184141        -5.0107 
 176   2.0000      -0.174074        -4.7368 
 177   2.0000      -0.062206        -1.6927 
 178   2.0000      -0.051281        -1.3954 
 179   0.0000       0.034541         0.9399 
 180   0.0000       0.059395         1.6162 
 181   0.0000       0.086529         2.3546 
 182   0.0000       0.097650         2.6572 
 183   0.0000       0.103118         2.8060 
 184   0.0000       0.133963         3.6453 
 185   0.0000       0.138603         3.7716 
 186   0.0000       0.147080         4.0022 
 187   0.0000       0.163168         4.4400 
 188   0.0000       0.165322         4.4986 
 189   0.0000       0.171333         4.6622 
 190   0.0000       0.171693         4.6720 
 191   0.0000       0.173483         4.7207 
 192   0.0000       0.176648         4.8068 
 193   0.0000       0.189176         5.1477 
 194   0.0000       0.204181         5.5560 
 195   0.0000       0.209912         5.7120 
 196   0.0000       0.210124         5.7178 
 197   0.0000       0.211248         5.7483 
 198   0.0000       0.216064         5.8794 
 199   0.0000       0.227354         6.1866 
 200   0.0000       0.230018         6.2591 
 201   0.0000       0.233135         6.3439 
 202   0.0000       0.238386         6.4868 
 203   0.0000       0.240146         6.5347 
 204   0.0000       0.245560         6.6820 
 205   0.0000       0.248206         6.7540 
 206   0.0000       0.255139         6.9427 
 207   0.0000       0.257653         7.0111 
 208   0.0000       0.258322         7.0293 
 209   0.0000       0.258985         7.0473 
 210   0.0000       0.262218         7.1353 
 211   0.0000       0.264010         7.1841 
 212   0.0000       0.266857         7.2615 
 213   0.0000       0.272942         7.4271 
 214   0.0000       0.277934         7.5630 
 215   0.0000       0.279363         7.6019 
 216   0.0000       0.281291         7.6543 
 217   0.0000       0.285373         7.7654 
 218   0.0000       0.287383         7.8201 
 219   0.0000       0.288480         7.8499 
 220   0.0000       0.293359         7.9827 
 221   0.0000       0.293860         7.9963 
 222   0.0000       0.297125         8.0852 
 223   0.0000       0.297798         8.1035 
 224   0.0000       0.300679         8.1819 
 225   0.0000       0.301661         8.2086 
 226   0.0000       0.304605         8.2887 
 227   0.0000       0.305178         8.3043 
 228   0.0000       0.313440         8.5291 
 229   0.0000       0.316186         8.6039 
 230   0.0000       0.324551         8.8315 
 231   0.0000       0.325562         8.8590 
 232   0.0000       0.327061         8.8998 
 233   0.0000       0.332967         9.0605 
 234   0.0000       0.337223         9.1763 
 235   0.0000       0.353152         9.6098 
 236   0.0000       0.358924         9.7668 
 237   0.0000       0.365078         9.9343 
 238   0.0000       0.386638        10.5209 
 239   0.0000       0.395189        10.7536 
 240   0.0000       0.402464        10.9516 
 241   0.0000       0.403192        10.9714 
 242   0.0000       0.406508        11.0616 
 243   0.0000       0.419022        11.4022 
 244   0.0000       0.425881        11.5888 
 245   0.0000       0.428753        11.6670 
 246   0.0000       0.435939        11.8625 
 247   0.0000       0.438399        11.9294 
 248   0.0000       0.441196        12.0055 
 249   0.0000       0.445447        12.1212 
 250   0.0000       0.449658        12.2358 
 251   0.0000       0.455995        12.4083 
 252   0.0000       0.463630        12.6160 
 253   0.0000       0.469778        12.7833 
 254   0.0000       0.470656        12.8072 
 255   0.0000       0.471391        12.8272 
 256   0.0000       0.477178        12.9847 
 257   0.0000       0.484342        13.1796 
 258   0.0000       0.488444        13.2912 
 259   0.0000       0.493625        13.4322 
 260   0.0000       0.502711        13.6795 
 261   0.0000       0.502938        13.6856 
 262   0.0000       0.506486        13.7822 
 263   0.0000       0.507923        13.8213 
 264   0.0000       0.514125        13.9900 
 265   0.0000       0.516672        14.0594 
 266   0.0000       0.521942        14.2028 
 267   0.0000       0.525125        14.2894 
 268   0.0000       0.530174        14.4268 
 269   0.0000       0.539509        14.6808 
 270   0.0000       0.543282        14.7835 
 271   0.0000       0.546037        14.8584 
 272   0.0000       0.549118        14.9423 
 273   0.0000       0.552633        15.0379 
 274   0.0000       0.557000        15.1567 
 275   0.0000       0.560295        15.2464 
 276   0.0000       0.566802        15.4235 
 277   0.0000       0.569642        15.5008 
 278   0.0000       0.578481        15.7413 
 279   0.0000       0.583560        15.8795 
 280   0.0000       0.588710        16.0196 
 281   0.0000       0.593035        16.1373 
 282   0.0000       0.594201        16.1690 
 283   0.0000       0.598123        16.2757 
 284   0.0000       0.601158        16.3584 
 285   0.0000       0.603227        16.4146 
 286   0.0000       0.607550        16.5323 
 287   0.0000       0.612121        16.6567 
 288   0.0000       0.613706        16.6998 
 289   0.0000       0.618851        16.8398 
 290   0.0000       0.623204        16.9583 
 291   0.0000       0.628510        17.1026 
 292   0.0000       0.629594        17.1321 
 293   0.0000       0.633144        17.2287 
 294   0.0000       0.644839        17.5470 
 295   0.0000       0.647936        17.6312 
 296   0.0000       0.656674        17.8690 
 297   0.0000       0.658632        17.9223 
 298   0.0000       0.661492        18.0001 
 299   0.0000       0.665321        18.1043 
 300   0.0000       0.667256        18.1570 
 301   0.0000       0.671682        18.2774 
 302   0.0000       0.673945        18.3390 
 303   0.0000       0.675747        18.3880 
 304   0.0000       0.677942        18.4477 
 305   0.0000       0.680544        18.5185 
 306   0.0000       0.683533        18.5999 
 307   0.0000       0.689298        18.7568 
 308   0.0000       0.689874        18.7724 
 309   0.0000       0.695423        18.9234 
 310   0.0000       0.700303        19.0562 
 311   0.0000       0.703612        19.1463 
 312   0.0000       0.705611        19.2007 
 313   0.0000       0.708777        19.2868 
 314   0.0000       0.712923        19.3996 
 315   0.0000       0.713897        19.4261 
 316   0.0000       0.715459        19.4686 
 317   0.0000       0.717545        19.5254 
 318   0.0000       0.721118        19.6226 
 319   0.0000       0.723223        19.6799 
 320   0.0000       0.724523        19.7153 
 321   0.0000       0.728398        19.8207 
 322   0.0000       0.730671        19.8826 
 323   0.0000       0.733433        19.9577 
 324   0.0000       0.739933        20.1346 
 325   0.0000       0.741701        20.1827 
 326   0.0000       0.744596        20.2615 
 327   0.0000       0.746319        20.3084 
 328   0.0000       0.750728        20.4284 
 329   0.0000       0.754218        20.5233 
 330   0.0000       0.755826        20.5671 
 331   0.0000       0.759314        20.6620 
 332   0.0000       0.760979        20.7073 
 333   0.0000       0.762276        20.7426 
 334   0.0000       0.765143        20.8206 
 335   0.0000       0.766972        20.8704 
 336   0.0000       0.777045        21.1445 
 337   0.0000       0.778140        21.1743 
 338   0.0000       0.783137        21.3102 
 339   0.0000       0.785632        21.3781 
 340   0.0000       0.789063        21.4715 
 341   0.0000       0.793073        21.5806 
 342   0.0000       0.794029        21.6066 
 343   0.0000       0.797963        21.7137 
 344   0.0000       0.799623        21.7588 
 345   0.0000       0.800849        21.7922 
 346   0.0000       0.805624        21.9222 
 347   0.0000       0.809167        22.0185 
 348   0.0000       0.811357        22.0781 
 349   0.0000       0.815405        22.1883 
 350   0.0000       0.816951        22.2304 
 351   0.0000       0.820480        22.3264 
 352   0.0000       0.823029        22.3958 
 353   0.0000       0.824185        22.4272 
 354   0.0000       0.828050        22.5324 
 355   0.0000       0.828462        22.5436 
 356   0.0000       0.832342        22.6492 
 357   0.0000       0.834958        22.7204 
 358   0.0000       0.838731        22.8230 
 359   0.0000       0.839508        22.8442 
 360   0.0000       0.843379        22.9495 
 361   0.0000       0.844485        22.9796 
 362   0.0000       0.847523        23.0623 
 363   0.0000       0.849577        23.1182 
 364   0.0000       0.850833        23.1523 
 365   0.0000       0.854846        23.2615 
 366   0.0000       0.857661        23.3381 
 367   0.0000       0.860408        23.4129 
 368   0.0000       0.863395        23.4942 
 369   0.0000       0.867212        23.5980 
 370   0.0000       0.867850        23.6154 
 371   0.0000       0.869088        23.6491 
 372   0.0000       0.871454        23.7135 
 373   0.0000       0.873647        23.7731 
 374   0.0000       0.876732        23.8571 
 375   0.0000       0.878149        23.8957 
 376   0.0000       0.878904        23.9162 
 377   0.0000       0.881150        23.9773 
 378   0.0000       0.889329        24.1999 
 379   0.0000       0.889738        24.2110 
 380   0.0000       0.891075        24.2474 
 381   0.0000       0.896901        24.4059 
 382   0.0000       0.898191        24.4410 
 383   0.0000       0.904558        24.6143 
 384   0.0000       0.904950        24.6249 
 385   0.0000       0.906233        24.6599 
 386   0.0000       0.908243        24.7145 
 387   0.0000       0.914776        24.8923 
 388   0.0000       0.915296        24.9065 
 389   0.0000       0.917893        24.9771 
 390   0.0000       0.919693        25.0261 
 391   0.0000       0.924687        25.1620 
 392   0.0000       0.925510        25.1844 
 393   0.0000       0.928677        25.2706 
 394   0.0000       0.932389        25.3716 
 395   0.0000       0.933105        25.3911 
 396   0.0000       0.934693        25.4343 
 397   0.0000       0.936197        25.4752 
 398   0.0000       0.940569        25.5942 
 399   0.0000       0.941253        25.6128 
 400   0.0000       0.946614        25.7587 
 401   0.0000       0.950939        25.8764 
 402   0.0000       0.953614        25.9492 
 403   0.0000       0.954786        25.9810 
 404   0.0000       0.958333        26.0776 
 405   0.0000       0.959161        26.1001 
 406   0.0000       0.962544        26.1922 
 407   0.0000       0.963767        26.2254 
 408   0.0000       0.964922        26.2569 
 409   0.0000       0.969965        26.3941 
 410   0.0000       0.977960        26.6117 
 411   0.0000       0.983684        26.7674 
 412   0.0000       0.986463        26.8430 
 413   0.0000       0.991982        26.9932 
 414   0.0000       0.995494        27.0888 
 415   0.0000       0.996895        27.1269 
 416   0.0000       1.003617        27.3098 
 417   0.0000       1.007021        27.4024 
 418   0.0000       1.009178        27.4611 
 419   0.0000       1.014463        27.6050 
 420   0.0000       1.020503        27.7693 
 421   0.0000       1.026264        27.9261 
 422   0.0000       1.034859        28.1599 
 423   0.0000       1.036241        28.1976 
 424   0.0000       1.041330        28.3360 
 425   0.0000       1.046631        28.4803 
 426   0.0000       1.054363        28.6907 
 427   0.0000       1.063414        28.9370 
 428   0.0000       1.069694        29.1079 
 429   0.0000       1.072600        29.1869 
 430   0.0000       1.079070        29.3630 
 431   0.0000       1.082557        29.4579 
 432   0.0000       1.085914        29.5492 
 433   0.0000       1.086774        29.5726 
 434   0.0000       1.092551        29.7298 
 435   0.0000       1.099501        29.9189 
 436   0.0000       1.107896        30.1474 
 437   0.0000       1.110039        30.2057 
 438   0.0000       1.114075        30.3155 
 439   0.0000       1.115455        30.3531 
 440   0.0000       1.117664        30.4132 
 441   0.0000       1.119517        30.4636 
 442   0.0000       1.125331        30.6218 
 443   0.0000       1.128663        30.7125 
 444   0.0000       1.133628        30.8476 
 445   0.0000       1.136417        30.9235 
 446   0.0000       1.140487        31.0342 
 447   0.0000       1.142744        31.0957 
 448   0.0000       1.146981        31.2109 
 449   0.0000       1.148845        31.2617 
 450   0.0000       1.155796        31.4508 
 451   0.0000       1.157010        31.4838 
 452   0.0000       1.158076        31.5129 
 453   0.0000       1.159381        31.5484 
 454   0.0000       1.163720        31.6664 
 455   0.0000       1.169094        31.8127 
 456   0.0000       1.169615        31.8268 
 457   0.0000       1.176887        32.0247 
 458   0.0000       1.181770        32.1576 
 459   0.0000       1.189174        32.3591 
 460   0.0000       1.189941        32.3799 
 461   0.0000       1.195132        32.5212 
 462   0.0000       1.198229        32.6055 
 463   0.0000       1.203808        32.7573 
 464   0.0000       1.205111        32.7927 
 465   0.0000       1.210018        32.9263 
 466   0.0000       1.211067        32.9548 
 467   0.0000       1.215208        33.0675 
 468   0.0000       1.222597        33.2686 
 469   0.0000       1.225905        33.3586 
 470   0.0000       1.228030        33.4164 
 471   0.0000       1.232171        33.5291 
 472   0.0000       1.234485        33.5920 
 473   0.0000       1.239229        33.7211 
 474   0.0000       1.241645        33.7869 
 475   0.0000       1.242553        33.8116 
 476   0.0000       1.245361        33.8880 
 477   0.0000       1.247921        33.9577 
 478   0.0000       1.255998        34.1774 
 479   0.0000       1.256491        34.1908 
 480   0.0000       1.260071        34.2883 
 481   0.0000       1.263055        34.3695 
 482   0.0000       1.264530        34.4096 
 483   0.0000       1.268989        34.5309 
 484   0.0000       1.277150        34.7530 
 485   0.0000       1.278508        34.7900 
 486   0.0000       1.281244        34.8644 
 487   0.0000       1.285790        34.9881 
 488   0.0000       1.287901        35.0456 
 489   0.0000       1.292953        35.1830 
 490   0.0000       1.298447        35.3325 
 491   0.0000       1.299148        35.3516 
 492   0.0000       1.300730        35.3947 
 493   0.0000       1.306773        35.5591 
 494   0.0000       1.313260        35.7356 
 495   0.0000       1.314561        35.7710 
[...]
 76 H s       :     0.899595  s :     0.899595
      pz      :     0.021785  p :     0.079300
      px      :     0.042896
      py      :     0.014618
 77 H s       :     0.894937  s :     0.894937
      pz      :     0.047173  p :     0.078393
      px      :     0.015003
      py      :     0.016217
 78 H s       :     0.895349  s :     0.895349
      pz      :     0.025471  p :     0.078306
      px      :     0.020692
      py      :     0.032143
 79 H s       :     0.907296  s :     0.907296
      pz      :     0.022537  p :     0.087209
      px      :     0.021888
      py      :     0.042784
 80 H s       :     0.878887  s :     0.878887
      pz      :     0.038224  p :     0.083276
      px      :     0.029528
      py      :     0.015525
 81 H s       :     0.888408  s :     0.888408
      pz      :     0.037586  p :     0.083363
      px      :     0.016075
      py      :     0.029702
 82 H s       :     0.914395  s :     0.914395
      pz      :     0.022460  p :     0.087112
      px      :     0.030956
      py      :     0.033696
 83 H s       :     0.872176  s :     0.872176
      pz      :     0.039187  p :     0.083698
      px      :     0.015243
      py      :     0.029268
 84 H s       :     0.888461  s :     0.888461
      pz      :     0.035812  p :     0.084334
      px      :     0.031787
      py      :     0.016735
 85 H s       :     0.895675  s :     0.895675
      pz      :     0.022509  p :     0.079619
      px      :     0.014142
      py      :     0.042968
 86 H s       :     0.890685  s :     0.890685
      pz      :     0.024704  p :     0.078892
      px      :     0.032998
      py      :     0.021190
 87 H s       :     0.891078  s :     0.891078
      pz      :     0.047833  p :     0.078608
      px      :     0.015652
      py      :     0.015123
 88 H s       :     0.918043  s :     0.918043
      pz      :     0.022536  p :     0.086855
      px      :     0.042005
      py      :     0.022313
 89 H s       :     0.874716  s :     0.874716
      pz      :     0.037826  p :     0.084027
      px      :     0.030484
      py      :     0.015717


                      *****************************
                      * MAYER POPULATION ANALYSIS *
                      *****************************

  NA   - Mulliken gross atomic population
  ZA   - Total nuclear charge
  QA   - Mulliken gross atomic charge
  VA   - Mayer's total valence
  BVA  - Mayer's bonded valence
  FA   - Mayer's free valence

  ATOM       NA         ZA         QA         VA         BVA        FA
  0 C      5.7718     6.0000     0.2282     3.8074     3.8074     0.0000
  1 N      7.4185     7.0000    -0.4185     3.4565     3.4565    -0.0000
  2 C      6.0673     6.0000    -0.0673     3.9189     3.9189    -0.0000
  3 N      7.3430     7.0000    -0.3430     3.4251     3.4251    -0.0000
  4 C      6.0774     6.0000    -0.0774     3.9652     3.9652     0.0000
  5 N      7.5650     7.0000    -0.5650     3.0703     3.0703    -0.0000
  6 C      6.0299     6.0000    -0.0299     3.9682     3.9682    -0.0000
  7 N      7.3371     7.0000    -0.3371     3.4448     3.4448    -0.0000
  8 C      5.7728     6.0000     0.2272     3.8067     3.8067     0.0000
  9 N      7.5656     7.0000    -0.5656     3.0911     3.0911     0.0000
 10 C      5.8946     6.0000     0.1054     3.8662     3.8662     0.0000
 11 N      7.4391     7.0000    -0.4391     3.3764     3.3764     0.0000
 12 C      6.0589     6.0000    -0.0589     3.9106     3.9106    -0.0000
 13 N      7.4494     7.0000    -0.4494     3.3267     3.3267    -0.0000
 14 C      5.7789     6.0000     0.2211     3.8091     3.8091    -0.0000
 15 N      7.4413     7.0000    -0.4413     3.3656     3.3656    -0.0000
 16 C      5.7466     6.0000     0.2534     3.8040     3.8040    -0.0000
 17 C      6.0311     6.0000    -0.0311     3.9672     3.9672    -0.0000
 18 C      6.1761     6.0000    -0.1761     3.6872     3.6872    -0.0000
 19 C      5.7731     6.0000     0.2269     3.9003     3.9003     0.0000
 20 C      5.8083     6.0000     0.1917     3.8214     3.8214    -0.0000
 21 C      6.0665     6.0000    -0.0665     3.8931     3.8931    -0.0000
 22 C      6.0893     6.0000    -0.0893     3.9851     3.9851     0.0000
 23 C      6.0647     6.0000    -0.0647     3.9882     3.9882     0.0000
 24 C      5.7834     6.0000     0.2166     3.8291     3.8291     0.0000
 25 C      5.8854     6.0000     0.1146     3.8926     3.8926     0.0000
 26 C      6.0681     6.0000    -0.0681     3.9071     3.9071    -0.0000
 27 C      5.7562     6.0000     0.2438     3.9009     3.9009     0.0000
 28 C      6.0413     6.0000    -0.0413     3.9900     3.9900     0.0000
 29 C      6.1951     6.0000    -0.1951     3.7283     3.7283     0.0000
 30 C      5.7770     6.0000     0.2230     3.7810     3.7810    -0.0000
 31 C      5.8088     6.0000     0.1912     3.8330     3.8330    -0.0000
 32 C      6.0648     6.0000    -0.0648     3.9137     3.9137    -0.0000
 33 C      6.0998     6.0000    -0.0998     3.9852     3.9852    -0.0000
 34 C      6.0501     6.0000    -0.0501     3.9986     3.9986    -0.0000
 35 C      5.8183     6.0000     0.1817     3.8294     3.8294    -0.0000
 36 C      5.8799     6.0000     0.1201     3.9079     3.9079     0.0000
 37 C      6.0699     6.0000    -0.0699     3.9145     3.9145    -0.0000
 38 C      5.7563     6.0000     0.2437     3.7956     3.7956    -0.0000
 39 C      6.0650     6.0000    -0.0650     3.9980     3.9980    -0.0000
 40 C      6.2019     6.0000    -0.2019     3.7513     3.7513    -0.0000
 41 C      5.7837     6.0000     0.2163     3.8748     3.8748    -0.0000
 42 C      5.7889     6.0000     0.2111     3.8317     3.8317     0.0000
 43 C      6.0768     6.0000    -0.0768     3.9051     3.9051    -0.0000
 44 C      6.0909     6.0000    -0.0909     3.9838     3.9838    -0.0000
 45 C      6.0404     6.0000    -0.0404     3.9953     3.9953    -0.0000
 46 C      5.8124     6.0000     0.1876     3.8209     3.8209     0.0000
 47 C      5.8835     6.0000     0.1165     3.8964     3.8964     0.0000
 48 C      6.0817     6.0000    -0.0817     3.8980     3.8980    -0.0000
 49 C      5.7897     6.0000     0.2103     3.8665     3.8665    -0.0000
 50 C      6.0649     6.0000    -0.0649     3.9900     3.9900     0.0000
 51 C      6.1895     6.0000    -0.1895     3.7405     3.7405     0.0000
 52 H      0.9227     1.0000     0.0773     0.9828     0.9828    -0.0000
 53 H      1.0085     1.0000    -0.0085     1.0019     1.0019     0.0000
 54 H      0.9380     1.0000     0.0620     1.0060     1.0060    -0.0000
 55 H      0.9241     1.0000     0.0759     0.9834     0.9834    -0.0000
 56 H      0.9197     1.0000     0.0803     0.9727     0.9727    -0.0000
 57 H      0.9274     1.0000     0.0726     0.9843     0.9843    -0.0000
 58 H      0.9284     1.0000     0.0716     0.9870     0.9870     0.0000
 59 H      1.0272     1.0000    -0.0272     0.9965     0.9965    -0.0000
 60 H      0.9366     1.0000     0.0634     1.0048     1.0048     0.0000
 61 H      0.8236     1.0000     0.1764     1.0436     1.0436    -0.0000
 62 H      0.8313     1.0000     0.1687     1.0433     1.0433    -0.0000
 63 H      0.9463     1.0000     0.0537     0.9861     0.9861     0.0000
 64 H      1.0327     1.0000    -0.0327     0.9930     0.9930     0.0000
 65 H      0.9583     1.0000     0.0417     1.0080     1.0080     0.0000
 66 H      0.9444     1.0000     0.0556     0.9847     0.9847     0.0000
 67 H      0.9407     1.0000     0.0593     0.9717     0.9717    -0.0000
 68 H      0.9435     1.0000     0.0565     0.9864     0.9864     0.0000
 69 H      0.9408     1.0000     0.0592     0.9831     0.9831    -0.0000
 70 H      1.0156     1.0000    -0.0156     0.9975     0.9975    -0.0000
 71 H      0.9527     1.0000     0.0473     1.0075     1.0075     0.0000
 72 H      0.9599     1.0000     0.0401     0.9859     0.9859    -0.0000
 73 H      1.0188     1.0000    -0.0188     0.9965     0.9965    -0.0000
 74 H      0.9682     1.0000     0.0318     1.0093     1.0093    -0.0000
 75 H      0.9612     1.0000     0.0388     0.9866     0.9866     0.0000
 76 H      0.9517     1.0000     0.0483     0.9704     0.9704    -0.0000
 77 H      0.9523     1.0000     0.0477     0.9844     0.9844     0.0000
 78 H      0.9531     1.0000     0.0469     0.9837     0.9837     0.0000
 79 H      1.0118     1.0000    -0.0118     1.0016     1.0016    -0.0000
 80 H      0.9684     1.0000     0.0316     1.0064     1.0064    -0.0000
 81 H      0.9489     1.0000     0.0511     0.9852     0.9852     0.0000
 82 H      1.0233     1.0000    -0.0233     0.9950     0.9950    -0.0000
 83 H      0.9570     1.0000     0.0430     1.0106     1.0106     0.0000
 84 H      0.9499     1.0000     0.0501     0.9863     0.9863    -0.0000
 85 H      0.9449     1.0000     0.0551     0.9714     0.9714     0.0000
 86 H      0.9435     1.0000     0.0565     0.9841     0.9841     0.0000
 87 H      0.9451     1.0000     0.0549     0.9853     0.9853     0.0000
 88 H      1.0297     1.0000    -0.0297     0.9915     0.9915    -0.0000
 89 H      0.9597     1.0000     0.0403     1.0060     1.0060     0.0000

  Mayer bond orders larger than 0.100000
B(  0-C ,  1-N ) :   1.1839 B(  0-C , 17-C ) :   1.5436 B(  0-C , 52-H ) :   0.9673 
B(  1-N ,  8-C ) :   1.1823 B(  1-N , 10-C ) :   0.9333 B(  2-C , 12-C ) :   1.5703 
B(  2-C , 16-C ) :   1.2830 B(  2-C , 53-H ) :   0.9790 B(  3-N , 14-C ) :   1.1792 
B(  3-N , 16-C ) :   1.2019 B(  3-N , 61-H ) :   0.8960 B(  4-C ,  6-C ) :   1.3398 
B(  4-C , 17-C ) :   1.3403 B(  4-C , 18-C ) :   1.0911 B(  5-N , 19-C ) :   1.3731 
B(  5-N , 27-C ) :   1.4422 B(  6-C ,  8-C ) :   1.5431 B(  6-C , 54-H ) :   0.9709 
B(  7-N , 30-C ) :   1.1852 B(  7-N , 38-C ) :   1.2134 B(  7-N , 62-H ) :   0.9008 
B(  8-C , 55-H ) :   0.9684 B(  9-N , 41-C ) :   1.4293 B(  9-N , 49-C ) :   1.3981 
B( 10-C , 56-H ) :   0.9765 B( 10-C , 57-H ) :   0.9812 B( 10-C , 58-H ) :   0.9819 
B( 11-N , 20-C ) :   1.1033 B( 11-N , 24-C ) :   1.1344 B( 11-N , 25-C ) :   0.9608 
B( 12-C , 14-C ) :   1.2839 B( 12-C , 59-H ) :   0.9774 B( 13-N , 31-C ) :   1.0894 
B( 13-N , 35-C ) :   1.0791 B( 13-N , 36-C ) :   0.9784 B( 14-C , 18-C ) :   1.2522 
B( 15-N , 42-C ) :   1.1250 B( 15-N , 46-C ) :   1.0951 B( 15-N , 47-C ) :   0.9652 
B( 16-C , 51-C ) :   1.2381 B( 17-C , 60-H ) :   0.9710 B( 18-C , 19-C ) :   1.2939 
B( 19-C , 21-C ) :   1.1734 B( 20-C , 28-C ) :   1.6263 B( 20-C , 63-H ) :   0.9707 
B( 21-C , 26-C ) :   1.6731 B( 21-C , 64-H ) :   0.9726 B( 22-C , 23-C ) :   1.2615 
B( 22-C , 28-C ) :   1.2805 B( 22-C , 29-C ) :   1.2505 B( 23-C , 24-C ) :   1.6303 
B( 23-C , 65-H ) :   0.9720 B( 24-C , 66-H ) :   0.9690 B( 25-C , 67-H ) :   0.9763 
B( 25-C , 68-H ) :   0.9833 B( 25-C , 69-H ) :   0.9819 B( 26-C , 27-C ) :   1.1799 
B( 26-C , 70-H ) :   0.9752 B( 27-C , 29-C ) :   1.2375 B( 28-C , 71-H ) :   0.9710 
B( 29-C , 30-C ) :   1.1840 B( 30-C , 32-C ) :   1.3425 B( 31-C , 39-C ) :   1.6750 
B( 31-C , 72-H ) :   0.9707 B( 32-C , 37-C ) :   1.5169 B( 32-C , 73-H ) :   0.9772 
B( 33-C , 34-C ) :   1.2403 B( 33-C , 39-C ) :   1.2323 B( 33-C , 40-C ) :   1.3371 
B( 34-C , 35-C ) :   1.6731 B( 34-C , 74-H ) :   0.9709 B( 35-C , 75-H ) :   0.9707 
B( 36-C , 76-H ) :   0.9756 B( 36-C , 77-H ) :   0.9825 B( 36-C , 78-H ) :   0.9837 
B( 37-C , 38-C ) :   1.3380 B( 37-C , 79-H ) :   0.9790 B( 38-C , 40-C ) :   1.1848 
B( 39-C , 80-H ) :   0.9721 B( 40-C , 41-C ) :   1.1768 B( 41-C , 43-C ) :   1.2498 
B( 42-C , 50-C ) :   1.6396 B( 42-C , 81-H ) :   0.9696 B( 43-C , 48-C ) :   1.6013 
B( 43-C , 82-H ) :   0.9752 B( 44-C , 45-C ) :   1.2795 B( 44-C , 50-C ) :   1.2533 
B( 44-C , 51-C ) :   1.2493 B( 45-C , 46-C ) :   1.6321 B( 45-C , 83-H ) :   0.9704 
B( 46-C , 84-H ) :   0.9708 B( 47-C , 85-H ) :   0.9760 B( 47-C , 86-H ) :   0.9826 
B( 47-C , 87-H ) :   0.9829 B( 48-C , 49-C ) :   1.2449 B( 48-C , 88-H ) :   0.9727 
B( 49-C , 51-C ) :   1.1938 B( 50-C , 89-H ) :   0.9720 

-------
TIMINGS
-------

Total SCF time: 0 days 0 hours 49 min 52 sec 

Total time                  ....    2992.238 sec
Sum of individual times     ....    2989.255 sec  ( 99.9%)

Fock matrix formation       ....    2973.436 sec  ( 99.4%)
Diagonalization             ....       4.604 sec  (  0.2%)
Density matrix formation    ....       0.595 sec  (  0.0%)
Population analysis         ....       0.305 sec  (  0.0%)
Initial guess               ....       0.461 sec  (  0.0%)
Orbital Transformation      ....       0.000 sec  (  0.0%)
Orbital Orthonormalization  ....       0.409 sec  (  0.0%)
DIIS solution               ....       2.424 sec  (  0.1%)
SOSCF solution              ....       7.431 sec  (  0.2%)

Maximum memory used throughout the entire SCF-calculation: 302.4 MB


           ************************************************************
           *        Program running with 8 parallel MPI-processes     *
           *              working on a common directory               *
           ************************************************************

------------------------------------------------------------------------------
                                ORCA  MP2 
------------------------------------------------------------------------------

Freezing NCore=104 chemical core electrons

----------
MP2 ENERGY (disk based algorithm)
----------

Dimension of the basis                    ...  918
Memory devoted to MP2                     ... 7000 MB   
Data format for buffers                   ... DOUBLE
Compression type for matrix containers    ... UNCOMPRESSED

-------------------------------
PARTIAL EXCHANGE TRANSFORMATION
-------------------------------

Transformation type                        ... one-operator
Generation of integrals (i,mue|j,nue)      ... ON
Generation of integrals (mue,kappa|nue,tau)... OFF
Generation of integrals (i,mue|a,nue)      ... OFF
Dimension of the basis                     ...  918
Number of internal MOs                     ...  127 (  52- 178)
Pair cutoff                                ... 2.500e-12 Eh
Number of AO pairs in the trafo            ... 421821
Total Number of distinct AO pairs          ... 421821
Memory devoted for trafo                   ... 7000.0 MB 
Max. Number of MO pairs treated together   ... 1088      
Number Format for Storage                  ... Double (8 Byte)
Integral package used                      ... LIBINT

Starting integral evaluation:
    ... done with AO integral generation
Closing buffer AOK     (37.85 GB; CompressionRatio= 1.34)
Collecting buffer AOK 
Number of MO pairs included in the trafo   ... 8128
------------------------
SORTING OF (i,mue|j,nue)
------------------------

IBATCH = 1 of  1
Closing buffer KAO     (51.03 GB; CompressionRatio= 1.00)
Collecting buffer KAO 
N(AO-Batches) Done                         ... 174092380 
N(AO-Batches) Skipped                      ... 166423293 
N(IJ)-pairs Skipped                        ...         0 
TOTAL TIME for half transformation         ...  1624.153 sec
AO-integral generation                     ...   264.019 sec
Half transformation                        ...   501.146 sec
K-integral sorting                         ...   582.093 sec

Finished integral transformation - now doing MP2 part

OPERATOR COMBINATION   0   0: ij=( 52..178, 52..178)
Process 5:   Internal MO 132
Process 2:   Internal MO  84
Process 0:   Internal MO  54
Process 2:   Internal MO  87
Process 6:   Internal MO 150
Process 2:   Internal MO  90
Process 2:   Internal MO  93
Process 0:   Internal MO  57
Process 1:   Internal MO  69
Process 2:   Internal MO  96
Process 0:   Internal MO  60
Process 5:   Internal MO 135
Process 5:   Internal MO 138
Process 4:   Internal MO 117
Process 0:   Internal MO  63
Process 5:   Internal MO 141
Process 7:   Internal MO 165
Process 1:   Internal MO  72
Process 3:   Internal MO 102
Process 3:   Internal MO 105
Process 7:   Internal MO 168
Process 3:   Internal MO 108
Process 6:   Internal MO 153
Process 3:   Internal MO 111
Process 3:   Internal MO 114
Process 0:   Internal MO  66
Process 7:   Internal MO 171
Process 1:   Internal MO  75
Process 2:   Internal MO  99
Process 1:   Internal MO  78
Process 1:   Internal MO  81
Process 4:   Internal MO 120
Process 6:   Internal MO 156
Process 4:   Internal MO 123
Process 5:   Internal MO 144
Process 4:   Internal MO 126
Process 6:   Internal MO 159
Process 4:   Internal MO 129
Process 6:   Internal MO 162
Process 7:   Internal MO 174
Process 5:   Internal MO 147
Process 7:   Internal MO 177
-----------------------------------------------
 MP2 CORRELATION ENERGY   :     -7.271921679 Eh
-----------------------------------------------


-------
TIMINGS
-------
Total time                : 2115.196 sec
Integral trafo            : 1646.758 sec ( 77.9%)
K(i,j)                    :    7.586 sec (  0.4%)
T(i,j)                    :    0.090 sec (  0.0%)

---------------------------------------
MP2 TOTAL ENERGY:    -2130.884704856 Eh
---------------------------------------

Maximum memory used throughout the entire MP2-calculation: 6735.7 MB

-------------------------   --------------------
FINAL SINGLE POINT ENERGY     -2130.884704855865
-------------------------   --------------------


                            ***************************************
                            *     ORCA property calculations      *
                            ***************************************


  WARNING: The energy has been calculated at the MP2 level but the densities
           used in the property calculations are still SCF densities
           MP2 response densities have not been calculated 
           use %mp2 Density relaxed end
           or  %mp2 Density unrelaxed end

                                    ---------------------
                                    Active property flags
                                    ---------------------
   (+) Dipole Moment


------------------------------------------------------------------------------
                       ORCA ELECTRIC PROPERTIES CALCULATION
------------------------------------------------------------------------------

Dipole Moment Calculation                       ... on
Quadrupole Moment Calculation                   ... off
Polarizability Calculation                      ... off
GBWName                                         ... /scratch/chu_02/allen/tmpyp4_amber_gaff2/conf1/conf1/Conf281.orca.gbw
Electron density                                ... /scratch/chu_02/allen/tmpyp4_amber_gaff2/conf1/conf1/Conf281.orca.scfp
The origin for moment calculation is the CENTER OF MASS  = (-0.000119, -0.004137 -0.001398)

-------------
DIPOLE MOMENT
-------------
                                X             Y             Z
Electronic contribution:     -3.79588       4.01795      -0.05937
Nuclear contribution   :      0.04632       0.22049       0.08079
                        -----------------------------------------
Total Dipole Moment    :     -3.74956       4.23844       0.02142
                        -----------------------------------------
Magnitude (a.u.)       :      5.65898
Magnitude (Debye)      :     14.38398



--------------------
Rotational spectrum 
--------------------
 
Rotational constants in cm-1:     0.001498     0.001472     0.000763 
Rotational constants in MHz :    44.922151    44.126179    22.866114 

 Dipole components along the rotational axes: 
x,y,z [a.u.] :    -5.064048    -2.525647     0.023478 
x,y,z [Debye]:   -12.871788    -6.419685     0.059677 

 

Timings for individual modules:

Sum of individual times         ...     5115.083 sec (=  85.251 min)
GTO integral calculation        ...        5.167 sec (=   0.086 min)   0.1 %
SCF iterations                  ...     2993.452 sec (=  49.891 min)  58.5 %
MP2 module                      ...     2116.464 sec (=  35.274 min)  41.4 %
                             ****ORCA TERMINATED NORMALLY****
TOTAL RUN TIME: 0 days 1 hours 25 minutes 17 seconds 76 msec
# of primitive gaussian functions

