
                                 *****************
                                 * O   R   C   A *
                                 *****************

                                            #,                                       
                                            ###                                      
                                            ####                                     
                                            #####                                    
                                            ######                                   
                                           ########,                                 
                                     ,,################,,,,,                         
                               ,,#################################,,                 
                          ,,##########################################,,             
                       ,#########################################, ''#####,          
                    ,#############################################,,   '####,        
                  ,##################################################,,,,####,       
                ,###########''''           ''''###############################       
              ,#####''   ,,,,##########,,,,          '''####'''          '####       
            ,##' ,,,,###########################,,,                        '##       
           ' ,,###''''                  '''############,,,                           
         ,,##''                                '''############,,,,        ,,,,,,###''
      ,#''                                            '''#######################'''  
     '                                                          ''''####''''         
             ,#######,   #######,   ,#######,      ##                                
            ,#'     '#,  ##    ##  ,#'     '#,    #''#        ######   ,####,        
            ##       ##  ##   ,#'  ##            #'  '#       #        #'  '#        
            ##       ##  #######   ##           ,######,      #####,   #    #        
            '#,     ,#'  ##    ##  '#,     ,#' ,#      #,         ##   #,  ,#        
             '#######'   ##     ##  '#######'  #'      '#     #####' # '####'        



                  #######################################################
                  #                        -***-                        #
                  #          Department of theory and spectroscopy      #
                  #    Directorship and core code : Frank Neese         #
                  #        Max Planck Institute fuer Kohlenforschung    #
                  #                Kaiser Wilhelm Platz 1               #
                  #                 D-45470 Muelheim/Ruhr               #
                  #                      Germany                        #
                  #                                                     #
                  #                  All rights reserved                #
                  #                        -***-                        #
                  #######################################################


                         Program Version 5.0.4 -  RELEASE  -


 With contributions from (in alphabetic order):
   Daniel Aravena         : Magnetic Suceptibility
   Michael Atanasov       : Ab Initio Ligand Field Theory (pilot matlab implementation)
   Alexander A. Auer      : GIAO ZORA, VPT2 properties, NMR spectrum
   Ute Becker             : Parallelization
   Giovanni Bistoni       : ED, misc. LED, open-shell LED, HFLD
   Martin Brehm           : Molecular dynamics
   Dmytro Bykov           : SCF Hessian
   Vijay G. Chilkuri      : MRCI spin determinant printing, contributions to CSF-ICE
   Dipayan Datta          : RHF DLPNO-CCSD density
   Achintya Kumar Dutta   : EOM-CC, STEOM-CC
   Dmitry Ganyushin       : Spin-Orbit,Spin-Spin,Magnetic field MRCI
   Miquel Garcia          : C-PCM and meta-GGA Hessian, CC/C-PCM, Gaussian charge scheme
   Yang Guo               : DLPNO-NEVPT2, F12-NEVPT2, CIM, IAO-localization
   Andreas Hansen         : Spin unrestricted coupled pair/coupled cluster methods
   Benjamin Helmich-Paris : MC-RPA, TRAH-SCF, COSX integrals
   Lee Huntington         : MR-EOM, pCC
   Robert Izsak           : Overlap fitted RIJCOSX, COSX-SCS-MP3, EOM
   Marcus Kettner         : VPT2
   Christian Kollmar      : KDIIS, OOCD, Brueckner-CCSD(T), CCSD density, CASPT2, CASPT2-K
   Simone Kossmann        : Meta GGA functionals, TD-DFT gradient, OOMP2, MP2 Hessian
   Martin Krupicka        : Initial AUTO-CI
   Lucas Lang             : DCDCAS
   Marvin Lechner         : AUTO-CI (C++ implementation), FIC-MRCC
   Dagmar Lenk            : GEPOL surface, SMD
   Dimitrios Liakos       : Extrapolation schemes; Compound Job, initial MDCI parallelization
   Dimitrios Manganas     : Further ROCIS development; embedding schemes
   Dimitrios Pantazis     : SARC Basis sets
   Anastasios Papadopoulos: AUTO-CI, single reference methods and gradients
   Taras Petrenko         : DFT Hessian,TD-DFT gradient, ASA, ECA, R-Raman, ABS, FL, XAS/XES, NRVS
   Peter Pinski           : DLPNO-MP2, DLPNO-MP2 Gradient
   Christoph Reimann      : Effective Core Potentials
   Marius Retegan         : Local ZFS, SOC
   Christoph Riplinger    : Optimizer, TS searches, QM/MM, DLPNO-CCSD(T), (RO)-DLPNO pert. Triples
   Tobias Risthaus        : Range-separated hybrids, TD-DFT gradient, RPA, STAB
   Michael Roemelt        : Original ROCIS implementation
   Masaaki Saitow         : Open-shell DLPNO-CCSD energy and density
   Barbara Sandhoefer     : DKH picture change effects
   Avijit Sen             : IP-ROCIS
   Kantharuban Sivalingam : CASSCF convergence, NEVPT2, FIC-MRCI
   Bernardo de Souza      : ESD, SOC TD-DFT
   Georgi Stoychev        : AutoAux, RI-MP2 NMR, DLPNO-MP2 response
   Willem Van den Heuvel  : Paramagnetic NMR
   Boris Wezisla          : Elementary symmetry handling
   Frank Wennmohs         : Technical directorship


 We gratefully acknowledge several colleagues who have allowed us to
 interface, adapt or use parts of their codes:
   Stefan Grimme, W. Hujo, H. Kruse, P. Pracht,  : VdW corrections, initial TS optimization,
                  C. Bannwarth, S. Ehlert          DFT functionals, gCP, sTDA/sTD-DF
   Ed Valeev, F. Pavosevic, A. Kumar             : LibInt (2-el integral package), F12 methods
   Garnet Chan, S. Sharma, J. Yang, R. Olivares  : DMRG
   Ulf Ekstrom                                   : XCFun DFT Library
   Mihaly Kallay                                 : mrcc  (arbitrary order and MRCC methods)
   Jiri Pittner, Ondrej Demel                    : Mk-CCSD
   Frank Weinhold                                : gennbo (NPA and NBO analysis)
   Christopher J. Cramer and Donald G. Truhlar   : smd solvation model
   Lars Goerigk                                  : TD-DFT with DH, B97 family of functionals
   V. Asgeirsson, H. Jonsson                     : NEB implementation
   FAccTs GmbH                                   : IRC, NEB, NEB-TS, DLPNO-Multilevel, CI-OPT
                                                   MM, QMMM, 2- and 3-layer-ONIOM, Crystal-QMMM,
                                                   LR-CPCM, SF, NACMEs, symmetry and pop. for TD-DFT,
                                                   nearIR, NL-DFT gradient (VV10), updates on ESD,
                                                   ML-optimized integration grids
   S Lehtola, MJT Oliveira, MAL Marques          : LibXC Library
   Liviu Ungur et al                             : ANISO software


 Your calculation uses the libint2 library for the computation of 2-el integrals
 For citations please refer to: http://libint.valeyev.net

 Your ORCA version has been built with support for libXC version: 5.1.0
 For citations please refer to: https://tddft.org/programs/libxc/

 This ORCA versions uses:
   CBLAS   interface :  Fast vector & matrix operations
   LAPACKE interface :  Fast linear algebra routines
   SCALAPACK package :  Parallel linear algebra routines
   Shared memory     :  Shared parallel matrices
   BLAS/LAPACK       :  OpenBLAS 0.3.15  USE64BITINT DYNAMIC_ARCH NO_AFFINITY Sandybridge SINGLE_THREADED
        Core in use  :  Sandybridge
   Copyright (c) 2011-2014, The OpenBLAS Project


================================================================================

----- Orbital basis set information -----
Your calculation utilizes the basis: cc-pVDZ 
       H, B-Ne : Obtained from the ccRepo (grant-hill.group.shef.ac.uk/ccrepo) Feb. 2017
                 T. H. Dunning, Jr., J. Chem. Phys. 90, 1007 (1989)
            He : Obtained from the ccRepo (grant-hill.group.shef.ac.uk/ccrepo) Feb. 2017
                 D. E. Woon, T. H. Dunning, Jr., J. Chem. Phys. 100, 2975 (1994)
  Li-Be, Na-Mg : Obtained from the ccRepo (grant-hill.group.shef.ac.uk/ccrepo) Feb. 2017
                 B. P. Prascher, D. E. Woon, K. A. Peterson, T. H. Dunning, Jr., A. K. Wilson, Theor. Chem. Acc. 128, 69 (2011)
         Al-Ar : Obtained from the ccRepo (grant-hill.group.shef.ac.uk/ccrepo) Feb. 2017
                 D. E. Woon, T. H. Dunning, Jr., J. Chem. Phys. 98, 1358 (1993)
            Ca : Obtained from the Peterson Research Group Website (tyr0.chem.wsu.edu/~kipeters) Feb. 2017
                 J. Koput, K. A. Peterson, J. Phys. Chem. 106, 9595 (2002)
         Sc-Zn : Obtained from the ccRepo (grant-hill.group.shef.ac.uk/ccrepo) Feb. 2017
                 N. B. Balabanov, K. A. Peterson, J. Chem. Phys. 123, 064107 (2005)
                 N. B. Balabanov, K. A. Peterson, J. Chem. Phys. 125, 074110 (2006)
         Ga-Kr : Obtained from the ccRepo (grant-hill.group.shef.ac.uk/ccrepo) Feb. 2017
                 A. K. Wilson, D. E. Woon, K. A. Peterson, T. H. Dunning, Jr., J. Chem. Phys. 110, 7667 (1999)

================================================================================
                                        WARNINGS
                       Please study these warnings very carefully!
================================================================================


WARNING: No MP2 level density has been requested!
         To caclulate MP2 level properties use
         %mp2 Density relaxed end
         or
         %mp2 Density unrelaxed end

WARNING: Post HF methods need fully converged wavefunctions
  ===> : Setting SCFConvForced true
         You can overwrite this default with %scf ConvForced false 


INFO   : the flag for use of the SHARK integral package has been found!

================================================================================
                                       INPUT FILE
================================================================================
NAME = /scratch/allen/tmpyp4_amber_gaff2/2.Mdgx/conf11/conf11/Conf23.orca
|  1> ! PAL2
|  2> ! mp2 cc-pvdz TightSCF  NoKeepInts
|  3> 
|  4> %scf
|  5>   MaxCore 2000
|  6> end
|  7> %mp2
|  8>   MaxCore 2000
|  9> end
| 10> * xyz 0 1
| 11>    C       -3.09600         6.46100        -0.31600
| 12>    C        1.47400         4.04100         0.05700
| 13>    C       -2.80200         4.09300         0.04900
| 14>    C       -4.13300         4.04800         0.49100
| 15>    C       -4.89600         5.19800         0.51200
| 16>    C       -5.23100         7.59000         0.11500
| 17>    C        0.13200         4.30700         0.06100
| 18>    C       -0.56900         3.05600         0.04700
| 19>    C        1.64900         2.61800         0.02300
| 20>    C       -2.29500         5.33600        -0.36100
| 21>    N       -4.37500         6.38200         0.11600
| 22>    N        0.38800         2.06700         0.02500
| 23>    N       -2.01000         0.39500        -0.07500
| 24>    N       -0.38800        -2.07400        -0.02700
| 25>    N        2.01000        -0.40100         0.06500
| 26>    C       -1.96000         2.86100         0.02400
| 27>    C       -2.62300         1.61500        -0.01800
| 28>    C       -5.57300        -4.32900         1.06600
| 29>    C       -4.07300         1.47100         0.05600
| 30>    C       -4.10600        -2.75600        -0.02600
| 31>    C       -4.99500        -2.75700        -1.11100
| 32>    C       -6.13200        -3.54200        -1.07600
| 33>    C       -7.65100        -5.11300         0.04000
| 34>    C       -4.32400         0.14100         0.03700
| 35>    C       -3.02500        -0.52000        -0.04800
| 36>    C       -4.42200        -3.56600         1.07500
| 37>    N       -6.40700        -4.31300         0.00100
| 38>    C       -2.86700        -1.92200        -0.04000
| 39>    C       -1.65000        -2.62400        -0.02700
| 40>    C        3.56800        -6.14200        -1.04000
| 41>    C       -1.47600        -4.04900        -0.03400
| 42>    C        2.80300        -4.09900        -0.00800
| 43>    C        3.65700        -4.38400         1.06900
| 44>    C        4.42700        -5.53000         1.05900
| 45>    C        5.24500        -7.58800         0.01400
| 46>    C       -0.13400        -4.31500        -0.02200
| 47>    C        0.56800        -3.06400        -0.02700
| 48>    C        2.77500        -5.01200        -1.07400
| 49>    N        4.37600        -6.39100         0.01700
| 50>    C        1.95900        -2.86900        -0.00900
| 51>    C        2.62100        -1.62200         0.00900
| 52>    C        5.54300         4.33900        -1.13000
| 53>    C        4.07000        -1.47900        -0.09400
| 54>    C        4.10400         2.75100        -0.02100
| 55>    C        5.02700         2.72900         1.03600
| 56>    C        6.16600         3.50900         0.97800
| 57>    C        7.61900         5.15300        -0.11500
| 58>    C        4.32100        -0.14800        -0.09200
| 59>    C        3.02500         0.51400         0.01500
| 60>    C        4.38700         3.58200        -1.11500
| 61>    C        2.86600         1.91600         0.01300
| 62>    N        6.41300         4.29600        -0.09500
| 63>    H       -2.74300         7.44100        -0.61000
| 64>    H        2.27400         4.76600         0.08100
| 65>    H       -4.58500         3.11600         0.81000
| 66>    H       -5.92900         5.21100         0.83500
| 67>    H       -5.78000         7.63600        -0.82800
| 68>    H       -5.92600         7.52800         0.95200
| 69>    H       -4.59600         8.46900         0.22100
| 70>    H       -0.33200         5.28200         0.06900
| 71>    H       -1.27000         5.43900        -0.69800
| 72>    H        0.18200         1.07200         0.00500
| 73>    H       -0.18300        -1.08000        -0.02100
| 74>    H       -5.86400        -4.96200         1.89500
| 75>    H       -4.79400         2.27200         0.13900
| 76>    H       -4.80000        -2.16000        -1.99400
| 77>    H       -6.84100        -3.58200        -1.89300
| 78>    H       -8.42800        -4.53600         0.54600
| 79>    H       -7.95600        -5.33700        -0.98100
| 80>    H       -7.45600        -6.03700         0.58400
| 81>    H       -5.28700        -0.34400         0.10000
| 82>    H       -3.78000        -3.60100         1.94700
| 83>    H        3.58700        -6.86800        -1.84300
| 84>    H       -2.27600        -4.77400        -0.05000
| 85>    H        3.71400        -3.72400         1.92600
| 86>    H        5.09200        -5.79500         1.87100
| 87>    H        6.20500        -7.32900        -0.43900
| 88>    H        5.39300        -7.91700         1.04200
| 89>    H        4.75900        -8.37300        -0.56400
| 90>    H        0.32900        -5.29000        -0.00800
| 91>    H        2.14600        -4.84200        -1.94000
| 92>    H        5.80800         4.98600        -1.95600
| 93>    H        4.78800        -2.28100        -0.18500
| 94>    H        4.86000         2.11400         1.91200
| 95>    H        6.90100         3.53100         1.77200
| 96>    H        7.38300         6.10900         0.35600
| 97>    H        8.41400         4.65200         0.43500
| 98>    H        7.92100         5.31000        -1.15000
| 99>    H        5.28300         0.33600        -0.17900
|100>    H        3.72000         3.63200        -1.96700
|101> *
|102> 
|103>                          ****END OF INPUT****
================================================================================

                       ****************************
                       * Single Point Calculation *
                       ****************************

---------------------------------
CARTESIAN COORDINATES (ANGSTROEM)
---------------------------------
  C     -3.096000    6.461000   -0.316000
  C      1.474000    4.041000    0.057000
  C     -2.802000    4.093000    0.049000
  C     -4.133000    4.048000    0.491000
  C     -4.896000    5.198000    0.512000
  C     -5.231000    7.590000    0.115000
  C      0.132000    4.307000    0.061000
  C     -0.569000    3.056000    0.047000
  C      1.649000    2.618000    0.023000
  C     -2.295000    5.336000   -0.361000
  N     -4.375000    6.382000    0.116000
  N      0.388000    2.067000    0.025000
  N     -2.010000    0.395000   -0.075000
  N     -0.388000   -2.074000   -0.027000
  N      2.010000   -0.401000    0.065000
  C     -1.960000    2.861000    0.024000
  C     -2.623000    1.615000   -0.018000
  C     -5.573000   -4.329000    1.066000
  C     -4.073000    1.471000    0.056000
  C     -4.106000   -2.756000   -0.026000
  C     -4.995000   -2.757000   -1.111000
  C     -6.132000   -3.542000   -1.076000
  C     -7.651000   -5.113000    0.040000
  C     -4.324000    0.141000    0.037000
  C     -3.025000   -0.520000   -0.048000
  C     -4.422000   -3.566000    1.075000
  N     -6.407000   -4.313000    0.001000
  C     -2.867000   -1.922000   -0.040000
  C     -1.650000   -2.624000   -0.027000
  C      3.568000   -6.142000   -1.040000
  C     -1.476000   -4.049000   -0.034000
  C      2.803000   -4.099000   -0.008000
  C      3.657000   -4.384000    1.069000
  C      4.427000   -5.530000    1.059000
  C      5.245000   -7.588000    0.014000
  C     -0.134000   -4.315000   -0.022000
  C      0.568000   -3.064000   -0.027000
  C      2.775000   -5.012000   -1.074000
  N      4.376000   -6.391000    0.017000
  C      1.959000   -2.869000   -0.009000
  C      2.621000   -1.622000    0.009000
  C      5.543000    4.339000   -1.130000
  C      4.070000   -1.479000   -0.094000
  C      4.104000    2.751000   -0.021000
  C      5.027000    2.729000    1.036000
  C      6.166000    3.509000    0.978000
  C      7.619000    5.153000   -0.115000
  C      4.321000   -0.148000   -0.092000
  C      3.025000    0.514000    0.015000
  C      4.387000    3.582000   -1.115000
  C      2.866000    1.916000    0.013000
  N      6.413000    4.296000   -0.095000
  H     -2.743000    7.441000   -0.610000
  H      2.274000    4.766000    0.081000
  H     -4.585000    3.116000    0.810000
  H     -5.929000    5.211000    0.835000
  H     -5.780000    7.636000   -0.828000
  H     -5.926000    7.528000    0.952000
  H     -4.596000    8.469000    0.221000
  H     -0.332000    5.282000    0.069000
  H     -1.270000    5.439000   -0.698000
  H      0.182000    1.072000    0.005000
  H     -0.183000   -1.080000   -0.021000
  H     -5.864000   -4.962000    1.895000
  H     -4.794000    2.272000    0.139000
  H     -4.800000   -2.160000   -1.994000
  H     -6.841000   -3.582000   -1.893000
  H     -8.428000   -4.536000    0.546000
  H     -7.956000   -5.337000   -0.981000
  H     -7.456000   -6.037000    0.584000
  H     -5.287000   -0.344000    0.100000
  H     -3.780000   -3.601000    1.947000
  H      3.587000   -6.868000   -1.843000
  H     -2.276000   -4.774000   -0.050000
  H      3.714000   -3.724000    1.926000
  H      5.092000   -5.795000    1.871000
  H      6.205000   -7.329000   -0.439000
  H      5.393000   -7.917000    1.042000
  H      4.759000   -8.373000   -0.564000
  H      0.329000   -5.290000   -0.008000
  H      2.146000   -4.842000   -1.940000
  H      5.808000    4.986000   -1.956000
  H      4.788000   -2.281000   -0.185000
  H      4.860000    2.114000    1.912000
  H      6.901000    3.531000    1.772000
  H      7.383000    6.109000    0.356000
  H      8.414000    4.652000    0.435000
  H      7.921000    5.310000   -1.150000
  H      5.283000    0.336000   -0.179000
  H      3.720000    3.632000   -1.967000

----------------------------
CARTESIAN COORDINATES (A.U.)
----------------------------
  NO LB      ZA    FRAG     MASS         X           Y           Z
   0 C     6.0000    0    12.011   -5.850592   12.209521   -0.597153
   1 C     6.0000    0    12.011    2.785456    7.636383    0.107714
   2 C     6.0000    0    12.011   -5.295013    7.734649    0.092597
   3 C     6.0000    0    12.011   -7.810238    7.649611    0.927856
   4 C     6.0000    0    12.011   -9.252099    9.822796    0.967540
   5 C     6.0000    0    12.011   -9.885157   14.343021    0.217319
   6 C     6.0000    0    12.011    0.249444    8.139050    0.115273
   7 C     6.0000    0    12.011   -1.075254    5.775003    0.088817
   8 C     6.0000    0    12.011    3.116158    4.947303    0.043464
   9 C     6.0000    0    12.011   -4.336921   10.083579   -0.682191
  10 N     7.0000    0    14.007   -8.267552   12.060232    0.219208
  11 N     7.0000    0    14.007    0.733214    3.906064    0.047243
  12 N     7.0000    0    14.007   -3.798350    0.746442   -0.141729
  13 N     7.0000    0    14.007   -0.733214   -3.919292   -0.051023
  14 N     7.0000    0    14.007    3.798350   -0.757780    0.122832
  15 C     6.0000    0    12.011   -3.703863    5.406506    0.045353
  16 C     6.0000    0    12.011   -4.956752    3.051908   -0.034015
  17 C     6.0000    0    12.011  -10.531444   -8.180624    2.014448
  18 C     6.0000    0    12.011   -7.696855    2.779787    0.105825
  19 C     6.0000    0    12.011   -7.759216   -5.208085   -0.049133
  20 C     6.0000    0    12.011   -9.439182   -5.209975   -2.099486
  21 C     6.0000    0    12.011  -11.587801   -6.693410   -2.033345
  22 C     6.0000    0    12.011  -14.458295   -9.662170    0.075589
  23 C     6.0000    0    12.011   -8.171176    0.266451    0.069920
  24 C     6.0000    0    12.011   -5.716422   -0.982658   -0.090707
  25 C     6.0000    0    12.011   -8.356369   -6.738763    2.031456
  26 N     7.0000    0    14.007  -12.107475   -8.150389    0.001890
  27 C     6.0000    0    12.011   -5.417845   -3.632054   -0.075589
  28 C     6.0000    0    12.011   -3.118048   -4.958641   -0.051023
  29 C     6.0000    0    12.011    6.742543  -11.606698   -1.965315
  30 C     6.0000    0    12.011   -2.789236   -7.651501   -0.064251
  31 C     6.0000    0    12.011    5.296902   -7.745987   -0.015118
  32 C     6.0000    0    12.011    6.910728   -8.284559    2.020117
  33 C     6.0000    0    12.011    8.365818  -10.450186    2.001220
  34 C     6.0000    0    12.011    9.911614  -14.339242    0.026456
  35 C     6.0000    0    12.011   -0.253223   -8.154168   -0.041574
  36 C     6.0000    0    12.011    1.073364   -5.790121   -0.051023
  37 C     6.0000    0    12.011    5.243990   -9.471307   -2.029566
  38 N     7.0000    0    14.007    8.269442  -12.077240    0.032125
  39 C     6.0000    0    12.011    3.701973   -5.421624   -0.017008
  40 C     6.0000    0    12.011    4.952972   -3.065136    0.017008
  41 C     6.0000    0    12.011   10.474752    8.199522   -2.135391
  42 C     6.0000    0    12.011    7.691185   -2.794905   -0.177634
  43 C     6.0000    0    12.011    7.755436    5.198637   -0.039684
  44 C     6.0000    0    12.011    9.499653    5.157063    1.957756
  45 C     6.0000    0    12.011   11.652051    6.631049    1.848152
  46 C     6.0000    0    12.011   14.397823    9.737759   -0.217319
  47 C     6.0000    0    12.011    8.165507   -0.279679   -0.173855
  48 C     6.0000    0    12.011    5.716422    0.971319    0.028346
  49 C     6.0000    0    12.011    8.290229    6.768999   -2.107045
  50 C     6.0000    0    12.011    5.415955    3.620715    0.024566
  51 N     7.0000    0    14.007   12.118814    8.118263   -0.179524
  52 H     1.0000    0     1.008   -5.183519   14.061452   -1.152733
  53 H     1.0000    0     1.008    4.297237    9.006435    0.153068
  54 H     1.0000    0     1.008   -8.664394    5.888387    1.530678
  55 H     1.0000    0     1.008  -11.204186    9.847363    1.577921
  56 H     1.0000    0     1.008  -10.922617   14.429949   -1.564693
  57 H     1.0000    0     1.008  -11.198517   14.225858    1.799019
  58 H     1.0000    0     1.008   -8.685181   16.004091    0.417629
  59 H     1.0000    0     1.008   -0.627389    9.981533    0.130391
  60 H     1.0000    0     1.008   -2.399952   10.278220   -1.319029
  61 H     1.0000    0     1.008    0.343930    2.025786    0.009449
  62 H     1.0000    0     1.008   -0.345820   -2.040904   -0.039684
  63 H     1.0000    0     1.008  -11.081354   -9.376821    3.581031
  64 H     1.0000    0     1.008   -9.059347    4.293458    0.262672
  65 H     1.0000    0     1.008   -9.070685   -4.081808   -3.768114
  66 H     1.0000    0     1.008  -12.927616   -6.768999   -3.577252
  67 H     1.0000    0     1.008  -15.926612   -8.571798    1.031790
  68 H     1.0000    0     1.008  -15.034661  -10.085468   -1.853821
  69 H     1.0000    0     1.008  -14.089798  -11.408277    1.103600
  70 H     1.0000    0     1.008   -9.990982   -0.650066    0.188973
  71 H     1.0000    0     1.008   -7.143165   -6.804904    3.679297
  72 H     1.0000    0     1.008    6.778448  -12.978639   -3.482765
  73 H     1.0000    0     1.008   -4.301017   -9.021553   -0.094486
  74 H     1.0000    0     1.008    7.018443   -7.037340    3.639613
  75 H     1.0000    0     1.008    9.622485  -10.950963    3.535678
  76 H     1.0000    0     1.008   11.725751  -13.849803   -0.829590
  77 H     1.0000    0     1.008   10.191293  -14.960962    1.969095
  78 H     1.0000    0     1.008    8.993207  -15.822677   -1.065806
  79 H     1.0000    0     1.008    0.621720   -9.996651   -0.015118
  80 H     1.0000    0     1.008    4.055352   -9.150054   -3.666069
  81 H     1.0000    0     1.008   10.975529    9.422175   -3.696304
  82 H     1.0000    0     1.008    9.048009   -4.310465   -0.349599
  83 H     1.0000    0     1.008    9.184069    3.994881    3.613156
  84 H     1.0000    0     1.008   13.041000    6.672623    3.348595
  85 H     1.0000    0     1.008   13.951848   11.544337    0.672743
  86 H     1.0000    0     1.008   15.900156    8.791006    0.822031
  87 H     1.0000    0     1.008   14.968521   10.034446   -2.173185
  88 H     1.0000    0     1.008    9.983423    0.634948   -0.338261
  89 H     1.0000    0     1.008    7.029781    6.863485   -3.717091

--------------------------------
INTERNAL COORDINATES (ANGSTROEM)
--------------------------------
 C      0   0   0     0.000000000000     0.00000000     0.00000000
 C      1   0   0     5.184633931147     0.00000000     0.00000000
 C      1   2   0     2.413935583233    54.82229513     0.00000000
 C      3   1   2     1.403192787895    87.91178418   162.14349555
 C      4   3   1     1.380257222405   120.16073276     0.16272748
 C      5   4   3     2.447753664077   152.54688547     1.57873845
 C      2   1   3     1.368114030335    17.22140905   353.69672085
 C      7   2   1     1.434084376876   108.05010202   164.73561474
 C      2   1   3     1.434123425651   124.68035878    12.25762876
 C      1   2   3     1.381756490848    27.29444385   340.08249483
 N      1   2   3     1.352296565107   141.57516350    29.58371031
 N      9   2   1     1.376127174356   106.58526707   353.54348558
 N     12   9   2     2.925062050624   168.53581413   171.12065651
 N     13  12   9     2.954513327098    91.55032014    11.12112580
 N     14  13  12     2.925371258490    88.43092389   359.84326247
 C      8   7   2     1.404790019896   127.24786865   181.11170171
 C     13  12   9     1.366535034311    81.72106996   188.00453233
 C     14  13  12     5.758810554272    80.56209567   166.76250791
 C     17  13  12     1.459010623676   111.08861209   183.82872609
 C     18  14  13     2.412235892279    27.27532823    36.33507194
 C     20  18  14     1.402692767501    87.95206320   148.94598259
 C     21  20  18     1.382106725257   120.14573887   359.70382047
 C     18  14  13     2.446510985056   144.15733107    82.80075377
 C     19  17  13     1.353610726908   106.29293361   359.75308708
 C     13  12   9     1.366813447402   172.21332906    33.46711076
 C     18  14  13     1.380960173213    15.08449437   309.23336894
 N     22  21  20     1.352773077792   120.73759875     0.27865223
 C     25  13  17     1.410897586645   125.60330303   182.37774668
 C     14  13  12     1.376642291955    80.24689249   177.85461986
 C     14  13  12     5.764089607215   164.51507311   312.20821879
 C     29  14  13     1.435600919476   106.58649366   178.76395472
 C     30  14  13     2.413316804732    27.10625047    82.12560436
 C     32  30  14     1.403734305344    87.90059683   149.76154742
 C     33  32  30     1.380694028378   120.14881443   359.74174632
 C     34  33  32     2.448777858443   152.49203239     2.45173620
 C     31  29  14     1.368160809262   108.16950133     0.70383075
 C     14  13  12     1.376239804685   169.26375223   353.09862627
 C     30  14  13     1.380907310430    14.68948582   353.70041132
 N     34  33  32     1.352658863128   120.85575621     0.19603406
 C     37  14  29     1.404717053360   126.01551127   180.90772073
 C     15  14  13     1.366491126938    81.61824056   183.09049352
 C      2   1   3     4.249062720177   142.30380794   154.27543130
 C     41  15  14     1.459677704153   111.05201287   175.08990246
 C     42   2   1     2.412953791518    41.78584867   186.80779499
 C     44  42   2     1.403446472082    87.95153797   233.97558675
 C     45  44  42     1.381696421071   120.11137308     0.19721020
 C     42   2   1     2.450019795838   135.97209175    97.12264409
 C     43  41  15     1.354461516618   106.26758155     0.30894352
 C     15  14  13     1.367461151185   171.87382904   332.35056460
 C     42   2   1     1.381886391857    32.59078432   235.66307418
 C      9   2   1     1.404988612053   126.98745415   174.54782311
 N     42   2   1     1.352765315936   113.57249190   124.85923328
 H      1   2   3     1.082333128016    98.89890971   187.59198672
 H      2   1   3     1.079907866440   109.95106961   187.59522233
 H      4   3   1     1.083830706337   121.05574863   179.45475075
 H      5   4   3     1.082398725055   122.82765663   179.37781955
 H      6   5   4     1.092138269634   104.47743775   100.06223947
 H      6   5   4     1.089696287963    84.67007354   209.56040566
 H      6   5   4     1.089542105657   133.85548349   322.38676675
 H      7   2   1     1.079807853278   126.66122480   344.97402852
 H     10   1   2     1.083883296301   118.74808105   327.59329498
 H     12   9   2     1.016297692608   125.29023241   180.00180175
 H     14  13  12     1.014936943854    44.97226959   359.42596618
 H     18  14  13     1.082871645210   128.03556573   234.20482432
 H     19  17  13     1.080893611786   126.41830519   178.11313280
 H     21  20  18     1.083569563987   121.05669627   180.67006309
 H     22  21  20     1.082483256222   122.73097286   180.59748951
 H     23  18  14     1.092105306278   103.92715769   234.93429879
 H     23  18  14     1.088871893291   134.19244188    12.25587044
 H     23  18  14     1.089833473518    84.85857450   125.45241208
 H     24  19  17     1.080075460327   127.28078426   178.44613241
 H     26  18  14     1.083408048706   118.76995697   244.94906660
 H     30  14  13     1.082703098730   127.99711412   279.66882698
 H     31  29  14     1.079759695488   125.22293469   180.92530585
 H     33  32  30     1.083188810873   121.01964473   180.74284758
 H     34  33  32     1.082494341787   122.70821597   180.59516895
 H     35  34  33     1.092652735319   105.73575241    97.19771933
 H     35  34  33     1.089462711615    84.05943581   206.43036958
 H     35  34  33     1.089268102902   133.08365142   318.50306270
 H     36  31  29     1.079439669458   126.61599965   178.98859863
 H     38  30  73     1.083742127999   118.77264435   359.90091293
 H     42   2   1     1.082178358682   119.31790784   341.49076374
 H     43  41  15     1.080281907652   126.36969097   182.06329380
 H     45  44  42     1.083277434455   121.10105945   179.58025624
 H     46  45  44     1.082194529648   122.72144639   179.46906377
 H     47  42   2     1.091546151109   106.65128841   315.16475048
 H     47  42   2     1.088818625851   132.46019523    94.52397119
 H     47  42   2     1.089531091801    83.63838232   206.04504406
 H     48  43  41     1.080402239909   127.23657387   181.62955349
 H     50  42   2     1.083186502870   118.77001737    94.71359229

---------------------------
INTERNAL COORDINATES (A.U.)
---------------------------
 C      0   0   0     0.000000000000     0.00000000     0.00000000
 C      1   0   0     9.797538234503     0.00000000     0.00000000
 C      1   2   0     4.561677157238    54.82229513     0.00000000
 C      3   1   2     2.651650082215    87.91178418   162.14349555
 C      4   3   1     2.608308144711   120.16073276     0.16272748
 C      5   4   3     4.625584068407   152.54688547     1.57873845
 C      2   1   3     2.585360837309    17.22140905   353.69672085
 C      7   2   1     2.710026725231   108.05010202   164.73561474
 C      2   1   3     2.710100516721   124.68035878    12.25762876
 C      1   2   3     2.611141351470    27.29444385   340.08249483
 N      1   2   3     2.555470159895   141.57516350    29.58371031
 N      9   2   1     2.600503484979   106.58526707   353.54348558
 N     12   9   2     5.527566200405   168.53581413   171.12065651
 N     13  12   9     5.583221047236    91.55032014    11.12112580
 N     14  13  12     5.528150518591    88.43092389   359.84326247
 C      8   7   2     2.654668413270   127.24786865   181.11170171
 C     13  12   9     2.582376967257    81.72106996   188.00453233
 C     14  13  12    10.882574804710    80.56209567   166.76250791
 C     17  13  12     2.757130505230   111.08861209   183.82872609
 C     18  14  13     4.558465206823    27.27532823    36.33507194
 C     20  18  14     2.650705180609    87.95206320   148.94598259
 C     21  20  18     2.611803198586   120.14573887   359.70382047
 C     18  14  13     4.623235745386   144.15733107    82.80075377
 C     19  17  13     2.557953565794   106.29293361   359.75308708
 C     13  12   9     2.582903091751   172.21332906    33.46711076
 C     18  14  13     2.609636529225    15.08449437   309.23336894
 N     22  21  20     2.556370638369   120.73759875     0.27865223
 C     25  13  17     2.666210041769   125.60330303   182.37774668
 C     14  13  12     2.601476916169    80.24689249   177.85461986
 C     14  13  12    10.892550769017   164.51507311   312.20821879
 C     29  14  13     2.712892575415   106.58649366   178.76395472
 C     30  14  13     4.560507835333    27.10625047    82.12560436
 C     32  30  14     2.652673401891    87.90059683   149.76154742
 C     33  32  30     2.609133588376   120.14881443   359.74174632
 C     34  33  32     4.627519515267   152.49203239     2.45173620
 C     31  29  14     2.585449236669   108.16950133     0.70383075
 C     14  13  12     2.600716325456   169.26375223   353.09862627
 C     30  14  13     2.609536633043    14.68948582   353.70041132
 N     34  33  32     2.556154803934   120.85575621     0.19603406
 C     37  14  29     2.654530526499   126.01551127   180.90772073
 C     15  14  13     2.582293994346    81.61824056   183.09049352
 C      2   1   3     8.029564866989   142.30380794   154.27543130
 C     41  15  14     2.758391104639   111.05201287   175.08990246
 C     42   2   1     4.559821839776    41.78584867   186.80779499
 C     44  42   2     2.652129475853    87.95153797   233.97558675
 C     45  44  42     2.611027836043   120.11137308     0.19721020
 C     42   2   1     4.629866436820   135.97209175    97.12264409
 C     43  41  15     2.559561325344   106.26758155     0.30894352
 C     15  14  13     2.584127074516   171.87382904   332.35056460
 C     42   2   1     2.611386828803    32.59078432   235.66307418
 C      9   2   1     2.655043698059   126.98745415   174.54782311
 N     42   2   1     2.556355970587   113.57249190   124.85923328
 H      1   2   3     2.045313197620    98.89890971   187.59198672
 H      2   1   3     2.040730117440   109.95106961   187.59522233
 H      4   3   1     2.048143210512   121.05574863   179.45475075
 H      5   4   3     2.045437158059   122.82765663   179.37781955
 H      6   5   4     2.063842229984   104.47743775   100.06223947
 H      6   5   4     2.059227553400    84.67007354   209.56040566
 H      6   5   4     2.058936191068   133.85548349   322.38676675
 H      7   2   1     2.040541119952   126.66122480   344.97402852
 H     10   1   2     2.048242591140   118.74808105   327.59329498
 H     12   9   2     1.920524309565   125.29023241   180.00180175
 H     14  13  12     1.917952867083    44.97226959   359.42596618
 H     18  14  13     2.046330847636   128.03556573   234.20482432
 H     19  17  13     2.042592906181   126.41830519   178.11313280
 H     21  20  18     2.047649722989   121.05669627   180.67006309
 H     22  21  20     2.045596898814   122.73097286   180.59748951
 H     23  18  14     2.063779938267   103.92715769   234.93429879
 H     23  18  14     2.057669673245   134.19244188    12.25587044
 H     23  18  14     2.059486796529    84.85857450   125.45241208
 H     24  19  17     2.041046823986   127.28078426   178.44613241
 H     26  18  14     2.047344503340   118.76995697   244.94906660
 H     30  14  13     2.046012340948   127.99711412   279.66882698
 H     31  29  14     2.040450114918   125.22293469   180.92530585
 H     33  32  30     2.046930203877   121.01964473   180.74284758
 H     34  33  32     2.045617847496   122.70821597   180.59516895
 H     35  34  33     2.064814429233   105.73575241    97.19771933
 H     35  34  33     2.058786158072    84.05943581   206.43036958
 H     35  34  33     2.058418400901   133.08365142   318.50306270
 H     36  31  29     2.039845353366   126.61599965   178.98859863
 H     38  30  73     2.047975821711   118.77264435   359.90091293
 H     42   2   1     2.045020725966   119.31790784   341.49076374
 H     43  41  15     2.041436952892   126.36969097   182.06329380
 H     45  44  42     2.047097678177   121.10105945   179.58025624
 H     46  45  44     2.045051284662   122.72144639   179.46906377
 H     47  42   2     2.062723288131   106.65128841   315.16475048
 H     47  42   2     2.057569012371   132.46019523    94.52397119
 H     47  42   2     2.058915377895    83.63838232   206.04504406
 H     48  43  41     2.041664347903   127.23657387   181.62955349
 H     50  42   2     2.046925842384   118.77001737    94.71359229

---------------------
BASIS SET INFORMATION
---------------------
There are 3 groups of distinct atoms

 Group   1 Type C   : 17s4p1d contracted to 3s2p1d pattern {881/31/1}
 Group   2 Type N   : 17s4p1d contracted to 3s2p1d pattern {881/31/1}
 Group   3 Type H   : 4s1p contracted to 2s1p pattern {31/1}

Atom   0C    basis set group =>   1
Atom   1N    basis set group =>   2
Atom   2C    basis set group =>   1
Atom   3N    basis set group =>   2
Atom   4C    basis set group =>   1
Atom   5N    basis set group =>   2
Atom   6C    basis set group =>   1
Atom   7N    basis set group =>   2
Atom   8C    basis set group =>   1
Atom   9N    basis set group =>   2
Atom  10C    basis set group =>   1
Atom  11N    basis set group =>   2
Atom  12C    basis set group =>   1
Atom  13N    basis set group =>   2
Atom  14C    basis set group =>   1
Atom  15N    basis set group =>   2
Atom  16C    basis set group =>   1
Atom  17C    basis set group =>   1
Atom  18C    basis set group =>   1
Atom  19C    basis set group =>   1
Atom  20C    basis set group =>   1
Atom  21C    basis set group =>   1
Atom  22C    basis set group =>   1
Atom  23C    basis set group =>   1
Atom  24C    basis set group =>   1
Atom  25C    basis set group =>   1
Atom  26C    basis set group =>   1
Atom  27C    basis set group =>   1
Atom  28C    basis set group =>   1
Atom  29C    basis set group =>   1
Atom  30C    basis set group =>   1
Atom  31C    basis set group =>   1
Atom  32C    basis set group =>   1
Atom  33C    basis set group =>   1
Atom  34C    basis set group =>   1
Atom  35C    basis set group =>   1
Atom  36C    basis set group =>   1
Atom  37C    basis set group =>   1
Atom  38C    basis set group =>   1
Atom  39C    basis set group =>   1
Atom  40C    basis set group =>   1
Atom  41C    basis set group =>   1
Atom  42C    basis set group =>   1
Atom  43C    basis set group =>   1
Atom  44C    basis set group =>   1
Atom  45C    basis set group =>   1
Atom  46C    basis set group =>   1
Atom  47C    basis set group =>   1
Atom  48C    basis set group =>   1
Atom  49C    basis set group =>   1
Atom  50C    basis set group =>   1
Atom  51C    basis set group =>   1
Atom  52H    basis set group =>   3
Atom  53H    basis set group =>   3
Atom  54H    basis set group =>   3
Atom  55H    basis set group =>   3
Atom  56H    basis set group =>   3
Atom  57H    basis set group =>   3
Atom  58H    basis set group =>   3
Atom  59H    basis set group =>   3
Atom  60H    basis set group =>   3
Atom  61H    basis set group =>   3
Atom  62H    basis set group =>   3
Atom  63H    basis set group =>   3
Atom  64H    basis set group =>   3
Atom  65H    basis set group =>   3
Atom  66H    basis set group =>   3
Atom  67H    basis set group =>   3
Atom  68H    basis set group =>   3
Atom  69H    basis set group =>   3
Atom  70H    basis set group =>   3
Atom  71H    basis set group =>   3
Atom  72H    basis set group =>   3
Atom  73H    basis set group =>   3
Atom  74H    basis set group =>   3
Atom  75H    basis set group =>   3
Atom  76H    basis set group =>   3
Atom  77H    basis set group =>   3
Atom  78H    basis set group =>   3
Atom  79H    basis set group =>   3
Atom  80H    basis set group =>   3
Atom  81H    basis set group =>   3
Atom  82H    basis set group =>   3
Atom  83H    basis set group =>   3
Atom  84H    basis set group =>   3
Atom  85H    basis set group =>   3
Atom  86H    basis set group =>   3
Atom  87H    basis set group =>   3
Atom  88H    basis set group =>   3
Atom  89H    basis set group =>   3


           ************************************************************
           *        Program running with 16 parallel MPI-processes    *
           *              working on a common directory               *
           ************************************************************
------------------------------------------------------------------------------
                           ORCA GTO INTEGRAL CALCULATION
------------------------------------------------------------------------------
------------------------------------------------------------------------------
                   ___                                                        
                  /   \      - P O W E R E D   B Y -                         
                 /     \                                                     
                 |  |  |   _    _      __       _____    __    __             
                 |  |  |  | |  | |    /  \     |  _  \  |  |  /  |          
                  \  \/   | |  | |   /    \    | | | |  |  | /  /          
                 / \  \   | |__| |  /  /\  \   | |_| |  |  |/  /          
                |  |  |   |  __  | /  /__\  \  |    /   |      \           
                |  |  |   | |  | | |   __   |  |    \   |  |\   \          
                \     /   | |  | | |  |  |  |  | |\  \  |  | \   \       
                 \___/    |_|  |_| |__|  |__|  |_| \__\ |__|  \__/        
                                                                              
                      - O R C A' S   B I G   F R I E N D -                    
                                      &                                       
                       - I N T E G R A L  F E E D E R -                       
                                                                              
 v1 FN, 2020, v2 2021                                                         
------------------------------------------------------------------------------


Reading SHARK input file /scratch/allen/tmpyp4_amber_gaff2/conf1/conf1/Conf23.orca.SHARKINP.tmp ... ok
----------------------
SHARK INTEGRAL PACKAGE
----------------------

Number of atoms                             ...     90
Number of basis functions                   ...   1230
Number of shells                            ...    738
Maximum angular momentum                    ...      2
Integral batch strategy                     ... SHARK/LIBINT Hybrid
RI-J (if used) integral strategy            ... SPLIT-RIJ (Revised 2003 algorithm where possible)
Printlevel                                  ...      1
Contraction scheme used                     ... PARTIAL GENERAL contraction
Coulomb Range Separation                    ... NOT USED
Exchange Range Separation                   ... NOT USED
Finite Nucleus Model                        ... NOT USED
Auxiliary Coulomb fitting basis             ... NOT available
Auxiliary J/K fitting basis                 ... NOT available
Auxiliary Correlation fitting basis         ... NOT available
Auxiliary 'external' fitting basis          ... NOT available
Integral threshold                          ...     2.500000e-11
Primitive cut-off                           ...     2.500000e-12
Primitive pair pre-selection threshold      ...     2.500000e-12

Calculating pre-screening integrals         ... done (  0.1 sec) Dimension = 738
Calculating pre-screening integrals (ORCA)  ... done (  0.3 sec) Dimension = 426
Organizing shell pair data                  ... done (  0.8 sec)
Shell pair information
Total number of shell pairs                 ...    272691
Shell pairs after pre-screening             ...     71706
Total number of primitive shell pairs       ...    422091
Primitive shell pairs kept                  ...     92589
          la=0 lb=0:  29438 shell pairs
          la=1 lb=0:  26022 shell pairs
          la=1 lb=1:   4701 shell pairs
          la=2 lb=0:   7892 shell pairs
          la=2 lb=1:   3124 shell pairs
          la=2 lb=2:    529 shell pairs

Calculating one electron integrals          ... done (  0.3 sec)
Calculating Nuclear repulsion               ... done (  0.0 sec) ENN=   6233.526433877000 Eh

SHARK setup successfully completed in   2.2 seconds

Maximum memory used throughout the entire GTOINT-calculation: 99.1 MB


           ************************************************************
           *        Program running with 16 parallel MPI-processes    *
           *              working on a common directory               *
           ************************************************************
-------------------------------------------------------------------------------
                                 ORCA SCF
-------------------------------------------------------------------------------

------------
SCF SETTINGS
------------
Hamiltonian:
 Ab initio Hamiltonian  Method          .... Hartree-Fock(GTOs)


General Settings:
 Integral files         IntName         .... /scratch/allen/tmpyp4_amber_gaff2/conf1/conf1/Conf23.orca
 Hartree-Fock type      HFTyp           .... RHF
 Total Charge           Charge          ....    0
 Multiplicity           Mult            ....    1
 Number of Electrons    NEL             ....  358
 Basis Dimension        Dim             ....  918
 Nuclear Repulsion      ENuc            ....   6233.5264338770 Eh

Convergence Acceleration:
 DIIS                   CNVDIIS         .... on
   Start iteration      DIISMaxIt       ....    12
   Startup error        DIISStart       ....  0.200000
   # of expansion vecs  DIISMaxEq       ....     5
   Bias factor          DIISBfac        ....   1.050
   Max. coefficient     DIISMaxC        ....  10.000
 Trust-Rad. Augm. Hess. CNVTRAH         .... auto
   Auto Start mean grad. ratio tolernc. ....  1.125000
   Auto Start start iteration           ....    20
   Auto Start num. interpolation iter.  ....    10
   Max. Number of Micro iterations      ....    16
   Max. Number of Macro iterations      .... Maxiter - #DIIS iter
   Number of Davidson start vectors     ....     2
   Converg. threshold I  (grad. norm)   ....   1.000e-05
   Converg. threshold II (energy diff.) ....   1.000e-08
   Grad. Scal. Fac. for Micro threshold ....   0.100
   Minimum threshold for Micro iter.    ....   0.010
   NR start threshold (gradient norm)   ....   0.001
   Initial trust radius                 ....   0.400
   Minimum AH scaling param. (alpha)    ....   1.000
   Maximum AH scaling param. (alpha)    .... 1000.000
   Orbital update algorithm             .... Taylor
   White noise on init. David. guess    .... on
   Maximum white noise                  ....   0.010
   Quad. conv. algorithm                .... NR
 SOSCF                  CNVSOSCF        .... on
   Start iteration      SOSCFMaxIt      ....   150
   Startup grad/error   SOSCFStart      ....  0.003300
 Level Shifting         CNVShift        .... on
   Level shift para.    LevelShift      ....    0.2500
   Turn off err/grad.   ShiftErr        ....    0.0010
 Zerner damping         CNVZerner       .... off
 Static damping         CNVDamp         .... on
   Fraction old density DampFac         ....    0.7000
   Max. Damping (<1)    DampMax         ....    0.9800
   Min. Damping (>=0)   DampMin         ....    0.0000
   Turn off err/grad.   DampErr         ....    0.1000
 Fernandez-Rico         CNVRico         .... off

SCF Procedure:
 Maximum # iterations   MaxIter         ....   125
 SCF integral mode      SCFMode         .... Direct
   Integral package                     .... SHARK and LIBINT hybrid scheme
 Reset frequency        DirectResetFreq ....    20
 Integral Threshold     Thresh          ....  2.500e-11 Eh
 Primitive CutOff       TCut            ....  2.500e-12 Eh

Convergence Tolerance:
 Convergence Check Mode ConvCheckMode   .... Total+1el-Energy
 Convergence forced     ConvForced      .... 1
 Energy Change          TolE            ....  1.000e-08 Eh
 1-El. energy change                    ....  1.000e-05 Eh
 Orbital Gradient       TolG            ....  1.000e-05
 Orbital Rotation angle TolX            ....  1.000e-05
 DIIS Error             TolErr          ....  5.000e-07


Diagonalization of the overlap matrix:
Smallest eigenvalue                        ... 2.067e-04
Time for diagonalization                   ...    0.367 sec
Threshold for overlap eigenvalues          ... 1.000e-08
Number of eigenvalues below threshold      ... 0
Time for construction of square roots      ...    0.247 sec
Total time needed                          ...    0.619 sec

Time for model grid setup =    1.065 sec

------------------------------
INITIAL GUESS: MODEL POTENTIAL
------------------------------
Loading Hartree-Fock densities                     ... done
Calculating cut-offs                               ... done
Initializing the effective Hamiltonian             ... done
Setting up the integral package (SHARK)            ... done
Starting the Coulomb interaction                   ... done (   1.2 sec)
Reading the grid                                   ... done
Mapping shells                                     ... done
Starting the XC term evaluation                    ... done (   0.2 sec)
Transforming the Hamiltonian                       ... done (   0.2 sec)
Diagonalizing the Hamiltonian                      ... done (   0.3 sec)
Back transforming the eigenvectors                 ... done (   0.1 sec)
Now organizing SCF variables                       ... done
                      ------------------
                      INITIAL GUESS DONE (   3.1 sec)
                      ------------------
--------------
SCF ITERATIONS
--------------
ITER       Energy         Delta-E        Max-DP      RMS-DP      [F,P]     Damp
               ***  Starting incremental Fock matrix formation  ***
  0  -2121.6485190843   0.000000000000 0.07495040  0.00124226  0.2315891 0.7000
  1  -2122.2961875159  -0.647668431571 0.05682543  0.00101258  0.1436076 0.7000
                               ***Turning on DIIS***
  2  -2122.6995929765  -0.403405460602 0.13270011  0.00229561  0.0802718 0.0000
  3  -2117.9930776757   4.706515300761 0.05726470  0.00069088  0.0436219 0.0000
  4  -2123.3852773466  -5.392199670921 0.01659859  0.00022872  0.0089217 0.0000
  5  -2123.5297299795  -0.144452632903 0.00779648  0.00013323  0.0048906 0.0000
  6  -2123.5140998611   0.015630118462 0.00458846  0.00008544  0.0021607 0.0000
  7  -2123.6083713440  -0.094271482911 0.00307585  0.00006740  0.0015976 0.0000
  8  -2123.6169099305  -0.008538586491 0.00327736  0.00006422  0.0014943 0.0000
  9  -2123.5887138763   0.028196054192 0.00262319  0.00004542  0.0011995 0.0000
 10  -2123.5970676591  -0.008353782829 0.00525928  0.00009494  0.0009345 0.0000
                      *** Initiating the SOSCF procedure ***
                           *** Shutting down DIIS ***
                      *** Re-Reading the Fockian *** 
                      *** Removing any level shift *** 
ITER      Energy       Delta-E        Grad      Rot      Max-DP    RMS-DP
 11  -2123.48984707   0.1072205928  0.000180  0.000180  0.000241  0.000005
               *** Restarting incremental Fock matrix formation ***
 12  -2123.55596864  -0.0661215767  0.000895  0.006205  0.001430  0.000035
 13  -2123.55607823  -0.0001095846  0.001112  0.030684  0.006518  0.000136
 14  -2123.55626393  -0.0001857023  0.000364  0.001422  0.000629  0.000012
 15  -2123.55627938  -0.0000154514  0.000186  0.002544  0.000601  0.000015
 16  -2123.55628752  -0.0000081377  0.000145  0.002426  0.000452  0.000009
 17  -2123.55629037  -0.0000028534  0.000138  0.001934  0.000316  0.000007
 18  -2123.55629186  -0.0000014837  0.000066  0.001099  0.000256  0.000004
 19  -2123.55629266  -0.0000008058  0.000046  0.001312  0.000230  0.000005
 20  -2123.55629308  -0.0000004192  0.000027  0.000881  0.000133  0.000003
 21  -2123.55629330  -0.0000002217  0.000026  0.001087  0.000166  0.000003
 22  -2123.55629351  -0.0000002051  0.000023  0.000936  0.000148  0.000003
 23  -2123.55629363  -0.0000001243  0.000016  0.000487  0.000079  0.000002
 24  -2123.55629369  -0.0000000571  0.000009  0.000344  0.000055  0.000001
 25  -2123.55629373  -0.0000000360  0.000007  0.000159  0.000043  0.000001
 26  -2123.55629374  -0.0000000166  0.000005  0.000112  0.000033  0.000001
 27  -2123.55629375  -0.0000000041  0.000003  0.000079  0.000023  0.000000
                  ***Gradient check signals convergence***
              ***Rediagonalizing the Fockian in SOSCF/NRSCF***

               *****************************************************
               *                     SUCCESS                       *
               *           SCF CONVERGED AFTER  28 CYCLES          *
               *****************************************************


----------------
TOTAL SCF ENERGY
----------------

Total Energy       :        -2123.55629374 Eh          -57784.90448 eV

Components:
Nuclear Repulsion  :         6233.52643388 Eh          169622.87773 eV
Electronic Energy  :        -8357.08272762 Eh         -227407.78221 eV
One Electron Energy:       -15307.68983120 Eh         -416543.41697 eV
Two Electron Energy:         6950.60710358 Eh          189135.63476 eV

Virial components:
Potential Energy   :        -4245.92621223 Eh         -115537.52605 eV
Kinetic Energy     :         2122.36991848 Eh           57752.62157 eV
Virial Ratio       :            2.00055899


---------------
SCF CONVERGENCE
---------------

  Last Energy change         ...    1.9645e-09  Tolerance :   1.0000e-08
  Last MAX-Density change    ...    1.0560e-05  Tolerance :   1.0000e-07
  Last RMS-Density change    ...    2.1236e-07  Tolerance :   5.0000e-09
  Last Orbital Gradient      ...    2.1467e-06  Tolerance :   1.0000e-05
  Last Orbital Rotation      ...    4.8927e-05  Tolerance :   1.0000e-05

             **** THE GBW FILE WAS UPDATED (/scratch/allen/tmpyp4_amber_gaff2/conf1/conf1/Conf23.orca.gbw) ****
             **** DENSITY /scratch/allen/tmpyp4_amber_gaff2/conf1/conf1/Conf23.orca.scfp WAS UPDATED ****
             **** ENERGY FILE WAS UPDATED (/scratch/allen/tmpyp4_amber_gaff2/conf1/conf1/Conf23.orca.en.tmp) ****
             **** THE GBW FILE WAS UPDATED (/scratch/allen/tmpyp4_amber_gaff2/conf1/conf1/Conf23.orca.gbw) ****
             **** DENSITY /scratch/allen/tmpyp4_amber_gaff2/conf1/conf1/Conf23.orca.scfp WAS UPDATED ****
----------------
ORBITAL ENERGIES
----------------

  NO   OCC          E(Eh)            E(eV) 
   0   2.0000     -15.677581      -426.6087 
   1   2.0000     -15.633386      -425.4060 
   2   2.0000     -15.632112      -425.3714 
   3   2.0000     -15.589314      -424.2068 
   4   2.0000     -15.524820      -422.4518 
   5   2.0000     -15.515890      -422.2088 
   6   2.0000     -15.453582      -420.5134 
   7   2.0000     -15.440135      -420.1474 
   8   2.0000     -11.327560      -308.2386 
   9   2.0000     -11.326574      -308.2117 
  10   2.0000     -11.326539      -308.2108 
  11   2.0000     -11.298959      -307.4603 
  12   2.0000     -11.298530      -307.4486 
  13   2.0000     -11.292409      -307.2821 
  14   2.0000     -11.291311      -307.2522 
  15   2.0000     -11.286914      -307.1325 
  16   2.0000     -11.286154      -307.1119 
  17   2.0000     -11.279976      -306.9438 
  18   2.0000     -11.271330      -306.7085 
  19   2.0000     -11.261841      -306.4503 
  20   2.0000     -11.260854      -306.4234 
  21   2.0000     -11.253961      -306.2358 
  22   2.0000     -11.251043      -306.1564 
  23   2.0000     -11.237138      -305.7781 
  24   2.0000     -11.236864      -305.7706 
  25   2.0000     -11.230727      -305.6036 
  26   2.0000     -11.229966      -305.5829 
  27   2.0000     -11.229925      -305.5818 
  28   2.0000     -11.229839      -305.5794 
  29   2.0000     -11.210350      -305.0491 
  30   2.0000     -11.209081      -305.0146 
  31   2.0000     -11.196473      -304.6715 
  32   2.0000     -11.190723      -304.5151 
  33   2.0000     -11.190626      -304.5124 
  34   2.0000     -11.188694      -304.4598 
  35   2.0000     -11.187867      -304.4373 
  36   2.0000     -11.186555      -304.4016 
  37   2.0000     -11.184869      -304.3558 
  38   2.0000     -11.180563      -304.2386 
  39   2.0000     -11.173800      -304.0546 
  40   2.0000     -11.171795      -304.0000 
  41   2.0000     -11.170965      -303.9774 
  42   2.0000     -11.167653      -303.8873 
  43   2.0000     -11.161214      -303.7121 
  44   2.0000     -11.160259      -303.6861 
  45   2.0000     -11.157160      -303.6017 
  46   2.0000     -11.156248      -303.5769 
  47   2.0000     -11.154753      -303.5363 
  48   2.0000     -11.147545      -303.3401 
  49   2.0000     -11.136881      -303.0499 
  50   2.0000     -11.130053      -302.8642 
  51   2.0000     -11.118304      -302.5444 
  52   2.0000      -1.358506       -36.9668 
  53   2.0000      -1.320717       -35.9385 
  54   2.0000      -1.319855       -35.9151 
  55   2.0000      -1.282567       -34.9004 
  56   2.0000      -1.225691       -33.3527 
  57   2.0000      -1.210423       -32.9373 
  58   2.0000      -1.173023       -31.9196 
  59   2.0000      -1.150889       -31.3173 
  60   2.0000      -1.142111       -31.0784 
  61   2.0000      -1.110112       -30.2077 
  62   2.0000      -1.108869       -30.1739 
  63   2.0000      -1.080340       -29.3975 
  64   2.0000      -1.078643       -29.3514 
  65   2.0000      -1.044925       -28.4338 
  66   2.0000      -1.044511       -28.4226 
  67   2.0000      -1.040079       -28.3020 
  68   2.0000      -1.014733       -27.6123 
  69   2.0000      -1.013159       -27.5695 
  70   2.0000      -1.009324       -27.4651 
  71   2.0000      -0.993056       -27.0224 
  72   2.0000      -0.986191       -26.8356 
  73   2.0000      -0.980951       -26.6930 
  74   2.0000      -0.972491       -26.4628 
  75   2.0000      -0.961757       -26.1707 
  76   2.0000      -0.954209       -25.9653 
  77   2.0000      -0.945874       -25.7386 
  78   2.0000      -0.935856       -25.4659 
  79   2.0000      -0.918032       -24.9809 
  80   2.0000      -0.908926       -24.7331 
  81   2.0000      -0.895381       -24.3646 
  82   2.0000      -0.875628       -23.8271 
  83   2.0000      -0.871690       -23.7199 
  84   2.0000      -0.870236       -23.6803 
  85   2.0000      -0.858264       -23.3545 
  86   2.0000      -0.842008       -22.9122 
  87   2.0000      -0.835446       -22.7336 
  88   2.0000      -0.825761       -22.4701 
  89   2.0000      -0.797169       -21.6921 
  90   2.0000      -0.790201       -21.5025 
  91   2.0000      -0.753940       -20.5157 
  92   2.0000      -0.749709       -20.4006 
  93   2.0000      -0.733163       -19.9504 
  94   2.0000      -0.725674       -19.7466 
  95   2.0000      -0.722440       -19.6586 
  96   2.0000      -0.717450       -19.5228 
  97   2.0000      -0.714395       -19.4397 
  98   2.0000      -0.710220       -19.3261 
  99   2.0000      -0.697551       -18.9813 
 100   2.0000      -0.696507       -18.9529 
 101   2.0000      -0.688207       -18.7271 
 102   2.0000      -0.683874       -18.6092 
 103   2.0000      -0.682884       -18.5822 
 104   2.0000      -0.678335       -18.4584 
 105   2.0000      -0.674143       -18.3444 
 106   2.0000      -0.671371       -18.2689 
 107   2.0000      -0.660311       -17.9680 
 108   2.0000      -0.657625       -17.8949 
 109   2.0000      -0.652686       -17.7605 
 110   2.0000      -0.651820       -17.7369 
 111   2.0000      -0.644616       -17.5409 
 112   2.0000      -0.644349       -17.5336 
 113   2.0000      -0.637863       -17.3571 
 114   2.0000      -0.637377       -17.3439 
 115   2.0000      -0.628146       -17.0927 
 116   2.0000      -0.622972       -16.9519 
 117   2.0000      -0.621063       -16.9000 
 118   2.0000      -0.612722       -16.6730 
 119   2.0000      -0.611916       -16.6511 
 120   2.0000      -0.611688       -16.6449 
 121   2.0000      -0.609875       -16.5955 
 122   2.0000      -0.600939       -16.3524 
 123   2.0000      -0.587046       -15.9743 
 124   2.0000      -0.581323       -15.8186 
 125   2.0000      -0.580843       -15.8055 
 126   2.0000      -0.579692       -15.7742 
 127   2.0000      -0.571864       -15.5612 
 128   2.0000      -0.568906       -15.4807 
 129   2.0000      -0.559611       -15.2278 
 130   2.0000      -0.552311       -15.0291 
 131   2.0000      -0.547579       -14.9004 
 132   2.0000      -0.542168       -14.7531 
 133   2.0000      -0.541757       -14.7420 
 134   2.0000      -0.538171       -14.6444 
 135   2.0000      -0.536101       -14.5881 
 136   2.0000      -0.530053       -14.4235 
 137   2.0000      -0.520502       -14.1636 
 138   2.0000      -0.516638       -14.0584 
 139   2.0000      -0.514588       -14.0027 
 140   2.0000      -0.512472       -13.9451 
 141   2.0000      -0.510996       -13.9049 
 142   2.0000      -0.508812       -13.8455 
 143   2.0000      -0.504546       -13.7294 
 144   2.0000      -0.502213       -13.6659 
 145   2.0000      -0.496384       -13.5073 
 146   2.0000      -0.490532       -13.3481 
 147   2.0000      -0.482425       -13.1274 
 148   2.0000      -0.478654       -13.0248 
 149   2.0000      -0.467116       -12.7109 
 150   2.0000      -0.466382       -12.6909 
 151   2.0000      -0.457122       -12.4389 
 152   2.0000      -0.451353       -12.2819 
 153   2.0000      -0.444809       -12.1039 
 154   2.0000      -0.439823       -11.9682 
 155   2.0000      -0.427854       -11.6425 
 156   2.0000      -0.417777       -11.3683 
 157   2.0000      -0.407658       -11.0929 
 158   2.0000      -0.396375       -10.7859 
 159   2.0000      -0.387863       -10.5543 
 160   2.0000      -0.386224       -10.5097 
 161   2.0000      -0.378516       -10.2999 
 162   2.0000      -0.369995       -10.0681 
 163   2.0000      -0.356383        -9.6977 
 164   2.0000      -0.355923        -9.6852 
 165   2.0000      -0.341589        -9.2951 
 166   2.0000      -0.337619        -9.1871 
 167   2.0000      -0.325007        -8.8439 
 168   2.0000      -0.322394        -8.7728 
 169   2.0000      -0.304736        -8.2923 
 170   2.0000      -0.299591        -8.1523 
 171   2.0000      -0.285512        -7.7692 
 172   2.0000      -0.280109        -7.6222 
 173   2.0000      -0.263603        -7.1730 
 174   2.0000      -0.241661        -6.5759 
 175   2.0000      -0.189921        -5.1680 
 176   2.0000      -0.180587        -4.9140 
 177   2.0000      -0.077846        -2.1183 
 178   2.0000      -0.059159        -1.6098 
 179   0.0000       0.028361         0.7717 
 180   0.0000       0.065676         1.7871 
 181   0.0000       0.090647         2.4666 
 182   0.0000       0.107669         2.9298 
 183   0.0000       0.113033         3.0758 
 184   0.0000       0.137199         3.7334 
 185   0.0000       0.139398         3.7932 
 186   0.0000       0.142085         3.8663 
 187   0.0000       0.163746         4.4558 
 188   0.0000       0.165381         4.5003 
 189   0.0000       0.165538         4.5045 
 190   0.0000       0.171562         4.6684 
 191   0.0000       0.181529         4.9397 
 192   0.0000       0.184927         5.0321 
 193   0.0000       0.188205         5.1213 
 194   0.0000       0.205075         5.5804 
 195   0.0000       0.205537         5.5929 
 196   0.0000       0.208453         5.6723 
 197   0.0000       0.208574         5.6756 
 198   0.0000       0.217607         5.9214 
 199   0.0000       0.227999         6.2042 
 200   0.0000       0.232672         6.3313 
 201   0.0000       0.234835         6.3902 
 202   0.0000       0.239166         6.5080 
 203   0.0000       0.239758         6.5241 
 204   0.0000       0.246963         6.7202 
 205   0.0000       0.255822         6.9613 
 206   0.0000       0.256574         6.9817 
 207   0.0000       0.257376         7.0036 
 208   0.0000       0.258787         7.0420 
 209   0.0000       0.260990         7.1019 
 210   0.0000       0.263084         7.1589 
 211   0.0000       0.266535         7.2528 
 212   0.0000       0.269615         7.3366 
 213   0.0000       0.271724         7.3940 
 214   0.0000       0.272782         7.4228 
 215   0.0000       0.275856         7.5064 
 216   0.0000       0.277898         7.5620 
 217   0.0000       0.282426         7.6852 
 218   0.0000       0.286544         7.7973 
 219   0.0000       0.287659         7.8276 
 220   0.0000       0.289853         7.8873 
 221   0.0000       0.292057         7.9473 
 222   0.0000       0.295125         8.0308 
 223   0.0000       0.296608         8.0711 
 224   0.0000       0.297141         8.0856 
 225   0.0000       0.299732         8.1561 
 226   0.0000       0.305018         8.3000 
 227   0.0000       0.308820         8.4034 
 228   0.0000       0.310368         8.4455 
 229   0.0000       0.324712         8.8359 
 230   0.0000       0.327520         8.9123 
 231   0.0000       0.333330         9.0704 
 232   0.0000       0.341284         9.2868 
 233   0.0000       0.350237         9.5304 
 234   0.0000       0.355244         9.6667 
 235   0.0000       0.361350         9.8328 
 236   0.0000       0.376086        10.2338 
 237   0.0000       0.389743        10.6054 
 238   0.0000       0.394678        10.7397 
 239   0.0000       0.397704        10.8221 
 240   0.0000       0.402709        10.9583 
 241   0.0000       0.409496        11.1429 
 242   0.0000       0.412561        11.2264 
 243   0.0000       0.419226        11.4077 
 244   0.0000       0.429350        11.6832 
 245   0.0000       0.434100        11.8125 
 246   0.0000       0.436485        11.8774 
 247   0.0000       0.440809        11.9950 
 248   0.0000       0.442106        12.0303 
 249   0.0000       0.448207        12.1963 
 250   0.0000       0.457618        12.4524 
 251   0.0000       0.465864        12.6768 
 252   0.0000       0.469161        12.7665 
 253   0.0000       0.469717        12.7816 
 254   0.0000       0.472129        12.8473 
 255   0.0000       0.475206        12.9310 
 256   0.0000       0.476190        12.9578 
 257   0.0000       0.479718        13.0538 
 258   0.0000       0.487945        13.2777 
 259   0.0000       0.496751        13.5173 
 260   0.0000       0.503787        13.7087 
 261   0.0000       0.505574        13.7574 
 262   0.0000       0.506342        13.7783 
 263   0.0000       0.510863        13.9013 
 264   0.0000       0.515454        14.0262 
 265   0.0000       0.519619        14.1395 
 266   0.0000       0.524250        14.2656 
 267   0.0000       0.529230        14.4011 
 268   0.0000       0.532308        14.4848 
 269   0.0000       0.536502        14.5990 
 270   0.0000       0.543092        14.7783 
 271   0.0000       0.545255        14.8371 
 272   0.0000       0.557418        15.1681 
 273   0.0000       0.559261        15.2183 
 274   0.0000       0.561453        15.2779 
 275   0.0000       0.565890        15.3986 
 276   0.0000       0.570226        15.5166 
 277   0.0000       0.573585        15.6080 
 278   0.0000       0.578461        15.7407 
 279   0.0000       0.586520        15.9600 
 280   0.0000       0.590852        16.0779 
 281   0.0000       0.593097        16.1390 
 282   0.0000       0.594215        16.1694 
 283   0.0000       0.595622        16.2077 
 284   0.0000       0.598115        16.2755 
 285   0.0000       0.599957        16.3257 
 286   0.0000       0.606306        16.4984 
 287   0.0000       0.611490        16.6395 
 288   0.0000       0.617028        16.7902 
 289   0.0000       0.623550        16.9677 
 290   0.0000       0.626273        17.0418 
 291   0.0000       0.628703        17.1079 
 292   0.0000       0.635083        17.2815 
 293   0.0000       0.637989        17.3606 
 294   0.0000       0.644397        17.5349 
 295   0.0000       0.647796        17.6274 
 296   0.0000       0.652507        17.7556 
 297   0.0000       0.655524        17.8377 
 298   0.0000       0.661705        18.0059 
 299   0.0000       0.666692        18.1416 
 300   0.0000       0.672163        18.2905 
 301   0.0000       0.675198        18.3731 
 302   0.0000       0.677018        18.4226 
 303   0.0000       0.679180        18.4814 
 304   0.0000       0.681277        18.5385 
 305   0.0000       0.684681        18.6311 
 306   0.0000       0.688399        18.7323 
 307   0.0000       0.691186        18.8081 
 308   0.0000       0.695604        18.9284 
 309   0.0000       0.698546        19.0084 
 310   0.0000       0.702444        19.1145 
 311   0.0000       0.703663        19.1476 
 312   0.0000       0.706392        19.2219 
 313   0.0000       0.711457        19.3597 
 314   0.0000       0.712766        19.3953 
 315   0.0000       0.715830        19.4787 
 316   0.0000       0.717406        19.5216 
 317   0.0000       0.717771        19.5316 
 318   0.0000       0.723132        19.6774 
 319   0.0000       0.723991        19.7008 
 320   0.0000       0.727101        19.7854 
 321   0.0000       0.729639        19.8545 
 322   0.0000       0.731312        19.9000 
 323   0.0000       0.732851        19.9419 
 324   0.0000       0.734783        19.9945 
 325   0.0000       0.740156        20.1407 
 326   0.0000       0.743860        20.2415 
 327   0.0000       0.749611        20.3980 
 328   0.0000       0.753195        20.4955 
 329   0.0000       0.754466        20.5301 
 330   0.0000       0.756716        20.5913 
 331   0.0000       0.760494        20.6941 
 332   0.0000       0.761339        20.7171 
 333   0.0000       0.766996        20.8710 
 334   0.0000       0.768517        20.9124 
 335   0.0000       0.772742        21.0274 
 336   0.0000       0.776080        21.1182 
 337   0.0000       0.781672        21.2704 
 338   0.0000       0.782374        21.2895 
 339   0.0000       0.789011        21.4701 
 340   0.0000       0.793285        21.5864 
 341   0.0000       0.793948        21.6044 
 342   0.0000       0.798490        21.7280 
 343   0.0000       0.802952        21.8494 
 344   0.0000       0.805437        21.9171 
 345   0.0000       0.807744        21.9798 
 346   0.0000       0.808784        22.0081 
 347   0.0000       0.814636        22.1674 
 348   0.0000       0.815542        22.1920 
 349   0.0000       0.817539        22.2464 
 350   0.0000       0.820673        22.3316 
 351   0.0000       0.821250        22.3473 
 352   0.0000       0.823258        22.4020 
 353   0.0000       0.826533        22.4911 
 354   0.0000       0.828676        22.5494 
 355   0.0000       0.832767        22.6608 
 356   0.0000       0.833612        22.6837 
 357   0.0000       0.836230        22.7550 
 358   0.0000       0.837988        22.8028 
 359   0.0000       0.839841        22.8532 
 360   0.0000       0.840792        22.8791 
 361   0.0000       0.842939        22.9375 
 362   0.0000       0.844407        22.9775 
 363   0.0000       0.849030        23.1033 
 364   0.0000       0.849777        23.1236 
 365   0.0000       0.855355        23.2754 
 366   0.0000       0.857554        23.3352 
 367   0.0000       0.861226        23.4352 
 368   0.0000       0.865655        23.5557 
 369   0.0000       0.867910        23.6170 
 370   0.0000       0.871169        23.7057 
 371   0.0000       0.872690        23.7471 
 372   0.0000       0.874678        23.8012 
 373   0.0000       0.875961        23.8361 
 374   0.0000       0.878639        23.9090 
 375   0.0000       0.883563        24.0430 
 376   0.0000       0.886333        24.1183 
 377   0.0000       0.889908        24.2156 
 378   0.0000       0.891504        24.2591 
 379   0.0000       0.892294        24.2805 
 380   0.0000       0.897157        24.4129 
 381   0.0000       0.898576        24.4515 
 382   0.0000       0.899629        24.4802 
 383   0.0000       0.900885        24.5143 
 384   0.0000       0.905595        24.6425 
 385   0.0000       0.905764        24.6471 
 386   0.0000       0.908155        24.7122 
 387   0.0000       0.909907        24.7598 
 388   0.0000       0.913477        24.8570 
 389   0.0000       0.916426        24.9372 
 390   0.0000       0.920693        25.0533 
 391   0.0000       0.924914        25.1682 
 392   0.0000       0.926531        25.2122 
 393   0.0000       0.927614        25.2417 
 394   0.0000       0.928884        25.2762 
 395   0.0000       0.930582        25.3224 
 396   0.0000       0.934832        25.4381 
 397   0.0000       0.940142        25.5826 
 398   0.0000       0.942288        25.6410 
 399   0.0000       0.943911        25.6851 
 400   0.0000       0.947496        25.7827 
 401   0.0000       0.953355        25.9421 
 402   0.0000       0.953800        25.9542 
 403   0.0000       0.956389        26.0247 
 404   0.0000       0.960066        26.1247 
 405   0.0000       0.963004        26.2047 
 406   0.0000       0.970143        26.3989 
 407   0.0000       0.974254        26.5108 
 408   0.0000       0.980450        26.6794 
 409   0.0000       0.983297        26.7569 
 410   0.0000       0.985916        26.8281 
 411   0.0000       0.987202        26.8631 
 412   0.0000       0.994661        27.0661 
 413   0.0000       0.999836        27.2069 
 414   0.0000       1.002931        27.2911 
 415   0.0000       1.007035        27.4028 
 416   0.0000       1.012939        27.5635 
 417   0.0000       1.014404        27.6033 
 418   0.0000       1.024115        27.8676 
 419   0.0000       1.031281        28.0626 
 420   0.0000       1.032445        28.0943 
 421   0.0000       1.036134        28.1946 
 422   0.0000       1.041269        28.3344 
 423   0.0000       1.051070        28.6011 
 424   0.0000       1.057730        28.7823 
 425   0.0000       1.058979        28.8163 
 426   0.0000       1.065549        28.9951 
 427   0.0000       1.068985        29.0885 
 428   0.0000       1.077542        29.3214 
 429   0.0000       1.084992        29.5241 
 430   0.0000       1.086764        29.5723 
 431   0.0000       1.089543        29.6480 
 432   0.0000       1.097078        29.8530 
 433   0.0000       1.097851        29.8740 
 434   0.0000       1.102468        29.9997 
 435   0.0000       1.105286        30.0764 
 436   0.0000       1.109542        30.1922 
 437   0.0000       1.112251        30.2659 
 438   0.0000       1.115644        30.3582 
 439   0.0000       1.120810        30.4988 
 440   0.0000       1.121412        30.5152 
 441   0.0000       1.124686        30.6042 
 442   0.0000       1.126243        30.6466 
 443   0.0000       1.129219        30.7276 
 444   0.0000       1.135642        30.9024 
 445   0.0000       1.136759        30.9328 
 446   0.0000       1.140601        31.0373 
 447   0.0000       1.146537        31.1989 
 448   0.0000       1.149623        31.2828 
 449   0.0000       1.151077        31.3224 
 450   0.0000       1.155233        31.4355 
 451   0.0000       1.159422        31.5495 
 452   0.0000       1.165132        31.7048 
 453   0.0000       1.167375        31.7659 
 454   0.0000       1.169258        31.8171 
 455   0.0000       1.171675        31.8829 
 456   0.0000       1.177674        32.0461 
 457   0.0000       1.182893        32.1882 
 458   0.0000       1.186113        32.2758 
 459   0.0000       1.195787        32.5390 
 460   0.0000       1.197633        32.5893 
 461   0.0000       1.200169        32.6583 
 462   0.0000       1.200957        32.6797 
 463   0.0000       1.206177        32.8217 
 464   0.0000       1.208708        32.8906 
 465   0.0000       1.214042        33.0358 
 466   0.0000       1.216927        33.1143 
 467   0.0000       1.221299        33.2332 
 468   0.0000       1.224387        33.3173 
 469   0.0000       1.226993        33.3882 
 470   0.0000       1.229749        33.4632 
 471   0.0000       1.234291        33.5868 
 472   0.0000       1.236813        33.6554 
 473   0.0000       1.241006        33.7695 
 474   0.0000       1.243557        33.8389 
 475   0.0000       1.243815        33.8459 
 476   0.0000       1.249756        34.0076 
 477   0.0000       1.250724        34.0339 
 478   0.0000       1.251957        34.0675 
 479   0.0000       1.256114        34.1806 
 480   0.0000       1.260854        34.3096 
 481   0.0000       1.263484        34.3812 
 482   0.0000       1.265258        34.4294 
 483   0.0000       1.271648        34.6033 
 484   0.0000       1.277019        34.7494 
 485   0.0000       1.280543        34.8453 
 486   0.0000       1.282913        34.9098 
 487   0.0000       1.287142        35.0249 
 488   0.0000       1.289564        35.0908 
 489   0.0000       1.292944        35.1828 
 490   0.0000       1.295862        35.2622 
 491   0.0000       1.299427        35.3592 
 492   0.0000       1.302604        35.4457 
 493   0.0000       1.311135        35.6778 
 494   0.0000       1.311597        35.6904 
 495   0.0000       1.318355        35.8743 
 496   0.0000       1.319412        35.9030 
 497   0.0000       1.321337        35.9554 
 498   0.0000       1.326293        36.0903 
 499   0.0000       1.329816        36.1861 
 500   0.0000       1.332116        36.2487 
 501   0.0000       1.340449        36.4755 
 502   0.0000       1.341767        36.5113 
 503   0.0000       1.346334        36.6356 
 504   0.0000       1.347931        36.6791 
 505   0.0000       1.349353        36.7178 
 506   0.0000       1.351934        36.7880 
 507   0.0000       1.355545        36.8862 
 508   0.0000       1.358418        36.9644 
 509   0.0000       1.361550        37.0497 
[...]
      pz      :     0.022114  p :     0.079770
      px      :     0.043596
      py      :     0.014060
 77 H s       :     0.884725  s :     0.884725
      pz      :     0.047961  p :     0.079273
      px      :     0.015023
      py      :     0.016289
 78 H s       :     0.885059  s :     0.885059
      pz      :     0.025876  p :     0.079244
      px      :     0.020460
      py      :     0.032908
 79 H s       :     0.910710  s :     0.910710
      pz      :     0.021804  p :     0.086314
      px      :     0.021664
      py      :     0.042846
 80 H s       :     0.864677  s :     0.864677
      pz      :     0.039368  p :     0.084792
      px      :     0.030263
      py      :     0.015161
 81 H s       :     0.886759  s :     0.886759
      pz      :     0.037825  p :     0.084119
      px      :     0.016176
      py      :     0.030118
 82 H s       :     0.915909  s :     0.915909
      pz      :     0.021951  p :     0.086735
      px      :     0.031644
      py      :     0.033140
 83 H s       :     0.873254  s :     0.873254
      pz      :     0.039288  p :     0.084104
      px      :     0.015271
      py      :     0.029545
 84 H s       :     0.886574  s :     0.886574
      pz      :     0.035779  p :     0.083446
      px      :     0.031702
      py      :     0.015965
 85 H s       :     0.892743  s :     0.892743
      pz      :     0.022494  p :     0.079791
      px      :     0.014065
      py      :     0.043232
 86 H s       :     0.890905  s :     0.890905
      pz      :     0.024733  p :     0.078837
      px      :     0.032986
      py      :     0.021117
 87 H s       :     0.889814  s :     0.889814
      pz      :     0.048017  p :     0.078744
      px      :     0.015587
      py      :     0.015139
 88 H s       :     0.910665  s :     0.910665
      pz      :     0.021625  p :     0.087008
      px      :     0.042931
      py      :     0.022453
 89 H s       :     0.871253  s :     0.871253
      pz      :     0.037952  p :     0.083848
      px      :     0.030490
      py      :     0.015406


                      *****************************
                      * MAYER POPULATION ANALYSIS *
                      *****************************

  NA   - Mulliken gross atomic population
  ZA   - Total nuclear charge
  QA   - Mulliken gross atomic charge
  VA   - Mayer's total valence
  BVA  - Mayer's bonded valence
  FA   - Mayer's free valence

  ATOM       NA         ZA         QA         VA         BVA        FA
  0 C      5.7865     6.0000     0.2135     3.8451     3.8451    -0.0000
  1 N      7.4556     7.0000    -0.4556     3.3374     3.3374    -0.0000
  2 C      6.0698     6.0000    -0.0698     3.9224     3.9224    -0.0000
  3 N      7.3392     7.0000    -0.3392     3.4564     3.4564    -0.0000
  4 C      6.0511     6.0000    -0.0511     4.0617     4.0617     0.0000
  5 N      7.5664     7.0000    -0.5664     3.0948     3.0948     0.0000
  6 C      6.1100     6.0000    -0.1100     3.9609     3.9609    -0.0000
  7 N      7.3406     7.0000    -0.3406     3.4332     3.4332    -0.0000
  8 C      5.7915     6.0000     0.2085     3.8455     3.8455    -0.0000
  9 N      7.5621     7.0000    -0.5621     3.0772     3.0772     0.0000
 10 C      5.8809     6.0000     0.1191     3.9090     3.9090     0.0000
 11 N      7.4386     7.0000    -0.4386     3.3775     3.3775     0.0000
 12 C      6.0737     6.0000    -0.0737     3.8795     3.8795     0.0000
 13 N      7.4299     7.0000    -0.4299     3.4260     3.4260    -0.0000
 14 C      5.7723     6.0000     0.2277     3.7888     3.7888    -0.0000
 15 N      7.4409     7.0000    -0.4409     3.3729     3.3729     0.0000
 16 C      5.7709     6.0000     0.2291     3.7769     3.7769    -0.0000
 17 C      6.1225     6.0000    -0.1225     3.9755     3.9755    -0.0000
 18 C      6.1882     6.0000    -0.1882     3.7645     3.7645     0.0000
 19 C      5.7800     6.0000     0.2200     3.8660     3.8660     0.0000
 20 C      5.7870     6.0000     0.2130     3.8292     3.8292    -0.0000
 21 C      6.0801     6.0000    -0.0801     3.8569     3.8569    -0.0000
 22 C      6.0913     6.0000    -0.0913     3.9829     3.9829     0.0000
 23 C      6.0398     6.0000    -0.0398     3.9926     3.9926     0.0000
 24 C      5.8063     6.0000     0.1937     3.8213     3.8213    -0.0000
 25 C      5.8853     6.0000     0.1147     3.8918     3.8918     0.0000
 26 C      6.0876     6.0000    -0.0876     3.9109     3.9109    -0.0000
 27 C      5.7860     6.0000     0.2140     3.8624     3.8624    -0.0000
 28 C      6.0615     6.0000    -0.0615     3.9887     3.9887    -0.0000
 29 C      6.1811     6.0000    -0.1811     3.7452     3.7452    -0.0000
 30 C      5.7541     6.0000     0.2459     3.8007     3.8007    -0.0000
 31 C      5.7709     6.0000     0.2291     3.8176     3.8176    -0.0000
 32 C      6.0620     6.0000    -0.0620     3.9228     3.9228     0.0000
 33 C      6.0612     6.0000    -0.0612     3.9721     3.9721    -0.0000
 34 C      6.0513     6.0000    -0.0513     3.9839     3.9839     0.0000
 35 C      5.7724     6.0000     0.2276     3.8170     3.8170    -0.0000
 36 C      5.8915     6.0000     0.1085     3.8755     3.8755     0.0000
 37 C      6.0643     6.0000    -0.0643     3.9178     3.9178     0.0000
 38 C      5.7689     6.0000     0.2311     3.8003     3.8003     0.0000
 39 C      6.0576     6.0000    -0.0576     3.9835     3.9835    -0.0000
 40 C      6.1817     6.0000    -0.1817     3.7277     3.7277     0.0000
 41 C      5.7740     6.0000     0.2260     3.8870     3.8870     0.0000
 42 C      5.8023     6.0000     0.1977     3.8257     3.8257    -0.0000
 43 C      6.0723     6.0000    -0.0723     3.9001     3.9001     0.0000
 44 C      6.0892     6.0000    -0.0892     3.9849     3.9849     0.0000
 45 C      6.0611     6.0000    -0.0611     3.9921     3.9921     0.0000
 46 C      5.7884     6.0000     0.2116     3.8283     3.8283    -0.0000
 47 C      5.8847     6.0000     0.1153     3.8927     3.8927     0.0000
 48 C      6.0670     6.0000    -0.0670     3.9094     3.9094    -0.0000
 49 C      5.7614     6.0000     0.2386     3.8935     3.8935    -0.0000
 50 C      6.0466     6.0000    -0.0466     3.9904     3.9904    -0.0000
 51 C      6.1923     6.0000    -0.1923     3.7363     3.7363     0.0000
 52 H      0.9626     1.0000     0.0374     0.9859     0.9859     0.0000
 53 H      1.0174     1.0000    -0.0174     0.9985     0.9985    -0.0000
 54 H      0.9502     1.0000     0.0498     1.0201     1.0201    -0.0000
 55 H      0.9635     1.0000     0.0365     0.9866     0.9866     0.0000
 56 H      0.9504     1.0000     0.0496     0.9695     0.9695     0.0000
 57 H      0.9521     1.0000     0.0479     0.9828     0.9828     0.0000
 58 H      0.9529     1.0000     0.0471     0.9847     0.9847    -0.0000
 59 H      1.0018     1.0000    -0.0018     1.0006     1.0006     0.0000
 60 H      0.9538     1.0000     0.0462     1.0170     1.0170     0.0000
 61 H      0.8288     1.0000     0.1712     1.0421     1.0421    -0.0000
 62 H      0.8247     1.0000     0.1753     1.0436     1.0436    -0.0000
 63 H      0.9450     1.0000     0.0550     0.9853     0.9853    -0.0000
 64 H      1.0154     1.0000    -0.0154     0.9939     0.9939    -0.0000
 65 H      0.9529     1.0000     0.0471     1.0097     1.0097     0.0000
 66 H      0.9445     1.0000     0.0555     0.9855     0.9855    -0.0000
 67 H      0.9378     1.0000     0.0622     0.9719     0.9719    -0.0000
 68 H      0.9429     1.0000     0.0571     0.9868     0.9868    -0.0000
 69 H      0.9438     1.0000     0.0562     0.9828     0.9828     0.0000
 70 H      1.0302     1.0000    -0.0302     0.9939     0.9939    -0.0000
 71 H      0.9555     1.0000     0.0445     1.0059     1.0059    -0.0000
 72 H      0.9293     1.0000     0.0707     0.9836     0.9836    -0.0000
 73 H      1.0081     1.0000    -0.0081     1.0009     1.0009     0.0000
 74 H      0.9402     1.0000     0.0598     1.0100     1.0100     0.0000
 75 H      0.9298     1.0000     0.0702     0.9839     0.9839    -0.0000
 76 H      0.9256     1.0000     0.0744     0.9721     0.9721     0.0000
 77 H      0.9324     1.0000     0.0676     0.9854     0.9854     0.0000
 78 H      0.9331     1.0000     0.0669     0.9854     0.9854    -0.0000
 79 H      1.0166     1.0000    -0.0166     0.9975     0.9975    -0.0000
 80 H      0.9392     1.0000     0.0608     1.0072     1.0072    -0.0000
 81 H      0.9456     1.0000     0.0544     0.9856     0.9856     0.0000
 82 H      1.0247     1.0000    -0.0247     0.9935     0.9935     0.0000
 83 H      0.9578     1.0000     0.0422     1.0083     1.0083     0.0000
 84 H      0.9456     1.0000     0.0544     0.9852     0.9852    -0.0000
 85 H      0.9390     1.0000     0.0610     0.9716     0.9716     0.0000
 86 H      0.9443     1.0000     0.0557     0.9839     0.9839    -0.0000
 87 H      0.9427     1.0000     0.0573     0.9856     0.9856     0.0000
 88 H      1.0146     1.0000    -0.0146     0.9967     0.9967    -0.0000
 89 H      0.9534     1.0000     0.0466     1.0076     1.0076     0.0000

  Mayer bond orders larger than 0.100000
B(  0-C ,  1-N ) :   1.0973 B(  0-C , 17-C ) :   1.7060 B(  0-C , 52-H ) :   0.9654 
B(  1-N ,  8-C ) :   1.0883 B(  1-N , 10-C ) :   0.9771 B(  2-C , 12-C ) :   1.4994 
B(  2-C , 16-C ) :   1.3630 B(  2-C , 53-H ) :   0.9740 B(  3-N , 14-C ) :   1.2204 
B(  3-N , 16-C ) :   1.1854 B(  3-N , 61-H ) :   0.8989 B(  4-C ,  6-C ) :   1.2122 
B(  4-C , 17-C ) :   1.2136 B(  4-C , 18-C ) :   1.4551 B(  5-N , 19-C ) :   1.4548 
B(  5-N , 27-C ) :   1.3753 B(  6-C ,  8-C ) :   1.7147 B(  6-C , 54-H ) :   0.9232 
B(  7-N , 30-C ) :   1.1960 B(  7-N , 38-C ) :   1.1898 B(  7-N , 62-H ) :   0.8969 
B(  8-C , 55-H ) :   0.9652 B(  9-N , 41-C ) :   1.3950 B(  9-N , 49-C ) :   1.4247 
B( 10-C , 56-H ) :   0.9774 B( 10-C , 57-H ) :   0.9822 B( 10-C , 58-H ) :   0.9843 
B( 11-N , 20-C ) :   1.1302 B( 11-N , 24-C ) :   1.1067 B( 11-N , 25-C ) :   0.9605 
B( 12-C , 14-C ) :   1.3564 B( 12-C , 59-H ) :   0.9621 B( 13-N , 31-C ) :   1.1594 
B( 13-N , 35-C ) :   1.1585 B( 13-N , 36-C ) :   0.9421 B( 14-C , 18-C ) :   1.1249 
B( 15-N , 42-C ) :   1.1083 B( 15-N , 46-C ) :   1.1244 B( 15-N , 47-C ) :   0.9611 
B( 16-C , 51-C ) :   1.1698 B( 17-C , 60-H ) :   0.9375 B( 18-C , 19-C ) :   1.1261 
B( 19-C , 21-C ) :   1.2503 B( 20-C , 28-C ) :   1.6293 B( 20-C , 63-H ) :   0.9703 
B( 21-C , 26-C ) :   1.5911 B( 21-C , 64-H ) :   0.9484 B( 22-C , 23-C ) :   1.2885 
B( 22-C , 28-C ) :   1.2635 B( 22-C , 29-C ) :   1.2263 B( 23-C , 24-C ) :   1.6210 
B( 23-C , 65-H ) :   0.9703 B( 24-C , 66-H ) :   0.9695 B( 25-C , 67-H ) :   0.9760 
B( 25-C , 68-H ) :   0.9828 B( 25-C , 69-H ) :   0.9823 B( 26-C , 27-C ) :   1.2532 
B( 26-C , 70-H ) :   0.9692 B( 27-C , 29-C ) :   1.2078 B( 28-C , 71-H ) :   0.9720 
B( 29-C , 30-C ) :   1.2442 B( 30-C , 32-C ) :   1.2809 B( 31-C , 39-C ) :   1.5896 
B( 31-C , 72-H ) :   0.9682 B( 32-C , 37-C ) :   1.5776 B( 32-C , 73-H ) :   0.9786 
B( 33-C , 34-C ) :   1.3054 B( 33-C , 39-C ) :   1.3027 B( 33-C , 40-C ) :   1.1794 
B( 34-C , 35-C ) :   1.5873 B( 34-C , 74-H ) :   0.9697 B( 35-C , 75-H ) :   0.9682 
B( 36-C , 76-H ) :   0.9767 B( 36-C , 77-H ) :   0.9816 B( 36-C , 78-H ) :   0.9823 
B( 37-C , 38-C ) :   1.2868 B( 37-C , 79-H ) :   0.9765 B( 38-C , 40-C ) :   1.2323 
B( 39-C , 80-H ) :   0.9705 B( 40-C , 41-C ) :   1.2496 B( 41-C , 43-C ) :   1.1850 
B( 42-C , 50-C ) :   1.6326 B( 42-C , 81-H ) :   0.9696 B( 43-C , 48-C ) :   1.6678 
B( 43-C , 82-H ) :   0.9722 B( 44-C , 45-C ) :   1.2642 B( 44-C , 50-C ) :   1.2727 
B( 44-C , 51-C ) :   1.2593 B( 45-C , 46-C ) :   1.6341 B( 45-C , 83-H ) :   0.9718 
B( 46-C , 84-H ) :   0.9700 B( 47-C , 85-H ) :   0.9762 B( 47-C , 86-H ) :   0.9829 
B( 47-C , 87-H ) :   0.9824 B( 48-C , 49-C ) :   1.1885 B( 48-C , 88-H ) :   0.9748 
B( 49-C , 51-C ) :   1.2437 B( 50-C , 89-H ) :   0.9709 

-------
TIMINGS
-------

Total SCF time: 0 days 0 hours 30 min 17 sec 

Total time                  ....    1817.084 sec
Sum of individual times     ....    1812.533 sec  ( 99.7%)

Fock matrix formation       ....    1789.234 sec  ( 98.5%)
Diagonalization             ....       6.861 sec  (  0.4%)
Density matrix formation    ....       0.720 sec  (  0.0%)
Population analysis         ....       0.524 sec  (  0.0%)
Initial guess               ....       2.070 sec  (  0.1%)
Orbital Transformation      ....       0.000 sec  (  0.0%)
Orbital Orthonormalization  ....       0.000 sec  (  0.0%)
DIIS solution               ....       3.544 sec  (  0.2%)
SOSCF solution              ....       8.516 sec  (  0.5%)

Maximum memory used throughout the entire SCF-calculation: 302.7 MB


           ************************************************************
           *        Program running with 16 parallel MPI-processes    *
           *              working on a common directory               *
           ************************************************************

------------------------------------------------------------------------------
                                ORCA  MP2 
------------------------------------------------------------------------------

Freezing NCore=104 chemical core electrons

----------
MP2 ENERGY (disk based algorithm)
----------

Dimension of the basis                    ...  918
Memory devoted to MP2                     ... 2000 MB   
Data format for buffers                   ... DOUBLE
Compression type for matrix containers    ... UNCOMPRESSED

-------------------------------
PARTIAL EXCHANGE TRANSFORMATION
-------------------------------

Transformation type                        ... one-operator
Generation of integrals (i,mue|j,nue)      ... ON
Generation of integrals (mue,kappa|nue,tau)... OFF
Generation of integrals (i,mue|a,nue)      ... OFF
Dimension of the basis                     ...  918
Number of internal MOs                     ...  127 (  52- 178)
Pair cutoff                                ... 2.500e-12 Eh
Number of AO pairs in the trafo            ... 421821
Total Number of distinct AO pairs          ... 421821
Memory devoted for trafo                   ... 2000.0 MB 
Max. Number of MO pairs treated together   ...  311      
Number Format for Storage                  ... Double (8 Byte)
Integral package used                      ... LIBINT

Starting integral evaluation:
    ... done with AO integral generation
Closing buffer AOK     (38.34 GB; CompressionRatio= 1.32)
Collecting buffer AOK 
Number of MO pairs included in the trafo   ... 8128
------------------------
SORTING OF (i,mue|j,nue)
------------------------

IBATCH = 1 of  2
IBATCH = 2 of  2
Closing buffer KAO     (51.03 GB; CompressionRatio= 1.00)
Collecting buffer KAO 
N(AO-Batches) Done                         ...  85832515 
N(AO-Batches) Skipped                      ...  82585924 
N(IJ)-pairs Skipped                        ...         0 
TOTAL TIME for half transformation         ...  3505.437 sec
AO-integral generation                     ...   211.386 sec
Half transformation                        ...   373.797 sec
K-integral sorting                         ...  2736.428 sec
Process 10:   Internal MO 132
Process 13:   Internal MO 156
Process  4:   Internal MO  84

Finished integral transformation - now doing MP2 part

OPERATOR COMBINATION   0   0: ij=( 52..178, 52..178)
Process  7:   Internal MO 108
Process  1:   Internal MO  60
Process  0:   Internal MO  54
Process  0:   Internal MO  57
Process  2:   Internal MO  69
Process  1:   Internal MO  63
Process  5:   Internal MO  93
Process  3:   Internal MO  78
Process  8:   Internal MO 117
Process  2:   Internal MO  72
Process  1:   Internal MO  66
Process 11:   Internal MO 141
Process  6:   Internal MO 102
Process  4:   Internal MO  87
Process 14:   Internal MO 165
Process  2:   Internal MO  75
Process  3:   Internal MO  81
Process  9:   Internal MO 126
Process  5:   Internal MO  96
Process  7:   Internal MO 111
Process 12:   Internal MO 150
Process  4:   Internal MO  90
Process 15:   Internal MO 174
Process 10:   Internal MO 135
Process  6:   Internal MO 105
Process  8:   Internal MO 120
Process 13:   Internal MO 159
Process  5:   Internal MO  99
Process  7:   Internal MO 114
Process  9:   Internal MO 129
Process 11:   Internal MO 144
Process 14:   Internal MO 168
Process  8:   Internal MO 123
Process 10:   Internal MO 138
Process 12:   Internal MO 153
Process 15:   Internal MO 177
Process 13:   Internal MO 162
Process 11:   Internal MO 147
Process 14:   Internal MO 171
-----------------------------------------------
 MP2 CORRELATION ENERGY   :     -7.285822604 Eh
-----------------------------------------------


-------
TIMINGS
-------
Total time                : 4047.045 sec
Integral trafo            : 3507.430 sec ( 86.7%)
K(i,j)                    :    6.471 sec (  0.2%)
T(i,j)                    :    0.131 sec (  0.0%)

---------------------------------------
MP2 TOTAL ENERGY:    -2130.842116348 Eh
---------------------------------------

Maximum memory used throughout the entire MP2-calculation: 2275.3 MB

-------------------------   --------------------
FINAL SINGLE POINT ENERGY     -2130.842116347750
-------------------------   --------------------


                            ***************************************
                            *     ORCA property calculations      *
                            ***************************************


  WARNING: The energy has been calculated at the MP2 level but the densities
           used in the property calculations are still SCF densities
           MP2 response densities have not been calculated 
           use %mp2 Density relaxed end
           or  %mp2 Density unrelaxed end

                                    ---------------------
                                    Active property flags
                                    ---------------------
   (+) Dipole Moment


------------------------------------------------------------------------------
                       ORCA ELECTRIC PROPERTIES CALCULATION
------------------------------------------------------------------------------

Dipole Moment Calculation                       ... on
Quadrupole Moment Calculation                   ... off
Polarizability Calculation                      ... off
GBWName                                         ... /scratch/allen/tmpyp4_amber_gaff2/conf1/conf1/Conf23.orca.gbw
Electron density                                ... /scratch/allen/tmpyp4_amber_gaff2/conf1/conf1/Conf23.orca.scfp
The origin for moment calculation is the CENTER OF MASS  = (-0.000818, -0.004701  0.002996)

-------------
DIPOLE MOMENT
-------------
                                X             Y             Z
Electronic contribution:      2.77065      -4.07764      -0.10652
Nuclear contribution   :     -0.04737       0.15426       0.12369
                        -----------------------------------------
Total Dipole Moment    :      2.72328      -3.92338       0.01717
                        -----------------------------------------
Magnitude (a.u.)       :      4.77593
Magnitude (Debye)      :     12.13944



--------------------
Rotational spectrum 
--------------------
 
Rotational constants in cm-1:     0.001503     0.001477     0.000760 
Rotational constants in MHz :    45.047471    44.286881    22.791222 

 Dipole components along the rotational axes: 
x,y,z [a.u.] :     3.443149     3.309645     0.021406 
x,y,z [Debye]:     8.751790     8.412448     0.054411 

 

Timings for individual modules:

Sum of individual times         ...     5892.428 sec (=  98.207 min)
GTO integral calculation        ...        3.299 sec (=   0.055 min)   0.1 %
SCF iterations                  ...     1818.163 sec (=  30.303 min)  30.9 %
MP2 module                      ...     4070.967 sec (=  67.849 min)  69.1 %
                             ****ORCA TERMINATED NORMALLY****
TOTAL RUN TIME: 0 days 1 hours 38 minutes 15 seconds 909 msec
# of primitive gaussian functions

