
                                 *****************
                                 * O   R   C   A *
                                 *****************

                                            #,                                       
                                            ###                                      
                                            ####                                     
                                            #####                                    
                                            ######                                   
                                           ########,                                 
                                     ,,################,,,,,                         
                               ,,#################################,,                 
                          ,,##########################################,,             
                       ,#########################################, ''#####,          
                    ,#############################################,,   '####,        
                  ,##################################################,,,,####,       
                ,###########''''           ''''###############################       
              ,#####''   ,,,,##########,,,,          '''####'''          '####       
            ,##' ,,,,###########################,,,                        '##       
           ' ,,###''''                  '''############,,,                           
         ,,##''                                '''############,,,,        ,,,,,,###''
      ,#''                                            '''#######################'''  
     '                                                          ''''####''''         
             ,#######,   #######,   ,#######,      ##                                
            ,#'     '#,  ##    ##  ,#'     '#,    #''#        ######   ,####,        
            ##       ##  ##   ,#'  ##            #'  '#       #        #'  '#        
            ##       ##  #######   ##           ,######,      #####,   #    #        
            '#,     ,#'  ##    ##  '#,     ,#' ,#      #,         ##   #,  ,#        
             '#######'   ##     ##  '#######'  #'      '#     #####' # '####'        



                  #######################################################
                  #                        -***-                        #
                  #          Department of theory and spectroscopy      #
                  #    Directorship and core code : Frank Neese         #
                  #        Max Planck Institute fuer Kohlenforschung    #
                  #                Kaiser Wilhelm Platz 1               #
                  #                 D-45470 Muelheim/Ruhr               #
                  #                      Germany                        #
                  #                                                     #
                  #                  All rights reserved                #
                  #                        -***-                        #
                  #######################################################


                         Program Version 5.0.4 -  RELEASE  -


 With contributions from (in alphabetic order):
   Daniel Aravena         : Magnetic Suceptibility
   Michael Atanasov       : Ab Initio Ligand Field Theory (pilot matlab implementation)
   Alexander A. Auer      : GIAO ZORA, VPT2 properties, NMR spectrum
   Ute Becker             : Parallelization
   Giovanni Bistoni       : ED, misc. LED, open-shell LED, HFLD
   Martin Brehm           : Molecular dynamics
   Dmytro Bykov           : SCF Hessian
   Vijay G. Chilkuri      : MRCI spin determinant printing, contributions to CSF-ICE
   Dipayan Datta          : RHF DLPNO-CCSD density
   Achintya Kumar Dutta   : EOM-CC, STEOM-CC
   Dmitry Ganyushin       : Spin-Orbit,Spin-Spin,Magnetic field MRCI
   Miquel Garcia          : C-PCM and meta-GGA Hessian, CC/C-PCM, Gaussian charge scheme
   Yang Guo               : DLPNO-NEVPT2, F12-NEVPT2, CIM, IAO-localization
   Andreas Hansen         : Spin unrestricted coupled pair/coupled cluster methods
   Benjamin Helmich-Paris : MC-RPA, TRAH-SCF, COSX integrals
   Lee Huntington         : MR-EOM, pCC
   Robert Izsak           : Overlap fitted RIJCOSX, COSX-SCS-MP3, EOM
   Marcus Kettner         : VPT2
   Christian Kollmar      : KDIIS, OOCD, Brueckner-CCSD(T), CCSD density, CASPT2, CASPT2-K
   Simone Kossmann        : Meta GGA functionals, TD-DFT gradient, OOMP2, MP2 Hessian
   Martin Krupicka        : Initial AUTO-CI
   Lucas Lang             : DCDCAS
   Marvin Lechner         : AUTO-CI (C++ implementation), FIC-MRCC
   Dagmar Lenk            : GEPOL surface, SMD
   Dimitrios Liakos       : Extrapolation schemes; Compound Job, initial MDCI parallelization
   Dimitrios Manganas     : Further ROCIS development; embedding schemes
   Dimitrios Pantazis     : SARC Basis sets
   Anastasios Papadopoulos: AUTO-CI, single reference methods and gradients
   Taras Petrenko         : DFT Hessian,TD-DFT gradient, ASA, ECA, R-Raman, ABS, FL, XAS/XES, NRVS
   Peter Pinski           : DLPNO-MP2, DLPNO-MP2 Gradient
   Christoph Reimann      : Effective Core Potentials
   Marius Retegan         : Local ZFS, SOC
   Christoph Riplinger    : Optimizer, TS searches, QM/MM, DLPNO-CCSD(T), (RO)-DLPNO pert. Triples
   Tobias Risthaus        : Range-separated hybrids, TD-DFT gradient, RPA, STAB
   Michael Roemelt        : Original ROCIS implementation
   Masaaki Saitow         : Open-shell DLPNO-CCSD energy and density
   Barbara Sandhoefer     : DKH picture change effects
   Avijit Sen             : IP-ROCIS
   Kantharuban Sivalingam : CASSCF convergence, NEVPT2, FIC-MRCI
   Bernardo de Souza      : ESD, SOC TD-DFT
   Georgi Stoychev        : AutoAux, RI-MP2 NMR, DLPNO-MP2 response
   Willem Van den Heuvel  : Paramagnetic NMR
   Boris Wezisla          : Elementary symmetry handling
   Frank Wennmohs         : Technical directorship


 We gratefully acknowledge several colleagues who have allowed us to
 interface, adapt or use parts of their codes:
   Stefan Grimme, W. Hujo, H. Kruse, P. Pracht,  : VdW corrections, initial TS optimization,
                  C. Bannwarth, S. Ehlert          DFT functionals, gCP, sTDA/sTD-DF
   Ed Valeev, F. Pavosevic, A. Kumar             : LibInt (2-el integral package), F12 methods
   Garnet Chan, S. Sharma, J. Yang, R. Olivares  : DMRG
   Ulf Ekstrom                                   : XCFun DFT Library
   Mihaly Kallay                                 : mrcc  (arbitrary order and MRCC methods)
   Jiri Pittner, Ondrej Demel                    : Mk-CCSD
   Frank Weinhold                                : gennbo (NPA and NBO analysis)
   Christopher J. Cramer and Donald G. Truhlar   : smd solvation model
   Lars Goerigk                                  : TD-DFT with DH, B97 family of functionals
   V. Asgeirsson, H. Jonsson                     : NEB implementation
   FAccTs GmbH                                   : IRC, NEB, NEB-TS, DLPNO-Multilevel, CI-OPT
                                                   MM, QMMM, 2- and 3-layer-ONIOM, Crystal-QMMM,
                                                   LR-CPCM, SF, NACMEs, symmetry and pop. for TD-DFT,
                                                   nearIR, NL-DFT gradient (VV10), updates on ESD,
                                                   ML-optimized integration grids
   S Lehtola, MJT Oliveira, MAL Marques          : LibXC Library
   Liviu Ungur et al                             : ANISO software


 Your calculation uses the libint2 library for the computation of 2-el integrals
 For citations please refer to: http://libint.valeyev.net

 Your ORCA version has been built with support for libXC version: 5.1.0
 For citations please refer to: https://tddft.org/programs/libxc/

 This ORCA versions uses:
   CBLAS   interface :  Fast vector & matrix operations
   LAPACKE interface :  Fast linear algebra routines
   SCALAPACK package :  Parallel linear algebra routines
   Shared memory     :  Shared parallel matrices
   BLAS/LAPACK       :  OpenBLAS 0.3.15  USE64BITINT DYNAMIC_ARCH NO_AFFINITY Sandybridge SINGLE_THREADED
        Core in use  :  Sandybridge
   Copyright (c) 2011-2014, The OpenBLAS Project


================================================================================

----- Orbital basis set information -----
Your calculation utilizes the basis: cc-pVDZ 
       H, B-Ne : Obtained from the ccRepo (grant-hill.group.shef.ac.uk/ccrepo) Feb. 2017
                 T. H. Dunning, Jr., J. Chem. Phys. 90, 1007 (1989)
            He : Obtained from the ccRepo (grant-hill.group.shef.ac.uk/ccrepo) Feb. 2017
                 D. E. Woon, T. H. Dunning, Jr., J. Chem. Phys. 100, 2975 (1994)
  Li-Be, Na-Mg : Obtained from the ccRepo (grant-hill.group.shef.ac.uk/ccrepo) Feb. 2017
                 B. P. Prascher, D. E. Woon, K. A. Peterson, T. H. Dunning, Jr., A. K. Wilson, Theor. Chem. Acc. 128, 69 (2011)
         Al-Ar : Obtained from the ccRepo (grant-hill.group.shef.ac.uk/ccrepo) Feb. 2017
                 D. E. Woon, T. H. Dunning, Jr., J. Chem. Phys. 98, 1358 (1993)
            Ca : Obtained from the Peterson Research Group Website (tyr0.chem.wsu.edu/~kipeters) Feb. 2017
                 J. Koput, K. A. Peterson, J. Phys. Chem. 106, 9595 (2002)
         Sc-Zn : Obtained from the ccRepo (grant-hill.group.shef.ac.uk/ccrepo) Feb. 2017
                 N. B. Balabanov, K. A. Peterson, J. Chem. Phys. 123, 064107 (2005)
                 N. B. Balabanov, K. A. Peterson, J. Chem. Phys. 125, 074110 (2006)
         Ga-Kr : Obtained from the ccRepo (grant-hill.group.shef.ac.uk/ccrepo) Feb. 2017
                 A. K. Wilson, D. E. Woon, K. A. Peterson, T. H. Dunning, Jr., J. Chem. Phys. 110, 7667 (1999)

================================================================================
                                        WARNINGS
                       Please study these warnings very carefully!
================================================================================


WARNING: No MP2 level density has been requested!
         To caclulate MP2 level properties use
         %mp2 Density relaxed end
         or
         %mp2 Density unrelaxed end

WARNING: Post HF methods need fully converged wavefunctions
  ===> : Setting SCFConvForced true
         You can overwrite this default with %scf ConvForced false 


INFO   : the flag for use of the SHARK integral package has been found!

================================================================================
                                       INPUT FILE
================================================================================
NAME = /scratch/allen/tmpyp4_amber_gaff2/2.Mdgx/conf11/conf11/Conf328.orca
|  1> ! PAL2
|  2> ! mp2 cc-pvdz TightSCF  NoKeepInts
|  3> 
|  4> %scf
|  5>   MaxCore 2000
|  6> end
|  7> %mp2
|  8>   MaxCore 2000
|  9> end
| 10> * xyz 0 1
| 11>    C       -3.20000         6.36800         0.75000
| 12>    C        1.47400         4.04100         0.05700
| 13>    C       -2.80200         4.09300         0.04900
| 14>    C       -4.03800         4.13500        -0.61400
| 15>    C       -4.80700         5.28100        -0.57600
| 16>    C       -5.21600         7.60000         0.09100
| 17>    C        0.13200         4.30700         0.06100
| 18>    C       -0.56900         3.05600         0.04700
| 19>    C        1.64900         2.61800         0.02300
| 20>    C       -2.39300         5.24600         0.73600
| 21>    N       -4.38700         6.37500         0.10200
| 22>    N        0.38800         2.06700         0.02500
| 23>    N       -2.01000         0.39500        -0.07500
| 24>    N       -0.38800        -2.07400        -0.02700
| 25>    N        2.01000        -0.40100         0.06500
| 26>    C       -1.96000         2.86100         0.02400
| 27>    C       -2.62300         1.61500        -0.01800
| 28>    C       -5.57300        -4.32900         1.06600
| 29>    C       -4.07300         1.47100         0.05600
| 30>    C       -4.10600        -2.75600        -0.02600
| 31>    C       -4.99500        -2.75700        -1.11100
| 32>    C       -6.13200        -3.54200        -1.07600
| 33>    C       -7.65100        -5.11300         0.04000
| 34>    C       -4.32400         0.14100         0.03700
| 35>    C       -3.02500        -0.52000        -0.04800
| 36>    C       -4.42200        -3.56600         1.07500
| 37>    N       -6.40700        -4.31300         0.00100
| 38>    C       -2.86700        -1.92200        -0.04000
| 39>    C       -1.65000        -2.62400        -0.02700
| 40>    C        3.56800        -6.14200        -1.04000
| 41>    C       -1.47600        -4.04900        -0.03400
| 42>    C        2.80300        -4.09900        -0.00800
| 43>    C        3.65700        -4.38400         1.06900
| 44>    C        4.42700        -5.53000         1.05900
| 45>    C        5.24500        -7.58800         0.01400
| 46>    C       -0.13400        -4.31500        -0.02200
| 47>    C        0.56800        -3.06400        -0.02700
| 48>    C        2.77500        -5.01200        -1.07400
| 49>    N        4.37600        -6.39100         0.01700
| 50>    C        1.95900        -2.86900        -0.00900
| 51>    C        2.62100        -1.62200         0.00900
| 52>    C        5.54300         4.33900        -1.13000
| 53>    C        4.07000        -1.47900        -0.09400
| 54>    C        4.10400         2.75100        -0.02100
| 55>    C        5.02700         2.72900         1.03600
| 56>    C        6.16600         3.50900         0.97800
| 57>    C        7.61900         5.15300        -0.11500
| 58>    C        4.32100        -0.14800        -0.09200
| 59>    C        3.02500         0.51400         0.01500
| 60>    C        4.38700         3.58200        -1.11500
| 61>    C        2.86600         1.91600         0.01300
| 62>    N        6.41300         4.29600        -0.09500
| 63>    H       -2.93100         7.27500         1.27700
| 64>    H        2.27400         4.76600         0.08100
| 65>    H       -4.40400         3.28000        -1.16900
| 66>    H       -5.76200         5.36400        -1.07800
| 67>    H       -4.97300         8.18700        -0.79800
| 68>    H       -6.26700         7.31300         0.07500
| 69>    H       -5.00000         8.17700         0.99000
| 70>    H       -0.33200         5.28200         0.06900
| 71>    H       -1.45500         5.27200         1.27900
| 72>    H        0.18200         1.07200         0.00500
| 73>    H       -0.18300        -1.08000        -0.02100
| 74>    H       -5.86400        -4.96200         1.89500
| 75>    H       -4.79400         2.27200         0.13900
| 76>    H       -4.80000        -2.16000        -1.99400
| 77>    H       -6.84100        -3.58200        -1.89300
| 78>    H       -8.42800        -4.53600         0.54600
| 79>    H       -7.95600        -5.33700        -0.98100
| 80>    H       -7.45600        -6.03700         0.58400
| 81>    H       -5.28700        -0.34400         0.10000
| 82>    H       -3.78000        -3.60100         1.94700
| 83>    H        3.58700        -6.86800        -1.84300
| 84>    H       -2.27600        -4.77400        -0.05000
| 85>    H        3.71400        -3.72400         1.92600
| 86>    H        5.09200        -5.79500         1.87100
| 87>    H        6.20500        -7.32900        -0.43900
| 88>    H        5.39300        -7.91700         1.04200
| 89>    H        4.75900        -8.37300        -0.56400
| 90>    H        0.32900        -5.29000        -0.00800
| 91>    H        2.14600        -4.84200        -1.94000
| 92>    H        5.80800         4.98600        -1.95600
| 93>    H        4.78800        -2.28100        -0.18500
| 94>    H        4.86000         2.11400         1.91200
| 95>    H        6.90100         3.53100         1.77200
| 96>    H        7.38300         6.10900         0.35600
| 97>    H        8.41400         4.65200         0.43500
| 98>    H        7.92100         5.31000        -1.15000
| 99>    H        5.28300         0.33600        -0.17900
|100>    H        3.72000         3.63200        -1.96700
|101> *
|102> 
|103>                          ****END OF INPUT****
================================================================================

                       ****************************
                       * Single Point Calculation *
                       ****************************

---------------------------------
CARTESIAN COORDINATES (ANGSTROEM)
---------------------------------
  C     -3.200000    6.368000    0.750000
  C      1.474000    4.041000    0.057000
  C     -2.802000    4.093000    0.049000
  C     -4.038000    4.135000   -0.614000
  C     -4.807000    5.281000   -0.576000
  C     -5.216000    7.600000    0.091000
  C      0.132000    4.307000    0.061000
  C     -0.569000    3.056000    0.047000
  C      1.649000    2.618000    0.023000
  C     -2.393000    5.246000    0.736000
  N     -4.387000    6.375000    0.102000
  N      0.388000    2.067000    0.025000
  N     -2.010000    0.395000   -0.075000
  N     -0.388000   -2.074000   -0.027000
  N      2.010000   -0.401000    0.065000
  C     -1.960000    2.861000    0.024000
  C     -2.623000    1.615000   -0.018000
  C     -5.573000   -4.329000    1.066000
  C     -4.073000    1.471000    0.056000
  C     -4.106000   -2.756000   -0.026000
  C     -4.995000   -2.757000   -1.111000
  C     -6.132000   -3.542000   -1.076000
  C     -7.651000   -5.113000    0.040000
  C     -4.324000    0.141000    0.037000
  C     -3.025000   -0.520000   -0.048000
  C     -4.422000   -3.566000    1.075000
  N     -6.407000   -4.313000    0.001000
  C     -2.867000   -1.922000   -0.040000
  C     -1.650000   -2.624000   -0.027000
  C      3.568000   -6.142000   -1.040000
  C     -1.476000   -4.049000   -0.034000
  C      2.803000   -4.099000   -0.008000
  C      3.657000   -4.384000    1.069000
  C      4.427000   -5.530000    1.059000
  C      5.245000   -7.588000    0.014000
  C     -0.134000   -4.315000   -0.022000
  C      0.568000   -3.064000   -0.027000
  C      2.775000   -5.012000   -1.074000
  N      4.376000   -6.391000    0.017000
  C      1.959000   -2.869000   -0.009000
  C      2.621000   -1.622000    0.009000
  C      5.543000    4.339000   -1.130000
  C      4.070000   -1.479000   -0.094000
  C      4.104000    2.751000   -0.021000
  C      5.027000    2.729000    1.036000
  C      6.166000    3.509000    0.978000
  C      7.619000    5.153000   -0.115000
  C      4.321000   -0.148000   -0.092000
  C      3.025000    0.514000    0.015000
  C      4.387000    3.582000   -1.115000
  C      2.866000    1.916000    0.013000
  N      6.413000    4.296000   -0.095000
  H     -2.931000    7.275000    1.277000
  H      2.274000    4.766000    0.081000
  H     -4.404000    3.280000   -1.169000
  H     -5.762000    5.364000   -1.078000
  H     -4.973000    8.187000   -0.798000
  H     -6.267000    7.313000    0.075000
  H     -5.000000    8.177000    0.990000
  H     -0.332000    5.282000    0.069000
  H     -1.455000    5.272000    1.279000
  H      0.182000    1.072000    0.005000
  H     -0.183000   -1.080000   -0.021000
  H     -5.864000   -4.962000    1.895000
  H     -4.794000    2.272000    0.139000
  H     -4.800000   -2.160000   -1.994000
  H     -6.841000   -3.582000   -1.893000
  H     -8.428000   -4.536000    0.546000
  H     -7.956000   -5.337000   -0.981000
  H     -7.456000   -6.037000    0.584000
  H     -5.287000   -0.344000    0.100000
  H     -3.780000   -3.601000    1.947000
  H      3.587000   -6.868000   -1.843000
  H     -2.276000   -4.774000   -0.050000
  H      3.714000   -3.724000    1.926000
  H      5.092000   -5.795000    1.871000
  H      6.205000   -7.329000   -0.439000
  H      5.393000   -7.917000    1.042000
  H      4.759000   -8.373000   -0.564000
  H      0.329000   -5.290000   -0.008000
  H      2.146000   -4.842000   -1.940000
  H      5.808000    4.986000   -1.956000
  H      4.788000   -2.281000   -0.185000
  H      4.860000    2.114000    1.912000
  H      6.901000    3.531000    1.772000
  H      7.383000    6.109000    0.356000
  H      8.414000    4.652000    0.435000
  H      7.921000    5.310000   -1.150000
  H      5.283000    0.336000   -0.179000
  H      3.720000    3.632000   -1.967000

----------------------------
CARTESIAN COORDINATES (A.U.)
----------------------------
  NO LB      ZA    FRAG     MASS         X           Y           Z
   0 C     6.0000    0    12.011   -6.047124   12.033776    1.417295
   1 C     6.0000    0    12.011    2.785456    7.636383    0.107714
   2 C     6.0000    0    12.011   -5.295013    7.734649    0.092597
   3 C     6.0000    0    12.011   -7.630714    7.814018   -1.160292
   4 C     6.0000    0    12.011   -9.083914    9.979644   -1.088482
   5 C     6.0000    0    12.011   -9.856812   14.361919    0.171965
   6 C     6.0000    0    12.011    0.249444    8.139050    0.115273
   7 C     6.0000    0    12.011   -1.075254    5.775003    0.088817
   8 C     6.0000    0    12.011    3.116158    4.947303    0.043464
   9 C     6.0000    0    12.011   -4.522115    9.913503    1.390838
  10 N     7.0000    0    14.007   -8.290229   12.047004    0.192752
  11 N     7.0000    0    14.007    0.733214    3.906064    0.047243
  12 N     7.0000    0    14.007   -3.798350    0.746442   -0.141729
  13 N     7.0000    0    14.007   -0.733214   -3.919292   -0.051023
  14 N     7.0000    0    14.007    3.798350   -0.757780    0.122832
  15 C     6.0000    0    12.011   -3.703863    5.406506    0.045353
  16 C     6.0000    0    12.011   -4.956752    3.051908   -0.034015
  17 C     6.0000    0    12.011  -10.531444   -8.180624    2.014448
  18 C     6.0000    0    12.011   -7.696855    2.779787    0.105825
  19 C     6.0000    0    12.011   -7.759216   -5.208085   -0.049133
  20 C     6.0000    0    12.011   -9.439182   -5.209975   -2.099486
  21 C     6.0000    0    12.011  -11.587801   -6.693410   -2.033345
  22 C     6.0000    0    12.011  -14.458295   -9.662170    0.075589
  23 C     6.0000    0    12.011   -8.171176    0.266451    0.069920
  24 C     6.0000    0    12.011   -5.716422   -0.982658   -0.090707
  25 C     6.0000    0    12.011   -8.356369   -6.738763    2.031456
  26 N     7.0000    0    14.007  -12.107475   -8.150389    0.001890
  27 C     6.0000    0    12.011   -5.417845   -3.632054   -0.075589
  28 C     6.0000    0    12.011   -3.118048   -4.958641   -0.051023
  29 C     6.0000    0    12.011    6.742543  -11.606698   -1.965315
  30 C     6.0000    0    12.011   -2.789236   -7.651501   -0.064251
  31 C     6.0000    0    12.011    5.296902   -7.745987   -0.015118
  32 C     6.0000    0    12.011    6.910728   -8.284559    2.020117
  33 C     6.0000    0    12.011    8.365818  -10.450186    2.001220
  34 C     6.0000    0    12.011    9.911614  -14.339242    0.026456
  35 C     6.0000    0    12.011   -0.253223   -8.154168   -0.041574
  36 C     6.0000    0    12.011    1.073364   -5.790121   -0.051023
  37 C     6.0000    0    12.011    5.243990   -9.471307   -2.029566
  38 N     7.0000    0    14.007    8.269442  -12.077240    0.032125
  39 C     6.0000    0    12.011    3.701973   -5.421624   -0.017008
  40 C     6.0000    0    12.011    4.952972   -3.065136    0.017008
  41 C     6.0000    0    12.011   10.474752    8.199522   -2.135391
  42 C     6.0000    0    12.011    7.691185   -2.794905   -0.177634
  43 C     6.0000    0    12.011    7.755436    5.198637   -0.039684
  44 C     6.0000    0    12.011    9.499653    5.157063    1.957756
  45 C     6.0000    0    12.011   11.652051    6.631049    1.848152
  46 C     6.0000    0    12.011   14.397823    9.737759   -0.217319
  47 C     6.0000    0    12.011    8.165507   -0.279679   -0.173855
  48 C     6.0000    0    12.011    5.716422    0.971319    0.028346
  49 C     6.0000    0    12.011    8.290229    6.768999   -2.107045
  50 C     6.0000    0    12.011    5.415955    3.620715    0.024566
  51 N     7.0000    0    14.007   12.118814    8.118263   -0.179524
  52 H     1.0000    0     1.008   -5.538787   13.747758    2.413180
  53 H     1.0000    0     1.008    4.297237    9.006435    0.153068
  54 H     1.0000    0     1.008   -8.322354    6.198302   -2.209090
  55 H     1.0000    0     1.008  -10.888602   10.136491   -2.037125
  56 H     1.0000    0     1.008   -9.397608   15.471188   -1.508001
  57 H     1.0000    0     1.008  -11.842914   13.819567    0.141729
  58 H     1.0000    0     1.008   -9.448631   15.452291    1.870829
  59 H     1.0000    0     1.008   -0.627389    9.981533    0.130391
  60 H     1.0000    0     1.008   -2.749552    9.962636    2.416960
  61 H     1.0000    0     1.008    0.343930    2.025786    0.009449
  62 H     1.0000    0     1.008   -0.345820   -2.040904   -0.039684
  63 H     1.0000    0     1.008  -11.081354   -9.376821    3.581031
  64 H     1.0000    0     1.008   -9.059347    4.293458    0.262672
  65 H     1.0000    0     1.008   -9.070685   -4.081808   -3.768114
  66 H     1.0000    0     1.008  -12.927616   -6.768999   -3.577252
  67 H     1.0000    0     1.008  -15.926612   -8.571798    1.031790
  68 H     1.0000    0     1.008  -15.034661  -10.085468   -1.853821
  69 H     1.0000    0     1.008  -14.089798  -11.408277    1.103600
  70 H     1.0000    0     1.008   -9.990982   -0.650066    0.188973
  71 H     1.0000    0     1.008   -7.143165   -6.804904    3.679297
  72 H     1.0000    0     1.008    6.778448  -12.978639   -3.482765
  73 H     1.0000    0     1.008   -4.301017   -9.021553   -0.094486
  74 H     1.0000    0     1.008    7.018443   -7.037340    3.639613
  75 H     1.0000    0     1.008    9.622485  -10.950963    3.535678
  76 H     1.0000    0     1.008   11.725751  -13.849803   -0.829590
  77 H     1.0000    0     1.008   10.191293  -14.960962    1.969095
  78 H     1.0000    0     1.008    8.993207  -15.822677   -1.065806
  79 H     1.0000    0     1.008    0.621720   -9.996651   -0.015118
  80 H     1.0000    0     1.008    4.055352   -9.150054   -3.666069
  81 H     1.0000    0     1.008   10.975529    9.422175   -3.696304
  82 H     1.0000    0     1.008    9.048009   -4.310465   -0.349599
  83 H     1.0000    0     1.008    9.184069    3.994881    3.613156
  84 H     1.0000    0     1.008   13.041000    6.672623    3.348595
  85 H     1.0000    0     1.008   13.951848   11.544337    0.672743
  86 H     1.0000    0     1.008   15.900156    8.791006    0.822031
  87 H     1.0000    0     1.008   14.968521   10.034446   -2.173185
  88 H     1.0000    0     1.008    9.983423    0.634948   -0.338261
  89 H     1.0000    0     1.008    7.029781    6.863485   -3.717091

--------------------------------
INTERNAL COORDINATES (ANGSTROEM)
--------------------------------
 C      0   0   0     0.000000000000     0.00000000     0.00000000
 C      1   0   0     5.267015663542     0.00000000     0.00000000
 C      1   2   0     2.413592757695    53.05958217     0.00000000
 C      3   1   2     1.403220937700    87.92353169   207.11666809
 C      4   3   1     1.380623409913   120.16276153     0.09325067
 C      5   4   3     2.447433553746   152.50901799     1.71427932
 C      2   1   3     1.368114030335    16.91148350     9.76743496
 C      7   2   1     1.434084376876   108.05010202   205.63295221
 C      2   1   3     1.434123425651   123.35230258   341.16107487
 C      1   2   3     1.382146519006    28.58380679    28.31312854
 N      1   2   3     1.352376426887   135.90067185   319.21449370
 N      9   2   1     1.376127174356   106.58526707     7.66917366
 N     12   9   2     2.925062050624   168.53581413   171.12065651
 N     13  12   9     2.954513327098    91.55032014    11.12112580
 N     14  13  12     2.925371258490    88.43092389   359.84326247
 C      8   7   2     1.404790019896   127.24786865   181.11170171
 C     13  12   9     1.366535034311    81.72106996   188.00453233
 C     14  13  12     5.758810554272    80.56209567   166.76250791
 C     17  13  12     1.459010623676   111.08861209   183.82872609
 C     18  14  13     2.412235892279    27.27532823    36.33507194
 C     20  18  14     1.402692767501    87.95206320   148.94598259
 C     21  20  18     1.382106725257   120.14573887   359.70382047
 C     18  14  13     2.446510985056   144.15733107    82.80075377
 C     19  17  13     1.353610726908   106.29293361   359.75308708
 C     13  12   9     1.366813447402   172.21332906    33.46711076
 C     18  14  13     1.380960173213    15.08449437   309.23336894
 N     22  21  20     1.352773077792   120.73759875     0.27865223
 C     25  13  17     1.410897586645   125.60330303   182.37774668
 C     14  13  12     1.376642291955    80.24689249   177.85461986
 C     14  13  12     5.764089607215   164.51507311   312.20821879
 C     29  14  13     1.435600919476   106.58649366   178.76395472
 C     30  14  13     2.413316804732    27.10625047    82.12560436
 C     32  30  14     1.403734305344    87.90059683   149.76154742
 C     33  32  30     1.380694028378   120.14881443   359.74174632
 C     34  33  32     2.448777858443   152.49203239     2.45173620
 C     31  29  14     1.368160809262   108.16950133     0.70383075
 C     14  13  12     1.376239804685   169.26375223   353.09862627
 C     30  14  13     1.380907310430    14.68948582   353.70041132
 N     34  33  32     1.352658863128   120.85575621     0.19603406
 C     37  14  29     1.404717053360   126.01551127   180.90772073
 C     15  14  13     1.366491126938    81.61824056   183.09049352
 C      2   1   3     4.249062720177   148.82324354   145.56213480
 C     41  15  14     1.459677704153   111.05201287   175.08990246
 C     42   2   1     2.412953791518    41.78584867   169.35519572
 C     44  42   2     1.403446472082    87.95153797   233.97558675
 C     45  44  42     1.381696421071   120.11137308     0.19721020
 C     42   2   1     2.450019795838   135.97209175    79.67004482
 C     43  41  15     1.354461516618   106.26758155     0.30894352
 C     15  14  13     1.367461151185   171.87382904   332.35056460
 C     42   2   1     1.381886391857    32.59078432   218.21047491
 C      9   2   1     1.404988612053   126.98745415   188.67351119
 N     42   2   1     1.352765315936   113.57249190   107.40663401
 H      1   2   3     1.082930745708   102.33504540   167.21128491
 H      2   1   3     1.079907866440   110.96908926   168.82198864
 H      4   3   1     1.083054015273   121.07456378   179.59688522
 H      5   4   3     1.082089645085   122.85237238   179.47575301
 H      6   5   4     1.092675157583   104.48504764   100.02117064
 H      6   5   4     1.089599008810    84.69914987   209.46724506
 H      6   5   4     1.089855953785   133.89423519   322.32124031
 H      7   2   1     1.079807853278   126.66122480    25.87136600
 H     10   1   2     1.084144363081   118.72628288    50.07900927
 H     12   9   2     1.016297692608   125.29023241   180.00180175
 H     14  13  12     1.014936943854    44.97226959   359.42596618
 H     18  14  13     1.082871645210   128.03556573   234.20482432
 H     19  17  13     1.080893611786   126.41830519   178.11313280
 H     21  20  18     1.083569563987   121.05669627   180.67006309
 H     22  21  20     1.082483256222   122.73097286   180.59748951
 H     23  18  14     1.092105306278   103.92715769   234.93429879
 H     23  18  14     1.088871893291   134.19244188    12.25587044
 H     23  18  14     1.089833473518    84.85857450   125.45241208
 H     24  19  17     1.080075460327   127.28078426   178.44613241
 H     26  18  14     1.083408048706   118.76995697   244.94906660
 H     30  14  13     1.082703098730   127.99711412   279.66882698
 H     31  29  14     1.079759695488   125.22293469   180.92530585
 H     33  32  30     1.083188810873   121.01964473   180.74284758
 H     34  33  32     1.082494341787   122.70821597   180.59516895
 H     35  34  33     1.092652735319   105.73575241    97.19771933
 H     35  34  33     1.089462711615    84.05943581   206.43036958
 H     35  34  33     1.089268102902   133.08365142   318.50306270
 H     36  31  29     1.079439669458   126.61599965   178.98859863
 H     38  30  73     1.083742127999   118.77264435   359.90091293
 H     42   2   1     1.082178358682   119.31790784   324.03816447
 H     43  41  15     1.080281907652   126.36969097   182.06329380
 H     45  44  42     1.083277434455   121.10105945   179.58025624
 H     46  45  44     1.082194529648   122.72144639   179.46906377
 H     47  42   2     1.091546151109   106.65128841   315.16475048
 H     47  42   2     1.088818625851   132.46019523    94.52397119
 H     47  42   2     1.089531091801    83.63838232   206.04504406
 H     48  43  41     1.080402239909   127.23657387   181.62955349
 H     50  42   2     1.083186502870   118.77001737    94.71359229

---------------------------
INTERNAL COORDINATES (A.U.)
---------------------------
 C      0   0   0     0.000000000000     0.00000000     0.00000000
 C      1   0   0     9.953217147168     0.00000000     0.00000000
 C      1   2   0     4.561029310860    53.05958217     0.00000000
 C      3   1   2     2.651703277637    87.92353169   207.11666809
 C      4   3   1     2.609000138816   120.16276153     0.09325067
 C      5   4   3     4.624979147549   152.50901799     1.71427932
 C      2   1   3     2.585360837309    16.91148350     9.76743496
 C      7   2   1     2.710026725231   108.05010202   205.63295221
 C      2   1   3     2.710100516721   123.35230258   341.16107487
 C      1   2   3     2.611878397874    28.58380679    28.31312854
 N      1   2   3     2.555621076788   135.90067185   319.21449370
 N      9   2   1     2.600503484979   106.58526707     7.66917366
 N     12   9   2     5.527566200405   168.53581413   171.12065651
 N     13  12   9     5.583221047236    91.55032014    11.12112580
 N     14  13  12     5.528150518591    88.43092389   359.84326247
 C      8   7   2     2.654668413270   127.24786865   181.11170171
 C     13  12   9     2.582376967257    81.72106996   188.00453233
 C     14  13  12    10.882574804710    80.56209567   166.76250791
 C     17  13  12     2.757130505230   111.08861209   183.82872609
 C     18  14  13     4.558465206823    27.27532823    36.33507194
 C     20  18  14     2.650705180609    87.95206320   148.94598259
 C     21  20  18     2.611803198586   120.14573887   359.70382047
 C     18  14  13     4.623235745386   144.15733107    82.80075377
 C     19  17  13     2.557953565794   106.29293361   359.75308708
 C     13  12   9     2.582903091751   172.21332906    33.46711076
 C     18  14  13     2.609636529225    15.08449437   309.23336894
 N     22  21  20     2.556370638369   120.73759875     0.27865223
 C     25  13  17     2.666210041769   125.60330303   182.37774668
 C     14  13  12     2.601476916169    80.24689249   177.85461986
 C     14  13  12    10.892550769017   164.51507311   312.20821879
 C     29  14  13     2.712892575415   106.58649366   178.76395472
 C     30  14  13     4.560507835333    27.10625047    82.12560436
 C     32  30  14     2.652673401891    87.90059683   149.76154742
 C     33  32  30     2.609133588376   120.14881443   359.74174632
 C     34  33  32     4.627519515267   152.49203239     2.45173620
 C     31  29  14     2.585449236669   108.16950133     0.70383075
 C     14  13  12     2.600716325456   169.26375223   353.09862627
 C     30  14  13     2.609536633043    14.68948582   353.70041132
 N     34  33  32     2.556154803934   120.85575621     0.19603406
 C     37  14  29     2.654530526499   126.01551127   180.90772073
 C     15  14  13     2.582293994346    81.61824056   183.09049352
 C      2   1   3     8.029564866989   148.82324354   145.56213480
 C     41  15  14     2.758391104639   111.05201287   175.08990246
 C     42   2   1     4.559821839776    41.78584867   169.35519572
 C     44  42   2     2.652129475853    87.95153797   233.97558675
 C     45  44  42     2.611027836043   120.11137308     0.19721020
 C     42   2   1     4.629866436820   135.97209175    79.67004482
 C     43  41  15     2.559561325344   106.26758155     0.30894352
 C     15  14  13     2.584127074516   171.87382904   332.35056460
 C     42   2   1     2.611386828803    32.59078432   218.21047491
 C      9   2   1     2.655043698059   126.98745415   188.67351119
 N     42   2   1     2.556355970587   113.57249190   107.40663401
 H      1   2   3     2.046442531392   102.33504540   167.21128491
 H      2   1   3     2.040730117440   110.96908926   168.82198864
 H      4   3   1     2.046675477111   121.07456378   179.59688522
 H      5   4   3     2.044853081563   122.85237238   179.47575301
 H      6   5   4     2.064856801172   104.48504764   100.02117064
 H      6   5   4     2.059043722443    84.69914987   209.46724506
 H      6   5   4     2.059529278077   133.89423519   322.32124031
 H      7   2   1     2.040541119952   126.66122480    25.87136600
 H     10   1   2     2.048735935857   118.72628288    50.07900927
 H     12   9   2     1.920524309565   125.29023241   180.00180175
 H     14  13  12     1.917952867083    44.97226959   359.42596618
 H     18  14  13     2.046330847636   128.03556573   234.20482432
 H     19  17  13     2.042592906181   126.41830519   178.11313280
 H     21  20  18     2.047649722989   121.05669627   180.67006309
 H     22  21  20     2.045596898814   122.73097286   180.59748951
 H     23  18  14     2.063779938267   103.92715769   234.93429879
 H     23  18  14     2.057669673245   134.19244188    12.25587044
 H     23  18  14     2.059486796529    84.85857450   125.45241208
 H     24  19  17     2.041046823986   127.28078426   178.44613241
 H     26  18  14     2.047344503340   118.76995697   244.94906660
 H     30  14  13     2.046012340948   127.99711412   279.66882698
 H     31  29  14     2.040450114918   125.22293469   180.92530585
 H     33  32  30     2.046930203877   121.01964473   180.74284758
 H     34  33  32     2.045617847496   122.70821597   180.59516895
 H     35  34  33     2.064814429233   105.73575241    97.19771933
 H     35  34  33     2.058786158072    84.05943581   206.43036958
 H     35  34  33     2.058418400901   133.08365142   318.50306270
 H     36  31  29     2.039845353366   126.61599965   178.98859863
 H     38  30  73     2.047975821711   118.77264435   359.90091293
 H     42   2   1     2.045020725966   119.31790784   324.03816447
 H     43  41  15     2.041436952892   126.36969097   182.06329380
 H     45  44  42     2.047097678177   121.10105945   179.58025624
 H     46  45  44     2.045051284662   122.72144639   179.46906377
 H     47  42   2     2.062723288131   106.65128841   315.16475048
 H     47  42   2     2.057569012371   132.46019523    94.52397119
 H     47  42   2     2.058915377895    83.63838232   206.04504406
 H     48  43  41     2.041664347903   127.23657387   181.62955349
 H     50  42   2     2.046925842384   118.77001737    94.71359229

---------------------
BASIS SET INFORMATION
---------------------
There are 3 groups of distinct atoms

 Group   1 Type C   : 17s4p1d contracted to 3s2p1d pattern {881/31/1}
 Group   2 Type N   : 17s4p1d contracted to 3s2p1d pattern {881/31/1}
 Group   3 Type H   : 4s1p contracted to 2s1p pattern {31/1}

Atom   0C    basis set group =>   1
Atom   1N    basis set group =>   2
Atom   2C    basis set group =>   1
Atom   3N    basis set group =>   2
Atom   4C    basis set group =>   1
Atom   5N    basis set group =>   2
Atom   6C    basis set group =>   1
Atom   7N    basis set group =>   2
Atom   8C    basis set group =>   1
Atom   9N    basis set group =>   2
Atom  10C    basis set group =>   1
Atom  11N    basis set group =>   2
Atom  12C    basis set group =>   1
Atom  13N    basis set group =>   2
Atom  14C    basis set group =>   1
Atom  15N    basis set group =>   2
Atom  16C    basis set group =>   1
Atom  17C    basis set group =>   1
Atom  18C    basis set group =>   1
Atom  19C    basis set group =>   1
Atom  20C    basis set group =>   1
Atom  21C    basis set group =>   1
Atom  22C    basis set group =>   1
Atom  23C    basis set group =>   1
Atom  24C    basis set group =>   1
Atom  25C    basis set group =>   1
Atom  26C    basis set group =>   1
Atom  27C    basis set group =>   1
Atom  28C    basis set group =>   1
Atom  29C    basis set group =>   1
Atom  30C    basis set group =>   1
Atom  31C    basis set group =>   1
Atom  32C    basis set group =>   1
Atom  33C    basis set group =>   1
Atom  34C    basis set group =>   1
Atom  35C    basis set group =>   1
Atom  36C    basis set group =>   1
Atom  37C    basis set group =>   1
Atom  38C    basis set group =>   1
Atom  39C    basis set group =>   1
Atom  40C    basis set group =>   1
Atom  41C    basis set group =>   1
Atom  42C    basis set group =>   1
Atom  43C    basis set group =>   1
Atom  44C    basis set group =>   1
Atom  45C    basis set group =>   1
Atom  46C    basis set group =>   1
Atom  47C    basis set group =>   1
Atom  48C    basis set group =>   1
Atom  49C    basis set group =>   1
Atom  50C    basis set group =>   1
Atom  51C    basis set group =>   1
Atom  52H    basis set group =>   3
Atom  53H    basis set group =>   3
Atom  54H    basis set group =>   3
Atom  55H    basis set group =>   3
Atom  56H    basis set group =>   3
Atom  57H    basis set group =>   3
Atom  58H    basis set group =>   3
Atom  59H    basis set group =>   3
Atom  60H    basis set group =>   3
Atom  61H    basis set group =>   3
Atom  62H    basis set group =>   3
Atom  63H    basis set group =>   3
Atom  64H    basis set group =>   3
Atom  65H    basis set group =>   3
Atom  66H    basis set group =>   3
Atom  67H    basis set group =>   3
Atom  68H    basis set group =>   3
Atom  69H    basis set group =>   3
Atom  70H    basis set group =>   3
Atom  71H    basis set group =>   3
Atom  72H    basis set group =>   3
Atom  73H    basis set group =>   3
Atom  74H    basis set group =>   3
Atom  75H    basis set group =>   3
Atom  76H    basis set group =>   3
Atom  77H    basis set group =>   3
Atom  78H    basis set group =>   3
Atom  79H    basis set group =>   3
Atom  80H    basis set group =>   3
Atom  81H    basis set group =>   3
Atom  82H    basis set group =>   3
Atom  83H    basis set group =>   3
Atom  84H    basis set group =>   3
Atom  85H    basis set group =>   3
Atom  86H    basis set group =>   3
Atom  87H    basis set group =>   3
Atom  88H    basis set group =>   3
Atom  89H    basis set group =>   3


           ************************************************************
           *        Program running with 8 parallel MPI-processes     *
           *              working on a common directory               *
           ************************************************************
------------------------------------------------------------------------------
                           ORCA GTO INTEGRAL CALCULATION
------------------------------------------------------------------------------
------------------------------------------------------------------------------
                   ___                                                        
                  /   \      - P O W E R E D   B Y -                         
                 /     \                                                     
                 |  |  |   _    _      __       _____    __    __             
                 |  |  |  | |  | |    /  \     |  _  \  |  |  /  |          
                  \  \/   | |  | |   /    \    | | | |  |  | /  /          
                 / \  \   | |__| |  /  /\  \   | |_| |  |  |/  /          
                |  |  |   |  __  | /  /__\  \  |    /   |      \           
                |  |  |   | |  | | |   __   |  |    \   |  |\   \          
                \     /   | |  | | |  |  |  |  | |\  \  |  | \   \       
                 \___/    |_|  |_| |__|  |__|  |_| \__\ |__|  \__/        
                                                                              
                      - O R C A' S   B I G   F R I E N D -                    
                                      &                                       
                       - I N T E G R A L  F E E D E R -                       
                                                                              
 v1 FN, 2020, v2 2021                                                         
------------------------------------------------------------------------------


Reading SHARK input file /scratch/chu_02/allen/tmpyp4_amber_gaff2/conf1/conf1/Conf328.orca.SHARKINP.tmp ... ok
----------------------
SHARK INTEGRAL PACKAGE
----------------------

Number of atoms                             ...     90
Number of basis functions                   ...   1230
Number of shells                            ...    738
Maximum angular momentum                    ...      2
Integral batch strategy                     ... SHARK/LIBINT Hybrid
RI-J (if used) integral strategy            ... SPLIT-RIJ (Revised 2003 algorithm where possible)
Printlevel                                  ...      1
Contraction scheme used                     ... PARTIAL GENERAL contraction
Coulomb Range Separation                    ... NOT USED
Exchange Range Separation                   ... NOT USED
Finite Nucleus Model                        ... NOT USED
Auxiliary Coulomb fitting basis             ... NOT available
Auxiliary J/K fitting basis                 ... NOT available
Auxiliary Correlation fitting basis         ... NOT available
Auxiliary 'external' fitting basis          ... NOT available
Integral threshold                          ...     2.500000e-11
Primitive cut-off                           ...     2.500000e-12
Primitive pair pre-selection threshold      ...     2.500000e-12

Calculating pre-screening integrals         ... done (  0.1 sec) Dimension = 738
Calculating pre-screening integrals (ORCA)  ... done (  0.3 sec) Dimension = 426
Organizing shell pair data                  ... done (  0.5 sec)
Shell pair information
Total number of shell pairs                 ...    272691
Shell pairs after pre-screening             ...     71641
Total number of primitive shell pairs       ...    422091
Primitive shell pairs kept                  ...     92463
          la=0 lb=0:  29404 shell pairs
          la=1 lb=0:  25994 shell pairs
          la=1 lb=1:   4709 shell pairs
          la=2 lb=0:   7883 shell pairs
          la=2 lb=1:   3122 shell pairs
          la=2 lb=2:    529 shell pairs

Calculating one electron integrals          ... done (  0.2 sec)
Calculating Nuclear repulsion               ... done (  0.0 sec) ENN=   6230.490490999773 Eh

SHARK setup successfully completed in   1.6 seconds

Maximum memory used throughout the entire GTOINT-calculation: 99.0 MB


           ************************************************************
           *        Program running with 8 parallel MPI-processes     *
           *              working on a common directory               *
           ************************************************************
-------------------------------------------------------------------------------
                                 ORCA SCF
-------------------------------------------------------------------------------

------------
SCF SETTINGS
------------
Hamiltonian:
 Ab initio Hamiltonian  Method          .... Hartree-Fock(GTOs)


General Settings:
 Integral files         IntName         .... /scratch/chu_02/allen/tmpyp4_amber_gaff2/conf1/conf1/Conf328.orca
 Hartree-Fock type      HFTyp           .... RHF
 Total Charge           Charge          ....    0
 Multiplicity           Mult            ....    1
 Number of Electrons    NEL             ....  358
 Basis Dimension        Dim             ....  918
 Nuclear Repulsion      ENuc            ....   6230.4904909998 Eh

Convergence Acceleration:
 DIIS                   CNVDIIS         .... on
   Start iteration      DIISMaxIt       ....    12
   Startup error        DIISStart       ....  0.200000
   # of expansion vecs  DIISMaxEq       ....     5
   Bias factor          DIISBfac        ....   1.050
   Max. coefficient     DIISMaxC        ....  10.000
 Trust-Rad. Augm. Hess. CNVTRAH         .... auto
   Auto Start mean grad. ratio tolernc. ....  1.125000
   Auto Start start iteration           ....    20
   Auto Start num. interpolation iter.  ....    10
   Max. Number of Micro iterations      ....    16
   Max. Number of Macro iterations      .... Maxiter - #DIIS iter
   Number of Davidson start vectors     ....     2
   Converg. threshold I  (grad. norm)   ....   1.000e-05
   Converg. threshold II (energy diff.) ....   1.000e-08
   Grad. Scal. Fac. for Micro threshold ....   0.100
   Minimum threshold for Micro iter.    ....   0.010
   NR start threshold (gradient norm)   ....   0.001
   Initial trust radius                 ....   0.400
   Minimum AH scaling param. (alpha)    ....   1.000
   Maximum AH scaling param. (alpha)    .... 1000.000
   Orbital update algorithm             .... Taylor
   White noise on init. David. guess    .... on
   Maximum white noise                  ....   0.010
   Quad. conv. algorithm                .... NR
 SOSCF                  CNVSOSCF        .... on
   Start iteration      SOSCFMaxIt      ....   150
   Startup grad/error   SOSCFStart      ....  0.003300
 Level Shifting         CNVShift        .... on
   Level shift para.    LevelShift      ....    0.2500
   Turn off err/grad.   ShiftErr        ....    0.0010
 Zerner damping         CNVZerner       .... off
 Static damping         CNVDamp         .... on
   Fraction old density DampFac         ....    0.7000
   Max. Damping (<1)    DampMax         ....    0.9800
   Min. Damping (>=0)   DampMin         ....    0.0000
   Turn off err/grad.   DampErr         ....    0.1000
 Fernandez-Rico         CNVRico         .... off

SCF Procedure:
 Maximum # iterations   MaxIter         ....   125
 SCF integral mode      SCFMode         .... Direct
   Integral package                     .... SHARK and LIBINT hybrid scheme
 Reset frequency        DirectResetFreq ....    20
 Integral Threshold     Thresh          ....  2.500e-11 Eh
 Primitive CutOff       TCut            ....  2.500e-12 Eh

Convergence Tolerance:
 Convergence Check Mode ConvCheckMode   .... Total+1el-Energy
 Convergence forced     ConvForced      .... 1
 Energy Change          TolE            ....  1.000e-08 Eh
 1-El. energy change                    ....  1.000e-05 Eh
 Orbital Gradient       TolG            ....  1.000e-05
 Orbital Rotation angle TolX            ....  1.000e-05
 DIIS Error             TolErr          ....  5.000e-07


Diagonalization of the overlap matrix:
Smallest eigenvalue                        ... 2.210e-04
Time for diagonalization                   ...    0.216 sec
Threshold for overlap eigenvalues          ... 1.000e-08
Number of eigenvalues below threshold      ... 0
Time for construction of square roots      ...    0.125 sec
Total time needed                          ...    0.346 sec

Time for model grid setup =    1.344 sec

------------------------------
INITIAL GUESS: MODEL POTENTIAL
------------------------------
Loading Hartree-Fock densities                     ... done
Calculating cut-offs                               ... done
Initializing the effective Hamiltonian             ... done
Setting up the integral package (SHARK)            ... done
Starting the Coulomb interaction                   ... done (   1.6 sec)
Reading the grid                                   ... done
Mapping shells                                     ... done
Starting the XC term evaluation                    ... done (   0.3 sec)
Transforming the Hamiltonian                       ... done (   0.1 sec)
Diagonalizing the Hamiltonian                      ... done (   0.2 sec)
Back transforming the eigenvectors                 ... done (   0.0 sec)
Now organizing SCF variables                       ... done
                      ------------------
                      INITIAL GUESS DONE (   3.7 sec)
                      ------------------
--------------
SCF ITERATIONS
--------------
ITER       Energy         Delta-E        Max-DP      RMS-DP      [F,P]     Damp
               ***  Starting incremental Fock matrix formation  ***
  0  -2121.6947104859   0.000000000000 0.07620717  0.00121336  0.2320944 0.7000
  1  -2122.3491392064  -0.654428720498 0.05725931  0.00098631  0.1437975 0.7000
                               ***Turning on DIIS***
  2  -2122.7561066675  -0.406967461064 0.13315569  0.00224041  0.0802510 0.0000
  3  -2117.9402054797   4.815901187754 0.03049157  0.00066797  0.0438758 0.0000
  4  -2123.4331897110  -5.492984231212 0.00997459  0.00022460  0.0079208 0.0000
  5  -2123.5900394383  -0.156849727300 0.00522385  0.00013207  0.0049846 0.0000
  6  -2123.5735225568   0.016516881473 0.00360687  0.00008492  0.0019723 0.0000
  7  -2123.6712778557  -0.097755298910 0.00306969  0.00006682  0.0015755 0.0000
  8  -2123.6822246671  -0.010946811453 0.00324162  0.00006300  0.0014650 0.0000
  9  -2123.6517002405   0.030524426604 0.00258754  0.00004403  0.0011708 0.0000
 10  -2123.6612339334  -0.009533692892 0.00521453  0.00009149  0.0009047 0.0000
                      *** Initiating the SOSCF procedure ***
                           *** Shutting down DIIS ***
                      *** Re-Reading the Fockian *** 
                      *** Removing any level shift *** 
ITER      Energy       Delta-E        Grad      Rot      Max-DP    RMS-DP
 11  -2123.55205292   0.1091810099  0.000188  0.000188  0.000244  0.000005
               *** Restarting incremental Fock matrix formation ***
 12  -2123.61804335  -0.0659904272  0.000845  0.005963  0.001365  0.000034
 13  -2123.61814381  -0.0001004549  0.001046  0.030498  0.006463  0.000133
 14  -2123.61831820  -0.0001743958  0.000338  0.002035  0.000633  0.000012
 15  -2123.61833390  -0.0000156939  0.000162  0.002906  0.000741  0.000018
 16  -2123.61834333  -0.0000094319  0.000161  0.002947  0.000476  0.000010
 17  -2123.61834632  -0.0000029934  0.000130  0.001960  0.000318  0.000007
 18  -2123.61834793  -0.0000016046  0.000070  0.000759  0.000292  0.000004
 19  -2123.61834863  -0.0000007093  0.000042  0.000572  0.000140  0.000003
 20  -2123.61834887  -0.0000002389  0.000022  0.000390  0.000093  0.000002
 21  -2123.61834899  -0.0000001172  0.000022  0.000385  0.000105  0.000002
 22  -2123.61834907  -0.0000000799  0.000016  0.000360  0.000084  0.000001
 23  -2123.61834912  -0.0000000491  0.000008  0.000254  0.000053  0.000001
 24  -2123.61834915  -0.0000000285  0.000005  0.000196  0.000036  0.000001
 25  -2123.61834916  -0.0000000151  0.000005  0.000147  0.000023  0.000001
 26  -2123.61834917  -0.0000000093  0.000004  0.000164  0.000025  0.000001
 27  -2123.61834918  -0.0000000073  0.000003  0.000146  0.000022  0.000000
                  ***Gradient check signals convergence***
              ***Rediagonalizing the Fockian in SOSCF/NRSCF***

               *****************************************************
               *                     SUCCESS                       *
               *           SCF CONVERGED AFTER  28 CYCLES          *
               *****************************************************


----------------
TOTAL SCF ENERGY
----------------

Total Energy       :        -2123.61834918 Eh          -57786.59309 eV

Components:
Nuclear Repulsion  :         6230.49049100 Eh          169540.26552 eV
Electronic Energy  :        -8354.10884018 Eh         -227326.85862 eV
One Electron Energy:       -15301.79458763 Eh         -416382.99923 eV
Two Electron Energy:         6947.68574745 Eh          189056.14062 eV

Virial components:
Potential Energy   :        -4245.75266252 Eh         -115532.80352 eV
Kinetic Energy     :         2122.13431334 Eh           57746.21043 eV
Virial Ratio       :            2.00069931


---------------
SCF CONVERGENCE
---------------

  Last Energy change         ...   -2.3883e-09  Tolerance :   1.0000e-08
  Last MAX-Density change    ...    1.3529e-05  Tolerance :   1.0000e-07
  Last RMS-Density change    ...    3.2355e-07  Tolerance :   5.0000e-09
  Last Orbital Gradient      ...    2.0937e-06  Tolerance :   1.0000e-05
  Last Orbital Rotation      ...    1.0124e-04  Tolerance :   1.0000e-05

             **** THE GBW FILE WAS UPDATED (/scratch/chu_02/allen/tmpyp4_amber_gaff2/conf1/conf1/Conf328.orca.gbw) ****
             **** DENSITY /scratch/chu_02/allen/tmpyp4_amber_gaff2/conf1/conf1/Conf328.orca.scfp WAS UPDATED ****
             **** ENERGY FILE WAS UPDATED (/scratch/chu_02/allen/tmpyp4_amber_gaff2/conf1/conf1/Conf328.orca.en.tmp) ****
             **** THE GBW FILE WAS UPDATED (/scratch/chu_02/allen/tmpyp4_amber_gaff2/conf1/conf1/Conf328.orca.gbw) ****
             **** DENSITY /scratch/chu_02/allen/tmpyp4_amber_gaff2/conf1/conf1/Conf328.orca.scfp WAS UPDATED ****
----------------
ORBITAL ENERGIES
----------------

  NO   OCC          E(Eh)            E(eV) 
   0   2.0000     -15.671202      -426.4351 
   1   2.0000     -15.637466      -425.5171 
   2   2.0000     -15.628812      -425.2816 
   3   2.0000     -15.591454      -424.2650 
   4   2.0000     -15.524968      -422.4559 
   5   2.0000     -15.515820      -422.2069 
   6   2.0000     -15.451461      -420.4556 
   7   2.0000     -15.443012      -420.2257 
   8   2.0000     -11.322750      -308.1077 
   9   2.0000     -11.322629      -308.1044 
  10   2.0000     -11.320632      -308.0501 
  11   2.0000     -11.301510      -307.5297 
  12   2.0000     -11.296397      -307.3906 
  13   2.0000     -11.295452      -307.3649 
  14   2.0000     -11.290214      -307.2223 
  15   2.0000     -11.288126      -307.1655 
  16   2.0000     -11.284329      -307.0622 
  17   2.0000     -11.274005      -306.7813 
  18   2.0000     -11.273645      -306.7715 
  19   2.0000     -11.257749      -306.3389 
  20   2.0000     -11.257377      -306.3288 
  21   2.0000     -11.256437      -306.3032 
  22   2.0000     -11.254765      -306.2577 
  23   2.0000     -11.241117      -305.8863 
  24   2.0000     -11.233815      -305.6877 
  25   2.0000     -11.233605      -305.6819 
  26   2.0000     -11.233246      -305.6722 
  27   2.0000     -11.227428      -305.5138 
  28   2.0000     -11.227128      -305.5057 
  29   2.0000     -11.210254      -305.0465 
  30   2.0000     -11.208837      -305.0080 
  31   2.0000     -11.201314      -304.8033 
  32   2.0000     -11.195088      -304.6338 
  33   2.0000     -11.194683      -304.6228 
  34   2.0000     -11.189510      -304.4821 
  35   2.0000     -11.189089      -304.4706 
  36   2.0000     -11.187787      -304.4352 
  37   2.0000     -11.183915      -304.3298 
  38   2.0000     -11.182939      -304.3032 
  39   2.0000     -11.174523      -304.0742 
  40   2.0000     -11.172524      -304.0198 
  41   2.0000     -11.168536      -303.9113 
  42   2.0000     -11.168190      -303.9019 
  43   2.0000     -11.162301      -303.7417 
  44   2.0000     -11.160815      -303.7012 
  45   2.0000     -11.158927      -303.6498 
  46   2.0000     -11.157171      -303.6021 
  47   2.0000     -11.152318      -303.4700 
  48   2.0000     -11.147649      -303.3430 
  49   2.0000     -11.140923      -303.1599 
  50   2.0000     -11.134340      -302.9808 
  51   2.0000     -11.126459      -302.7664 
  52   2.0000      -1.353075       -36.8191 
  53   2.0000      -1.324253       -36.0348 
  54   2.0000      -1.316970       -35.8366 
  55   2.0000      -1.285579       -34.9824 
  56   2.0000      -1.225562       -33.3492 
  57   2.0000      -1.210254       -32.9327 
  58   2.0000      -1.170041       -31.8384 
  59   2.0000      -1.153538       -31.3894 
  60   2.0000      -1.137495       -30.9528 
  61   2.0000      -1.112763       -30.2798 
  62   2.0000      -1.106716       -30.1153 
  63   2.0000      -1.081640       -29.4329 
  64   2.0000      -1.075303       -29.2605 
  65   2.0000      -1.048324       -28.5263 
  66   2.0000      -1.041736       -28.3471 
  67   2.0000      -1.037173       -28.2229 
  68   2.0000      -1.014966       -27.6186 
  69   2.0000      -1.013837       -27.5879 
  70   2.0000      -1.009430       -27.4680 
  71   2.0000      -0.993037       -27.0219 
  72   2.0000      -0.987090       -26.8601 
  73   2.0000      -0.979350       -26.6495 
  74   2.0000      -0.972012       -26.4498 
  75   2.0000      -0.959901       -26.1202 
  76   2.0000      -0.952235       -25.9116 
  77   2.0000      -0.946664       -25.7600 
  78   2.0000      -0.935493       -25.4561 
  79   2.0000      -0.919711       -25.0266 
  80   2.0000      -0.904595       -24.6153 
  81   2.0000      -0.893036       -24.3007 
  82   2.0000      -0.875623       -23.8269 
  83   2.0000      -0.871772       -23.7221 
  84   2.0000      -0.867230       -23.5985 
  85   2.0000      -0.855802       -23.2875 
  86   2.0000      -0.840224       -22.8637 
  87   2.0000      -0.837165       -22.7804 
  88   2.0000      -0.823156       -22.3992 
  89   2.0000      -0.798224       -21.7208 
  90   2.0000      -0.792327       -21.5603 
  91   2.0000      -0.748841       -20.3770 
  92   2.0000      -0.739848       -20.1323 
  93   2.0000      -0.733039       -19.9470 
  94   2.0000      -0.724162       -19.7054 
  95   2.0000      -0.720510       -19.6061 
  96   2.0000      -0.715019       -19.4566 
  97   2.0000      -0.708983       -19.2924 
  98   2.0000      -0.704648       -19.1744 
  99   2.0000      -0.696449       -18.9513 
 100   2.0000      -0.695965       -18.9382 
 101   2.0000      -0.683244       -18.5920 
 102   2.0000      -0.679751       -18.4970 
 103   2.0000      -0.678597       -18.4656 
 104   2.0000      -0.675672       -18.3860 
 105   2.0000      -0.671328       -18.2678 
 106   2.0000      -0.667707       -18.1692 
 107   2.0000      -0.661973       -18.0132 
 108   2.0000      -0.655629       -17.8406 
 109   2.0000      -0.653736       -17.7891 
 110   2.0000      -0.649128       -17.6637 
 111   2.0000      -0.643079       -17.4991 
 112   2.0000      -0.641460       -17.4550 
 113   2.0000      -0.639848       -17.4112 
 114   2.0000      -0.636937       -17.3319 
 115   2.0000      -0.626133       -17.0380 
 116   2.0000      -0.624584       -16.9958 
 117   2.0000      -0.616679       -16.7807 
 118   2.0000      -0.615041       -16.7361 
 119   2.0000      -0.613041       -16.6817 
 120   2.0000      -0.609113       -16.5748 
 121   2.0000      -0.605945       -16.4886 
 122   2.0000      -0.599632       -16.3168 
 123   2.0000      -0.586534       -15.9604 
 124   2.0000      -0.583500       -15.8778 
 125   2.0000      -0.581575       -15.8255 
 126   2.0000      -0.578783       -15.7495 
 127   2.0000      -0.577720       -15.7206 
 128   2.0000      -0.565812       -15.3965 
 129   2.0000      -0.558648       -15.2016 
 130   2.0000      -0.551192       -14.9987 
 131   2.0000      -0.547911       -14.9094 
 132   2.0000      -0.543401       -14.7867 
 133   2.0000      -0.539577       -14.6826 
 134   2.0000      -0.539436       -14.6788 
 135   2.0000      -0.534250       -14.5377 
 136   2.0000      -0.526153       -14.3174 
 137   2.0000      -0.523522       -14.2458 
 138   2.0000      -0.518188       -14.1006 
 139   2.0000      -0.512797       -13.9539 
 140   2.0000      -0.512518       -13.9463 
 141   2.0000      -0.510273       -13.8852 
 142   2.0000      -0.510065       -13.8796 
 143   2.0000      -0.503331       -13.6963 
 144   2.0000      -0.500640       -13.6231 
 145   2.0000      -0.496497       -13.5104 
 146   2.0000      -0.494216       -13.4483 
 147   2.0000      -0.484267       -13.1776 
 148   2.0000      -0.480227       -13.0676 
 149   2.0000      -0.467166       -12.7122 
 150   2.0000      -0.465517       -12.6674 
 151   2.0000      -0.457214       -12.4414 
 152   2.0000      -0.449624       -12.2349 
 153   2.0000      -0.446348       -12.1458 
 154   2.0000      -0.442703       -12.0466 
 155   2.0000      -0.437342       -11.9007 
 156   2.0000      -0.429826       -11.6962 
 157   2.0000      -0.424185       -11.5427 
 158   2.0000      -0.404283       -11.0011 
 159   2.0000      -0.386623       -10.5205 
 160   2.0000      -0.382015       -10.3951 
 161   2.0000      -0.378493       -10.2993 
 162   2.0000      -0.371050       -10.0968 
 163   2.0000      -0.359081        -9.7711 
 164   2.0000      -0.353672        -9.6239 
 165   2.0000      -0.339260        -9.2317 
 166   2.0000      -0.337661        -9.1882 
 167   2.0000      -0.327554        -8.9132 
 168   2.0000      -0.325954        -8.8697 
 169   2.0000      -0.304428        -8.2839 
 170   2.0000      -0.299550        -8.1512 
 171   2.0000      -0.286067        -7.7843 
 172   2.0000      -0.282506        -7.6874 
 173   2.0000      -0.261405        -7.1132 
 174   2.0000      -0.244094        -6.6421 
 175   2.0000      -0.189875        -5.1668 
 176   2.0000      -0.180215        -4.9039 
 177   2.0000      -0.074977        -2.0402 
 178   2.0000      -0.058143        -1.5821 
 179   0.0000       0.028519         0.7760 
 180   0.0000       0.066566         1.8113 
 181   0.0000       0.091613         2.4929 
 182   0.0000       0.108721         2.9585 
 183   0.0000       0.111882         3.0445 
 184   0.0000       0.134793         3.6679 
 185   0.0000       0.141272         3.8442 
 186   0.0000       0.145397         3.9565 
 187   0.0000       0.163114         4.4385 
 188   0.0000       0.164205         4.4683 
 189   0.0000       0.167368         4.5543 
 190   0.0000       0.168783         4.5928 
 191   0.0000       0.184870         5.0306 
 192   0.0000       0.186270         5.0687 
 193   0.0000       0.188297         5.1238 
 194   0.0000       0.202897         5.5211 
 195   0.0000       0.206252         5.6124 
 196   0.0000       0.207383         5.6432 
 197   0.0000       0.210445         5.7265 
 198   0.0000       0.220686         6.0052 
 199   0.0000       0.225567         6.1380 
 200   0.0000       0.231810         6.3079 
 201   0.0000       0.237012         6.4494 
 202   0.0000       0.238632         6.4935 
 203   0.0000       0.241213         6.5637 
 204   0.0000       0.248715         6.7679 
 205   0.0000       0.255169         6.9435 
 206   0.0000       0.258118         7.0237 
 207   0.0000       0.258920         7.0456 
 208   0.0000       0.260668         7.0931 
 209   0.0000       0.261464         7.1148 
 210   0.0000       0.262785         7.1508 
 211   0.0000       0.269246         7.3265 
 212   0.0000       0.270067         7.3489 
 213   0.0000       0.271860         7.3977 
 214   0.0000       0.273679         7.4472 
 215   0.0000       0.277288         7.5454 
 216   0.0000       0.279113         7.5950 
 217   0.0000       0.280601         7.6355 
 218   0.0000       0.285506         7.7690 
 219   0.0000       0.288233         7.8432 
 220   0.0000       0.289456         7.8765 
 221   0.0000       0.292927         7.9710 
 222   0.0000       0.294409         8.0113 
 223   0.0000       0.295609         8.0439 
 224   0.0000       0.298152         8.1131 
 225   0.0000       0.299651         8.1539 
 226   0.0000       0.306409         8.3378 
 227   0.0000       0.308377         8.3914 
 228   0.0000       0.309777         8.4295 
 229   0.0000       0.323195         8.7946 
 230   0.0000       0.325798         8.8654 
 231   0.0000       0.330206         8.9854 
 232   0.0000       0.331229         9.0132 
 233   0.0000       0.335659         9.1337 
 234   0.0000       0.348760         9.4902 
 235   0.0000       0.352642         9.5959 
 236   0.0000       0.360924         9.8212 
 237   0.0000       0.378339        10.2951 
 238   0.0000       0.393888        10.7183 
 239   0.0000       0.396649        10.7934 
 240   0.0000       0.400850        10.9077 
 241   0.0000       0.411508        11.1977 
 242   0.0000       0.416450        11.3322 
 243   0.0000       0.419477        11.4145 
 244   0.0000       0.427380        11.6296 
 245   0.0000       0.434582        11.8256 
 246   0.0000       0.437188        11.8965 
 247   0.0000       0.438634        11.9358 
 248   0.0000       0.443329        12.0636 
 249   0.0000       0.449316        12.2265 
 250   0.0000       0.452997        12.3267 
 251   0.0000       0.459184        12.4950 
 252   0.0000       0.465081        12.6555 
 253   0.0000       0.469620        12.7790 
 254   0.0000       0.470914        12.8142 
 255   0.0000       0.473989        12.8979 
 256   0.0000       0.478884        13.0311 
 257   0.0000       0.482070        13.1178 
 258   0.0000       0.486362        13.2346 
 259   0.0000       0.498599        13.5676 
 260   0.0000       0.502605        13.6766 
 261   0.0000       0.504265        13.7218 
 262   0.0000       0.506837        13.7917 
 263   0.0000       0.509387        13.8611 
 264   0.0000       0.514261        13.9937 
 265   0.0000       0.517336        14.0774 
 266   0.0000       0.524159        14.2631 
 267   0.0000       0.527225        14.3465 
 268   0.0000       0.532395        14.4872 
 269   0.0000       0.537844        14.6355 
 270   0.0000       0.540300        14.7023 
 271   0.0000       0.547183        14.8896 
 272   0.0000       0.551748        15.0138 
 273   0.0000       0.557908        15.1815 
 274   0.0000       0.561480        15.2787 
 275   0.0000       0.565588        15.3904 
 276   0.0000       0.568978        15.4827 
 277   0.0000       0.572286        15.5727 
 278   0.0000       0.577467        15.7137 
 279   0.0000       0.586804        15.9678 
 280   0.0000       0.589123        16.0309 
 281   0.0000       0.589970        16.0539 
 282   0.0000       0.593867        16.1599 
 283   0.0000       0.596908        16.2427 
 284   0.0000       0.597925        16.2704 
 285   0.0000       0.599729        16.3195 
 286   0.0000       0.608196        16.5499 
 287   0.0000       0.612418        16.6648 
 288   0.0000       0.613552        16.6956 
 289   0.0000       0.625287        17.0149 
 290   0.0000       0.627135        17.0652 
 291   0.0000       0.628863        17.1122 
 292   0.0000       0.634580        17.2678 
 293   0.0000       0.635343        17.2886 
 294   0.0000       0.646304        17.5868 
 295   0.0000       0.649525        17.6745 
 296   0.0000       0.653685        17.7877 
 297   0.0000       0.656690        17.8694 
 298   0.0000       0.664452        18.0807 
 299   0.0000       0.667322        18.1588 
 300   0.0000       0.669047        18.2057 
 301   0.0000       0.673312        18.3217 
 302   0.0000       0.677125        18.4255 
 303   0.0000       0.678622        18.4662 
 304   0.0000       0.682300        18.5663 
 305   0.0000       0.687249        18.7010 
 306   0.0000       0.688962        18.7476 
 307   0.0000       0.691346        18.8125 
 308   0.0000       0.695572        18.9275 
 309   0.0000       0.697878        18.9902 
 310   0.0000       0.701983        19.1019 
 311   0.0000       0.704010        19.1571 
 312   0.0000       0.707631        19.2556 
 313   0.0000       0.709181        19.2978 
 314   0.0000       0.711502        19.3609 
 315   0.0000       0.713800        19.4235 
 316   0.0000       0.716947        19.5091 
 317   0.0000       0.718792        19.5593 
 318   0.0000       0.722536        19.6612 
 319   0.0000       0.723270        19.6812 
 320   0.0000       0.726564        19.7708 
 321   0.0000       0.730203        19.8698 
 322   0.0000       0.732356        19.9284 
 323   0.0000       0.735112        20.0034 
 324   0.0000       0.737040        20.0559 
 325   0.0000       0.741730        20.1835 
 326   0.0000       0.744324        20.2541 
 327   0.0000       0.745822        20.2949 
 328   0.0000       0.750045        20.4098 
 329   0.0000       0.750754        20.4291 
 330   0.0000       0.752774        20.4840 
 331   0.0000       0.755825        20.5670 
 332   0.0000       0.760820        20.7030 
 333   0.0000       0.761654        20.7257 
 334   0.0000       0.769368        20.9356 
 335   0.0000       0.772943        21.0329 
 336   0.0000       0.773837        21.0572 
 337   0.0000       0.783239        21.3130 
 338   0.0000       0.785357        21.3707 
 339   0.0000       0.786394        21.3989 
 340   0.0000       0.789881        21.4938 
 341   0.0000       0.796007        21.6605 
 342   0.0000       0.796481        21.6734 
 343   0.0000       0.802008        21.8238 
 344   0.0000       0.804067        21.8798 
 345   0.0000       0.807030        21.9604 
 346   0.0000       0.807730        21.9795 
 347   0.0000       0.812086        22.0980 
 348   0.0000       0.815911        22.2021 
 349   0.0000       0.818869        22.2826 
 350   0.0000       0.819088        22.2885 
 351   0.0000       0.820048        22.3146 
 352   0.0000       0.823333        22.4040 
 353   0.0000       0.825467        22.4621 
 354   0.0000       0.829005        22.5584 
 355   0.0000       0.830932        22.6108 
 356   0.0000       0.832564        22.6552 
 357   0.0000       0.835667        22.7396 
 358   0.0000       0.836471        22.7615 
 359   0.0000       0.839313        22.8389 
 360   0.0000       0.841848        22.9078 
 361   0.0000       0.843233        22.9455 
 362   0.0000       0.844252        22.9733 
 363   0.0000       0.846334        23.0299 
 364   0.0000       0.848996        23.1024 
 365   0.0000       0.853993        23.2383 
 366   0.0000       0.857188        23.3253 
 367   0.0000       0.860464        23.4144 
 368   0.0000       0.864134        23.5143 
 369   0.0000       0.865341        23.5471 
 370   0.0000       0.870380        23.6843 
 371   0.0000       0.871362        23.7110 
 372   0.0000       0.873595        23.7717 
 373   0.0000       0.877773        23.8854 
 374   0.0000       0.880880        23.9700 
 375   0.0000       0.882091        24.0029 
 376   0.0000       0.885655        24.0999 
 377   0.0000       0.888061        24.1654 
 378   0.0000       0.891888        24.2695 
 379   0.0000       0.893678        24.3182 
 380   0.0000       0.896844        24.4044 
 381   0.0000       0.899607        24.4796 
 382   0.0000       0.901643        24.5349 
 383   0.0000       0.902889        24.5689 
 384   0.0000       0.903524        24.5861 
 385   0.0000       0.905750        24.6467 
 386   0.0000       0.905950        24.6522 
 387   0.0000       0.908930        24.7332 
 388   0.0000       0.911288        24.7974 
 389   0.0000       0.915395        24.9092 
 390   0.0000       0.921114        25.0648 
 391   0.0000       0.921926        25.0869 
 392   0.0000       0.924788        25.1648 
 393   0.0000       0.927541        25.2397 
 394   0.0000       0.928467        25.2649 
 395   0.0000       0.930150        25.3107 
 396   0.0000       0.931230        25.3400 
 397   0.0000       0.937804        25.5190 
 398   0.0000       0.940926        25.6039 
 399   0.0000       0.942281        25.6408 
 400   0.0000       0.943810        25.6824 
 401   0.0000       0.949787        25.8450 
 402   0.0000       0.953204        25.9380 
 403   0.0000       0.954194        25.9649 
 404   0.0000       0.960695        26.1418 
 405   0.0000       0.962844        26.2003 
 406   0.0000       0.964639        26.2492 
 407   0.0000       0.967406        26.3245 
 408   0.0000       0.968606        26.3571 
 409   0.0000       0.976712        26.5777 
 410   0.0000       0.980507        26.6809 
 411   0.0000       0.983961        26.7749 
 412   0.0000       0.990045        26.9405 
 413   0.0000       0.993229        27.0271 
 414   0.0000       0.996646        27.1201 
 415   0.0000       1.004742        27.3404 
 416   0.0000       1.005039        27.3485 
 417   0.0000       1.009056        27.4578 
 418   0.0000       1.011325        27.5196 
 419   0.0000       1.020887        27.7797 
 420   0.0000       1.025346        27.9011 
 421   0.0000       1.028978        27.9999 
 422   0.0000       1.040766        28.3207 
 423   0.0000       1.043550        28.3964 
 424   0.0000       1.047107        28.4932 
 425   0.0000       1.056205        28.7408 
 426   0.0000       1.059649        28.8345 
 427   0.0000       1.062020        28.8990 
 428   0.0000       1.070474        29.1291 
 429   0.0000       1.074986        29.2519 
 430   0.0000       1.079217        29.3670 
 431   0.0000       1.083423        29.4814 
 432   0.0000       1.086759        29.5722 
 433   0.0000       1.090243        29.6670 
 434   0.0000       1.097097        29.8535 
 435   0.0000       1.104159        30.0457 
 436   0.0000       1.107717        30.1425 
 437   0.0000       1.112611        30.2757 
 438   0.0000       1.113776        30.3074 
 439   0.0000       1.117342        30.4044 
 440   0.0000       1.120615        30.4935 
 441   0.0000       1.123114        30.5615 
 442   0.0000       1.126467        30.6527 
 443   0.0000       1.128909        30.7192 
 444   0.0000       1.131273        30.7835 
 445   0.0000       1.134273        30.8651 
 446   0.0000       1.141969        31.0745 
 447   0.0000       1.145828        31.1796 
 448   0.0000       1.147713        31.2309 
 449   0.0000       1.150598        31.3094 
 450   0.0000       1.151898        31.3447 
 451   0.0000       1.154468        31.4147 
 452   0.0000       1.158585        31.5267 
 453   0.0000       1.162019        31.6201 
 454   0.0000       1.164853        31.6972 
 455   0.0000       1.169569        31.8256 
 456   0.0000       1.174160        31.9505 
 457   0.0000       1.177411        32.0390 
 458   0.0000       1.180591        32.1255 
 459   0.0000       1.186019        32.2732 
 460   0.0000       1.187495        32.3134 
 461   0.0000       1.196906        32.5695 
 462   0.0000       1.201797        32.7026 
 463   0.0000       1.203666        32.7534 
 464   0.0000       1.205188        32.7948 
 465   0.0000       1.208467        32.8841 
 466   0.0000       1.211134        32.9566 
 467   0.0000       1.215772        33.0828 
 468   0.0000       1.220259        33.2049 
 469   0.0000       1.226415        33.3725 
 470   0.0000       1.228794        33.4372 
 471   0.0000       1.233155        33.5559 
 472   0.0000       1.234050        33.5802 
 473   0.0000       1.236019        33.6338 
 474   0.0000       1.242234        33.8029 
 475   0.0000       1.244182        33.8559 
 476   0.0000       1.248744        33.9800 
 477   0.0000       1.251800        34.0632 
 478   0.0000       1.253746        34.1162 
 479   0.0000       1.254347        34.1325 
 480   0.0000       1.257951        34.2306 
 481   0.0000       1.262180        34.3457 
 482   0.0000       1.268870        34.5277 
 483   0.0000       1.272542        34.6276 
 484   0.0000       1.275000        34.6945 
 485   0.0000       1.276534        34.7363 
 486   0.0000       1.279772        34.8244 
 487   0.0000       1.284334        34.9485 
 488   0.0000       1.288607        35.0648 
 489   0.0000       1.291185        35.1349 
 490   0.0000       1.293652        35.2021 
 491   0.0000       1.296377        35.2762 
 492   0.0000       1.300345        35.3842 
 493   0.0000       1.303238        35.4629 
 494   0.0000       1.310853        35.6701 
 495   0.0000       1.313868        35.7522 
 496   0.0000       1.318385        35.8751 
 497   0.0000       1.321860        35.9696 
 498   0.0000       1.325769        36.0760 
 499   0.0000       1.328472        36.1496 
 500   0.0000       1.332682        36.2641 
 501   0.0000       1.335353        36.3368 
 502   0.0000       1.337013        36.3820 
 503   0.0000       1.345190        36.6045 
 504   0.0000       1.347775        36.6748 
 505   0.0000       1.350143        36.7392 
 506   0.0000       1.350820        36.7577 
 507   0.0000       1.356676        36.9170 
 508   0.0000       1.360717        37.0270 
[...]
 76 H s       :     0.886673  s :     0.886673
      pz      :     0.022086  p :     0.079744
      px      :     0.043557
      py      :     0.014100
 77 H s       :     0.885462  s :     0.885462
      pz      :     0.047912  p :     0.079211
      px      :     0.015021
      py      :     0.016278
 78 H s       :     0.885877  s :     0.885877
      pz      :     0.025845  p :     0.079164
      px      :     0.020474
      py      :     0.032845
 79 H s       :     0.910109  s :     0.910109
      pz      :     0.021865  p :     0.086420
      px      :     0.021682
      py      :     0.042873
 80 H s       :     0.865834  s :     0.865834
      pz      :     0.039283  p :     0.084693
      px      :     0.030221
      py      :     0.015190
 81 H s       :     0.887131  s :     0.887131
      pz      :     0.037795  p :     0.084073
      px      :     0.016191
      py      :     0.030087
 82 H s       :     0.916071  s :     0.916071
      pz      :     0.022005  p :     0.086741
      px      :     0.031583
      py      :     0.033154
 83 H s       :     0.873727  s :     0.873727
      pz      :     0.039229  p :     0.084032
      px      :     0.015281
      py      :     0.029522
 84 H s       :     0.887175  s :     0.887175
      pz      :     0.035746  p :     0.083492
      px      :     0.031686
      py      :     0.016060
 85 H s       :     0.893357  s :     0.893357
      pz      :     0.022483  p :     0.079761
      px      :     0.014087
      py      :     0.043192
 86 H s       :     0.891222  s :     0.891222
      pz      :     0.024720  p :     0.078811
      px      :     0.032964
      py      :     0.021127
 87 H s       :     0.890117  s :     0.890117
      pz      :     0.047991  p :     0.078714
      px      :     0.015589
      py      :     0.015135
 88 H s       :     0.911171  s :     0.911171
      pz      :     0.021746  p :     0.087031
      px      :     0.042841
      py      :     0.022444
 89 H s       :     0.871481  s :     0.871481
      pz      :     0.037938  p :     0.083832
      px      :     0.030468
      py      :     0.015426


                      *****************************
                      * MAYER POPULATION ANALYSIS *
                      *****************************

  NA   - Mulliken gross atomic population
  ZA   - Total nuclear charge
  QA   - Mulliken gross atomic charge
  VA   - Mayer's total valence
  BVA  - Mayer's bonded valence
  FA   - Mayer's free valence

  ATOM       NA         ZA         QA         VA         BVA        FA
  0 C      5.7896     6.0000     0.2104     3.8438     3.8438    -0.0000
  1 N      7.4548     7.0000    -0.4548     3.3297     3.3297    -0.0000
  2 C      6.0662     6.0000    -0.0662     3.9211     3.9211    -0.0000
  3 N      7.3367     7.0000    -0.3367     3.4592     3.4592    -0.0000
  4 C      6.0540     6.0000    -0.0540     4.0185     4.0185     0.0000
  5 N      7.5614     7.0000    -0.5614     3.0957     3.0957    -0.0000
  6 C      6.1113     6.0000    -0.1113     4.0019     4.0019    -0.0000
  7 N      7.3402     7.0000    -0.3402     3.4344     3.4344     0.0000
  8 C      5.7957     6.0000     0.2043     3.8386     3.8386    -0.0000
  9 N      7.5627     7.0000    -0.5627     3.0789     3.0789    -0.0000
 10 C      5.8812     6.0000     0.1188     3.9089     3.9089     0.0000
 11 N      7.4378     7.0000    -0.4378     3.3818     3.3818     0.0000
 12 C      6.0804     6.0000    -0.0804     3.9017     3.9017     0.0000
 13 N      7.4314     7.0000    -0.4314     3.4189     3.4189    -0.0000
 14 C      5.7764     6.0000     0.2236     3.7835     3.7835    -0.0000
 15 N      7.4415     7.0000    -0.4415     3.3696     3.3696    -0.0000
 16 C      5.7699     6.0000     0.2301     3.7796     3.7796    -0.0000
 17 C      6.1212     6.0000    -0.1212     4.0026     4.0026     0.0000
 18 C      6.1663     6.0000    -0.1663     3.7588     3.7588    -0.0000
 19 C      5.7907     6.0000     0.2093     3.8632     3.8632     0.0000
 20 C      5.7862     6.0000     0.2138     3.8281     3.8281    -0.0000
 21 C      6.0931     6.0000    -0.0931     3.8965     3.8965     0.0000
 22 C      6.0889     6.0000    -0.0889     3.9819     3.9819    -0.0000
 23 C      6.0413     6.0000    -0.0413     3.9921     3.9921     0.0000
 24 C      5.8032     6.0000     0.1968     3.8216     3.8216     0.0000
 25 C      5.8859     6.0000     0.1141     3.8903     3.8903    -0.0000
 26 C      6.0762     6.0000    -0.0762     3.9058     3.9058    -0.0000
 27 C      5.7876     6.0000     0.2124     3.8650     3.8650    -0.0000
 28 C      6.0598     6.0000    -0.0598     3.9887     3.9887     0.0000
 29 C      6.1809     6.0000    -0.1809     3.7447     3.7447    -0.0000
 30 C      5.7560     6.0000     0.2440     3.7975     3.7975    -0.0000
 31 C      5.7724     6.0000     0.2276     3.8196     3.8196    -0.0000
 32 C      6.0617     6.0000    -0.0617     3.9229     3.9229     0.0000
 33 C      6.0646     6.0000    -0.0646     3.9745     3.9745     0.0000
 34 C      6.0497     6.0000    -0.0497     3.9855     3.9855     0.0000
 35 C      5.7774     6.0000     0.2226     3.8181     3.8181     0.0000
 36 C      5.8906     6.0000     0.1094     3.8780     3.8780     0.0000
 37 C      6.0647     6.0000    -0.0647     3.9175     3.9175     0.0000
 38 C      5.7666     6.0000     0.2334     3.8017     3.8017    -0.0000
 39 C      6.0594     6.0000    -0.0594     3.9846     3.9846    -0.0000
 40 C      6.1819     6.0000    -0.1819     3.7295     3.7295    -0.0000
 41 C      5.7764     6.0000     0.2236     3.8853     3.8853    -0.0000
 42 C      5.8024     6.0000     0.1976     3.8265     3.8265     0.0000
 43 C      6.0729     6.0000    -0.0729     3.9003     3.9003    -0.0000
 44 C      6.0911     6.0000    -0.0911     3.9858     3.9858     0.0000
 45 C      6.0602     6.0000    -0.0602     3.9922     3.9922     0.0000
 46 C      5.7911     6.0000     0.2089     3.8285     3.8285     0.0000
 47 C      5.8843     6.0000     0.1157     3.8939     3.8939     0.0000
 48 C      6.0687     6.0000    -0.0687     3.9085     3.9085     0.0000
 49 C      5.7638     6.0000     0.2362     3.8933     3.8933    -0.0000
 50 C      6.0475     6.0000    -0.0475     3.9906     3.9906     0.0000
 51 C      6.1934     6.0000    -0.1934     3.7366     3.7366     0.0000
 52 H      0.9591     1.0000     0.0409     0.9859     0.9859    -0.0000
 53 H      1.0165     1.0000    -0.0165     0.9985     0.9985     0.0000
 54 H      0.9476     1.0000     0.0524     1.0155     1.0155    -0.0000
 55 H      0.9613     1.0000     0.0387     0.9868     0.9868     0.0000
 56 H      0.9509     1.0000     0.0491     0.9697     0.9697    -0.0000
 57 H      0.9511     1.0000     0.0489     0.9824     0.9824    -0.0000
 58 H      0.9526     1.0000     0.0474     0.9852     0.9852    -0.0000
 59 H      0.9989     1.0000     0.0011     1.0044     1.0044     0.0000
 60 H      0.9496     1.0000     0.0504     1.0123     1.0123     0.0000
 61 H      0.8289     1.0000     0.1711     1.0419     1.0419    -0.0000
 62 H      0.8247     1.0000     0.1753     1.0436     1.0436    -0.0000
 63 H      0.9435     1.0000     0.0565     0.9852     0.9852    -0.0000
 64 H      1.0042     1.0000    -0.0042     0.9972     0.9972     0.0000
 65 H      0.9530     1.0000     0.0470     1.0097     1.0097     0.0000
 66 H      0.9433     1.0000     0.0567     0.9853     0.9853     0.0000
 67 H      0.9367     1.0000     0.0633     0.9720     0.9720    -0.0000
 68 H      0.9422     1.0000     0.0578     0.9868     0.9868     0.0000
 69 H      0.9426     1.0000     0.0574     0.9829     0.9829    -0.0000
 70 H      1.0280     1.0000    -0.0280     0.9931     0.9931     0.0000
 71 H      0.9537     1.0000     0.0463     1.0060     1.0060     0.0000
 72 H      0.9314     1.0000     0.0686     0.9838     0.9838    -0.0000
 73 H      1.0088     1.0000    -0.0088     1.0004     1.0004     0.0000
 74 H      0.9420     1.0000     0.0580     1.0102     1.0102    -0.0000
 75 H      0.9321     1.0000     0.0679     0.9842     0.9842     0.0000
 76 H      0.9274     1.0000     0.0726     0.9721     0.9721     0.0000
 77 H      0.9338     1.0000     0.0662     0.9854     0.9854    -0.0000
 78 H      0.9347     1.0000     0.0653     0.9853     0.9853    -0.0000
 79 H      1.0155     1.0000    -0.0155     0.9980     0.9980    -0.0000
 80 H      0.9415     1.0000     0.0585     1.0071     1.0071     0.0000
 81 H      0.9463     1.0000     0.0537     0.9856     0.9856    -0.0000
 82 H      1.0251     1.0000    -0.0251     0.9934     0.9934    -0.0000
 83 H      0.9589     1.0000     0.0411     1.0085     1.0085    -0.0000
 84 H      0.9469     1.0000     0.0531     0.9853     0.9853     0.0000
 85 H      0.9401     1.0000     0.0599     0.9715     0.9715    -0.0000
 86 H      0.9449     1.0000     0.0551     0.9839     0.9839     0.0000
 87 H      0.9433     1.0000     0.0567     0.9856     0.9856     0.0000
 88 H      1.0157     1.0000    -0.0157     0.9964     0.9964     0.0000
 89 H      0.9537     1.0000     0.0463     1.0071     1.0071     0.0000

  Mayer bond orders larger than 0.100000
B(  0-C ,  1-N ) :   1.0951 B(  0-C , 17-C ) :   1.7016 B(  0-C , 52-H ) :   0.9668 
B(  1-N ,  8-C ) :   1.0837 B(  1-N , 10-C ) :   0.9776 B(  2-C , 12-C ) :   1.5106 
B(  2-C , 16-C ) :   1.3526 B(  2-C , 53-H ) :   0.9761 B(  3-N , 14-C ) :   1.2171 
B(  3-N , 16-C ) :   1.1919 B(  3-N , 61-H ) :   0.8994 B(  4-C ,  6-C ) :   1.2136 
B(  4-C , 17-C ) :   1.2129 B(  4-C , 18-C ) :   1.4233 B(  5-N , 19-C ) :   1.4508 
B(  5-N , 27-C ) :   1.3812 B(  6-C ,  8-C ) :   1.7060 B(  6-C , 54-H ) :   0.9597 
B(  7-N , 30-C ) :   1.1939 B(  7-N , 38-C ) :   1.1932 B(  7-N , 62-H ) :   0.8969 
B(  8-C , 55-H ) :   0.9684 B(  9-N , 41-C ) :   1.3938 B(  9-N , 49-C ) :   1.4271 
B( 10-C , 56-H ) :   0.9767 B( 10-C , 57-H ) :   0.9831 B( 10-C , 58-H ) :   0.9835 
B( 11-N , 20-C ) :   1.1316 B( 11-N , 24-C ) :   1.1115 B( 11-N , 25-C ) :   0.9588 
B( 12-C , 14-C ) :   1.3539 B( 12-C , 59-H ) :   0.9745 B( 13-N , 31-C ) :   1.1555 
B( 13-N , 35-C ) :   1.1501 B( 13-N , 36-C ) :   0.9449 B( 14-C , 18-C ) :   1.1355 
B( 15-N , 42-C ) :   1.1073 B( 15-N , 46-C ) :   1.1206 B( 15-N , 47-C ) :   0.9624 
B( 16-C , 51-C ) :   1.1741 B( 17-C , 60-H ) :   0.9599 B( 18-C , 19-C ) :   1.1387 
B( 19-C , 21-C ) :   1.2412 B( 20-C , 28-C ) :   1.6255 B( 20-C , 63-H ) :   0.9702 
B( 21-C , 26-C ) :   1.6154 B( 21-C , 64-H ) :   0.9716 B( 22-C , 23-C ) :   1.2906 
B( 22-C , 28-C ) :   1.2678 B( 22-C , 29-C ) :   1.2206 B( 23-C , 24-C ) :   1.6173 
B( 23-C , 65-H ) :   0.9705 B( 24-C , 66-H ) :   0.9694 B( 25-C , 67-H ) :   0.9760 
B( 25-C , 68-H ) :   0.9828 B( 25-C , 69-H ) :   0.9822 B( 26-C , 27-C ) :   1.2357 
B( 26-C , 70-H ) :   0.9706 B( 27-C , 29-C ) :   1.2154 B( 28-C , 71-H ) :   0.9718 
B( 29-C , 30-C ) :   1.2403 B( 30-C , 32-C ) :   1.2839 B( 31-C , 39-C ) :   1.5962 
B( 31-C , 72-H ) :   0.9684 B( 32-C , 37-C ) :   1.5754 B( 32-C , 73-H ) :   0.9784 
B( 33-C , 34-C ) :   1.3025 B( 33-C , 39-C ) :   1.2961 B( 33-C , 40-C ) :   1.1880 
B( 34-C , 35-C ) :   1.5928 B( 34-C , 74-H ) :   0.9697 B( 35-C , 75-H ) :   0.9684 
B( 36-C , 76-H ) :   0.9767 B( 36-C , 77-H ) :   0.9816 B( 36-C , 78-H ) :   0.9825 
B( 37-C , 38-C ) :   1.2879 B( 37-C , 79-H ) :   0.9768 B( 38-C , 40-C ) :   1.2305 
B( 39-C , 80-H ) :   0.9708 B( 40-C , 41-C ) :   1.2446 B( 41-C , 43-C ) :   1.1919 
B( 42-C , 50-C ) :   1.6358 B( 42-C , 81-H ) :   0.9697 B( 43-C , 48-C ) :   1.6600 
B( 43-C , 82-H ) :   0.9723 B( 44-C , 45-C ) :   1.2627 B( 44-C , 50-C ) :   1.2691 
B( 44-C , 51-C ) :   1.2646 B( 45-C , 46-C ) :   1.6367 B( 45-C , 83-H ) :   0.9718 
B( 46-C , 84-H ) :   0.9701 B( 47-C , 85-H ) :   0.9762 B( 47-C , 86-H ) :   0.9829 
B( 47-C , 87-H ) :   0.9825 B( 48-C , 49-C ) :   1.1952 B( 48-C , 88-H ) :   0.9748 
B( 49-C , 51-C ) :   1.2351 B( 50-C , 89-H ) :   0.9710 

-------
TIMINGS
-------

Total SCF time: 0 days 0 hours 43 min 28 sec 

Total time                  ....    2608.578 sec
Sum of individual times     ....    2605.583 sec  ( 99.9%)

Fock matrix formation       ....    2587.888 sec  ( 99.2%)
Diagonalization             ....       4.760 sec  (  0.2%)
Density matrix formation    ....       0.510 sec  (  0.0%)
Population analysis         ....       0.301 sec  (  0.0%)
Initial guess               ....       2.329 sec  (  0.1%)
Orbital Transformation      ....       0.000 sec  (  0.0%)
Orbital Orthonormalization  ....       0.000 sec  (  0.0%)
DIIS solution               ....       2.578 sec  (  0.1%)
SOSCF solution              ....       5.874 sec  (  0.2%)

Maximum memory used throughout the entire SCF-calculation: 304.2 MB


           ************************************************************
           *        Program running with 8 parallel MPI-processes     *
           *              working on a common directory               *
           ************************************************************

------------------------------------------------------------------------------
                                ORCA  MP2 
------------------------------------------------------------------------------

Freezing NCore=104 chemical core electrons

----------
MP2 ENERGY (disk based algorithm)
----------

Dimension of the basis                    ...  918
Memory devoted to MP2                     ... 7000 MB   
Data format for buffers                   ... DOUBLE
Compression type for matrix containers    ... UNCOMPRESSED

-------------------------------
PARTIAL EXCHANGE TRANSFORMATION
-------------------------------

Transformation type                        ... one-operator
Generation of integrals (i,mue|j,nue)      ... ON
Generation of integrals (mue,kappa|nue,tau)... OFF
Generation of integrals (i,mue|a,nue)      ... OFF
Dimension of the basis                     ...  918
Number of internal MOs                     ...  127 (  52- 178)
Pair cutoff                                ... 2.500e-12 Eh
Number of AO pairs in the trafo            ... 421821
Total Number of distinct AO pairs          ... 421821
Memory devoted for trafo                   ... 7000.0 MB 
Max. Number of MO pairs treated together   ... 1088      
Number Format for Storage                  ... Double (8 Byte)
Integral package used                      ... LIBINT

Starting integral evaluation:
    ... done with AO integral generation
Closing buffer AOK     (38.24 GB; CompressionRatio= 1.33)
Collecting buffer AOK 
Number of MO pairs included in the trafo   ... 8128
------------------------
SORTING OF (i,mue|j,nue)
------------------------

IBATCH = 1 of  1
Closing buffer KAO     (51.03 GB; CompressionRatio= 1.00)
Collecting buffer KAO 
N(AO-Batches) Done                         ... 174544442 
N(AO-Batches) Skipped                      ... 167381070 
N(IJ)-pairs Skipped                        ...         0 
TOTAL TIME for half transformation         ...  1263.590 sec
AO-integral generation                     ...   253.476 sec
Half transformation                        ...   471.719 sec
K-integral sorting                         ...   245.139 sec

Finished integral transformation - now doing MP2 part

OPERATOR COMBINATION   0   0: ij=( 52..178, 52..178)
Process 2:   Internal MO  84
Process 5:   Internal MO 132
Process 0:   Internal MO  54
Process 0:   Internal MO  57
Process 1:   Internal MO  69
Process 0:   Internal MO  60
Process 4:   Internal MO 117
Process 0:   Internal MO  63
Process 1:   Internal MO  72
Process 3:   Internal MO 102
Process 2:   Internal MO  87
Process 0:   Internal MO  66
Process 7:   Internal MO 165
Process 1:   Internal MO  75
Process 6:   Internal MO 150
Process 2:   Internal MO  90
Process 1:   Internal MO  78
Process 5:   Internal MO 135
Process 3:   Internal MO 105
Process 4:   Internal MO 120
Process 1:   Internal MO  81
Process 2:   Internal MO  93
Process 3:   Internal MO 108
Process 2:   Internal MO  96
Process 7:   Internal MO 168
Process 4:   Internal MO 123
Process 6:   Internal MO 153
Process 5:   Internal MO 138
Process 2:   Internal MO  99
Process 3:   Internal MO 111
Process 4:   Internal MO 126
Process 5:   Internal MO 141
Process 3:   Internal MO 114
Process 6:   Internal MO 156
Process 7:   Internal MO 171
Process 4:   Internal MO 129
Process 5:   Internal MO 144
Process 6:   Internal MO 159
Process 7:   Internal MO 174
Process 5:   Internal MO 147
Process 6:   Internal MO 162
Process 7:   Internal MO 177
-----------------------------------------------
 MP2 CORRELATION ENERGY   :     -7.281982692 Eh
-----------------------------------------------


-------
TIMINGS
-------
Total time                : 1421.902 sec
Integral trafo            : 1272.351 sec ( 89.5%)
K(i,j)                    :    9.401 sec (  0.7%)
T(i,j)                    :    0.143 sec (  0.0%)

---------------------------------------
MP2 TOTAL ENERGY:    -2130.900331874 Eh
---------------------------------------

Maximum memory used throughout the entire MP2-calculation: 6735.8 MB

-------------------------   --------------------
FINAL SINGLE POINT ENERGY     -2130.900331873965
-------------------------   --------------------


                            ***************************************
                            *     ORCA property calculations      *
                            ***************************************


  WARNING: The energy has been calculated at the MP2 level but the densities
           used in the property calculations are still SCF densities
           MP2 response densities have not been calculated 
           use %mp2 Density relaxed end
           or  %mp2 Density unrelaxed end

                                    ---------------------
                                    Active property flags
                                    ---------------------
   (+) Dipole Moment


------------------------------------------------------------------------------
                       ORCA ELECTRIC PROPERTIES CALCULATION
------------------------------------------------------------------------------

Dipole Moment Calculation                       ... on
Quadrupole Moment Calculation                   ... off
Polarizability Calculation                      ... off
GBWName                                         ... /scratch/chu_02/allen/tmpyp4_amber_gaff2/conf1/conf1/Conf328.orca.gbw
Electron density                                ... /scratch/chu_02/allen/tmpyp4_amber_gaff2/conf1/conf1/Conf328.orca.scfp
The origin for moment calculation is the CENTER OF MASS  = (-0.001282, -0.004996  0.000347)

-------------
DIPOLE MOMENT
-------------
                                X             Y             Z
Electronic contribution:      2.03901      -3.86434      -0.06463
Nuclear contribution   :     -0.00395       0.18606       0.07420
                        -----------------------------------------
Total Dipole Moment    :      2.03506      -3.67829       0.00957
                        -----------------------------------------
Magnitude (a.u.)       :      4.20373
Magnitude (Debye)      :     10.68503



--------------------
Rotational spectrum 
--------------------
 
Rotational constants in cm-1:     0.001502     0.001476     0.000761 
Rotational constants in MHz :    45.024785    44.245122    22.808197 

 Dipole components along the rotational axes: 
x,y,z [a.u.] :     2.852711    -3.087597     0.011825 
x,y,z [Debye]:     7.251014    -7.848047     0.030056 

 

Timings for individual modules:

Sum of individual times         ...     4035.879 sec (=  67.265 min)
GTO integral calculation        ...        2.750 sec (=   0.046 min)   0.1 %
SCF iterations                  ...     2609.930 sec (=  43.499 min)  64.7 %
MP2 module                      ...     1423.198 sec (=  23.720 min)  35.3 %
                             ****ORCA TERMINATED NORMALLY****
TOTAL RUN TIME: 0 days 1 hours 7 minutes 17 seconds 965 msec
# of primitive gaussian functions

