
                                 *****************
                                 * O   R   C   A *
                                 *****************

                                            #,                                       
                                            ###                                      
                                            ####                                     
                                            #####                                    
                                            ######                                   
                                           ########,                                 
                                     ,,################,,,,,                         
                               ,,#################################,,                 
                          ,,##########################################,,             
                       ,#########################################, ''#####,          
                    ,#############################################,,   '####,        
                  ,##################################################,,,,####,       
                ,###########''''           ''''###############################       
              ,#####''   ,,,,##########,,,,          '''####'''          '####       
            ,##' ,,,,###########################,,,                        '##       
           ' ,,###''''                  '''############,,,                           
         ,,##''                                '''############,,,,        ,,,,,,###''
      ,#''                                            '''#######################'''  
     '                                                          ''''####''''         
             ,#######,   #######,   ,#######,      ##                                
            ,#'     '#,  ##    ##  ,#'     '#,    #''#        ######   ,####,        
            ##       ##  ##   ,#'  ##            #'  '#       #        #'  '#        
            ##       ##  #######   ##           ,######,      #####,   #    #        
            '#,     ,#'  ##    ##  '#,     ,#' ,#      #,         ##   #,  ,#        
             '#######'   ##     ##  '#######'  #'      '#     #####' # '####'        



                  #######################################################
                  #                        -***-                        #
                  #          Department of theory and spectroscopy      #
                  #    Directorship and core code : Frank Neese         #
                  #        Max Planck Institute fuer Kohlenforschung    #
                  #                Kaiser Wilhelm Platz 1               #
                  #                 D-45470 Muelheim/Ruhr               #
                  #                      Germany                        #
                  #                                                     #
                  #                  All rights reserved                #
                  #                        -***-                        #
                  #######################################################


                         Program Version 5.0.4 -  RELEASE  -


 With contributions from (in alphabetic order):
   Daniel Aravena         : Magnetic Suceptibility
   Michael Atanasov       : Ab Initio Ligand Field Theory (pilot matlab implementation)
   Alexander A. Auer      : GIAO ZORA, VPT2 properties, NMR spectrum
   Ute Becker             : Parallelization
   Giovanni Bistoni       : ED, misc. LED, open-shell LED, HFLD
   Martin Brehm           : Molecular dynamics
   Dmytro Bykov           : SCF Hessian
   Vijay G. Chilkuri      : MRCI spin determinant printing, contributions to CSF-ICE
   Dipayan Datta          : RHF DLPNO-CCSD density
   Achintya Kumar Dutta   : EOM-CC, STEOM-CC
   Dmitry Ganyushin       : Spin-Orbit,Spin-Spin,Magnetic field MRCI
   Miquel Garcia          : C-PCM and meta-GGA Hessian, CC/C-PCM, Gaussian charge scheme
   Yang Guo               : DLPNO-NEVPT2, F12-NEVPT2, CIM, IAO-localization
   Andreas Hansen         : Spin unrestricted coupled pair/coupled cluster methods
   Benjamin Helmich-Paris : MC-RPA, TRAH-SCF, COSX integrals
   Lee Huntington         : MR-EOM, pCC
   Robert Izsak           : Overlap fitted RIJCOSX, COSX-SCS-MP3, EOM
   Marcus Kettner         : VPT2
   Christian Kollmar      : KDIIS, OOCD, Brueckner-CCSD(T), CCSD density, CASPT2, CASPT2-K
   Simone Kossmann        : Meta GGA functionals, TD-DFT gradient, OOMP2, MP2 Hessian
   Martin Krupicka        : Initial AUTO-CI
   Lucas Lang             : DCDCAS
   Marvin Lechner         : AUTO-CI (C++ implementation), FIC-MRCC
   Dagmar Lenk            : GEPOL surface, SMD
   Dimitrios Liakos       : Extrapolation schemes; Compound Job, initial MDCI parallelization
   Dimitrios Manganas     : Further ROCIS development; embedding schemes
   Dimitrios Pantazis     : SARC Basis sets
   Anastasios Papadopoulos: AUTO-CI, single reference methods and gradients
   Taras Petrenko         : DFT Hessian,TD-DFT gradient, ASA, ECA, R-Raman, ABS, FL, XAS/XES, NRVS
   Peter Pinski           : DLPNO-MP2, DLPNO-MP2 Gradient
   Christoph Reimann      : Effective Core Potentials
   Marius Retegan         : Local ZFS, SOC
   Christoph Riplinger    : Optimizer, TS searches, QM/MM, DLPNO-CCSD(T), (RO)-DLPNO pert. Triples
   Tobias Risthaus        : Range-separated hybrids, TD-DFT gradient, RPA, STAB
   Michael Roemelt        : Original ROCIS implementation
   Masaaki Saitow         : Open-shell DLPNO-CCSD energy and density
   Barbara Sandhoefer     : DKH picture change effects
   Avijit Sen             : IP-ROCIS
   Kantharuban Sivalingam : CASSCF convergence, NEVPT2, FIC-MRCI
   Bernardo de Souza      : ESD, SOC TD-DFT
   Georgi Stoychev        : AutoAux, RI-MP2 NMR, DLPNO-MP2 response
   Willem Van den Heuvel  : Paramagnetic NMR
   Boris Wezisla          : Elementary symmetry handling
   Frank Wennmohs         : Technical directorship


 We gratefully acknowledge several colleagues who have allowed us to
 interface, adapt or use parts of their codes:
   Stefan Grimme, W. Hujo, H. Kruse, P. Pracht,  : VdW corrections, initial TS optimization,
                  C. Bannwarth, S. Ehlert          DFT functionals, gCP, sTDA/sTD-DF
   Ed Valeev, F. Pavosevic, A. Kumar             : LibInt (2-el integral package), F12 methods
   Garnet Chan, S. Sharma, J. Yang, R. Olivares  : DMRG
   Ulf Ekstrom                                   : XCFun DFT Library
   Mihaly Kallay                                 : mrcc  (arbitrary order and MRCC methods)
   Jiri Pittner, Ondrej Demel                    : Mk-CCSD
   Frank Weinhold                                : gennbo (NPA and NBO analysis)
   Christopher J. Cramer and Donald G. Truhlar   : smd solvation model
   Lars Goerigk                                  : TD-DFT with DH, B97 family of functionals
   V. Asgeirsson, H. Jonsson                     : NEB implementation
   FAccTs GmbH                                   : IRC, NEB, NEB-TS, DLPNO-Multilevel, CI-OPT
                                                   MM, QMMM, 2- and 3-layer-ONIOM, Crystal-QMMM,
                                                   LR-CPCM, SF, NACMEs, symmetry and pop. for TD-DFT,
                                                   nearIR, NL-DFT gradient (VV10), updates on ESD,
                                                   ML-optimized integration grids
   S Lehtola, MJT Oliveira, MAL Marques          : LibXC Library
   Liviu Ungur et al                             : ANISO software


 Your calculation uses the libint2 library for the computation of 2-el integrals
 For citations please refer to: http://libint.valeyev.net

 Your ORCA version has been built with support for libXC version: 5.1.0
 For citations please refer to: https://tddft.org/programs/libxc/

 This ORCA versions uses:
   CBLAS   interface :  Fast vector & matrix operations
   LAPACKE interface :  Fast linear algebra routines
   SCALAPACK package :  Parallel linear algebra routines
   Shared memory     :  Shared parallel matrices
   BLAS/LAPACK       :  OpenBLAS 0.3.15  USE64BITINT DYNAMIC_ARCH NO_AFFINITY Sandybridge SINGLE_THREADED
        Core in use  :  Sandybridge
   Copyright (c) 2011-2014, The OpenBLAS Project


================================================================================

----- Orbital basis set information -----
Your calculation utilizes the basis: cc-pVDZ 
       H, B-Ne : Obtained from the ccRepo (grant-hill.group.shef.ac.uk/ccrepo) Feb. 2017
                 T. H. Dunning, Jr., J. Chem. Phys. 90, 1007 (1989)
            He : Obtained from the ccRepo (grant-hill.group.shef.ac.uk/ccrepo) Feb. 2017
                 D. E. Woon, T. H. Dunning, Jr., J. Chem. Phys. 100, 2975 (1994)
  Li-Be, Na-Mg : Obtained from the ccRepo (grant-hill.group.shef.ac.uk/ccrepo) Feb. 2017
                 B. P. Prascher, D. E. Woon, K. A. Peterson, T. H. Dunning, Jr., A. K. Wilson, Theor. Chem. Acc. 128, 69 (2011)
         Al-Ar : Obtained from the ccRepo (grant-hill.group.shef.ac.uk/ccrepo) Feb. 2017
                 D. E. Woon, T. H. Dunning, Jr., J. Chem. Phys. 98, 1358 (1993)
            Ca : Obtained from the Peterson Research Group Website (tyr0.chem.wsu.edu/~kipeters) Feb. 2017
                 J. Koput, K. A. Peterson, J. Phys. Chem. 106, 9595 (2002)
         Sc-Zn : Obtained from the ccRepo (grant-hill.group.shef.ac.uk/ccrepo) Feb. 2017
                 N. B. Balabanov, K. A. Peterson, J. Chem. Phys. 123, 064107 (2005)
                 N. B. Balabanov, K. A. Peterson, J. Chem. Phys. 125, 074110 (2006)
         Ga-Kr : Obtained from the ccRepo (grant-hill.group.shef.ac.uk/ccrepo) Feb. 2017
                 A. K. Wilson, D. E. Woon, K. A. Peterson, T. H. Dunning, Jr., J. Chem. Phys. 110, 7667 (1999)

================================================================================
                                        WARNINGS
                       Please study these warnings very carefully!
================================================================================


WARNING: No MP2 level density has been requested!
         To caclulate MP2 level properties use
         %mp2 Density relaxed end
         or
         %mp2 Density unrelaxed end

WARNING: Post HF methods need fully converged wavefunctions
  ===> : Setting SCFConvForced true
         You can overwrite this default with %scf ConvForced false 


INFO   : the flag for use of the SHARK integral package has been found!

================================================================================
                                       INPUT FILE
================================================================================
NAME = /scratch/allen/tmpyp4_amber_gaff2/2.Mdgx/conf11/conf11/Conf274.orca
|  1> ! PAL2
|  2> ! mp2 cc-pvdz TightSCF  NoKeepInts
|  3> 
|  4> %scf
|  5>   MaxCore 2000
|  6> end
|  7> %mp2
|  8>   MaxCore 2000
|  9> end
| 10> * xyz 0 1
| 11>    C       -3.96800         5.83300         1.24800
| 12>    C        1.47400         4.04100         0.05700
| 13>    C       -2.80200         4.09300         0.04900
| 14>    C       -3.25000         4.68500        -1.14200
| 15>    C       -4.03200         5.82100        -1.10100
| 16>    C       -5.19200         7.61700         0.09200
| 17>    C        0.13200         4.30700         0.06100
| 18>    C       -0.56900         3.05600         0.04700
| 19>    C        1.64900         2.61800         0.02300
| 20>    C       -3.17900         4.69900         1.25700
| 21>    N       -4.38400         6.37700         0.08200
| 22>    N        0.38800         2.06700         0.02500
| 23>    N       -2.01000         0.39500        -0.07500
| 24>    N       -0.38800        -2.07400        -0.02700
| 25>    N        2.01000        -0.40100         0.06500
| 26>    C       -1.96000         2.86100         0.02400
| 27>    C       -2.62300         1.61500        -0.01800
| 28>    C       -5.57300        -4.32900         1.06600
| 29>    C       -4.07300         1.47100         0.05600
| 30>    C       -4.10600        -2.75600        -0.02600
| 31>    C       -4.99500        -2.75700        -1.11100
| 32>    C       -6.13200        -3.54200        -1.07600
| 33>    C       -7.65100        -5.11300         0.04000
| 34>    C       -4.32400         0.14100         0.03700
| 35>    C       -3.02500        -0.52000        -0.04800
| 36>    C       -4.42200        -3.56600         1.07500
| 37>    N       -6.40700        -4.31300         0.00100
| 38>    C       -2.86700        -1.92200        -0.04000
| 39>    C       -1.65000        -2.62400        -0.02700
| 40>    C        3.56800        -6.14200        -1.04000
| 41>    C       -1.47600        -4.04900        -0.03400
| 42>    C        2.80300        -4.09900        -0.00800
| 43>    C        3.65700        -4.38400         1.06900
| 44>    C        4.42700        -5.53000         1.05900
| 45>    C        5.24500        -7.58800         0.01400
| 46>    C       -0.13400        -4.31500        -0.02200
| 47>    C        0.56800        -3.06400        -0.02700
| 48>    C        2.77500        -5.01200        -1.07400
| 49>    N        4.37600        -6.39100         0.01700
| 50>    C        1.95900        -2.86900        -0.00900
| 51>    C        2.62100        -1.62200         0.00900
| 52>    C        5.54300         4.33900        -1.13000
| 53>    C        4.07000        -1.47900        -0.09400
| 54>    C        4.10400         2.75100        -0.02100
| 55>    C        5.02700         2.72900         1.03600
| 56>    C        6.16600         3.50900         0.97800
| 57>    C        7.61900         5.15300        -0.11500
| 58>    C        4.32100        -0.14800        -0.09200
| 59>    C        3.02500         0.51400         0.01500
| 60>    C        4.38700         3.58200        -1.11500
| 61>    C        2.86600         1.91600         0.01300
| 62>    N        6.41300         4.29600        -0.09500
| 63>    H       -4.29300         6.32600         2.15600
| 64>    H        2.27400         4.76600         0.08100
| 65>    H       -2.98400         4.26900        -2.10700
| 66>    H       -4.39400         6.31800        -1.99200
| 67>    H       -4.52400         8.47700         0.00500
| 68>    H       -5.88300         7.59200        -0.75000
| 69>    H       -5.74600         7.66700         1.02900
| 70>    H       -0.33200         5.28200         0.06900
| 71>    H       -2.87700         4.28200         2.21100
| 72>    H        0.18200         1.07200         0.00500
| 73>    H       -0.18300        -1.08000        -0.02100
| 74>    H       -5.86400        -4.96200         1.89500
| 75>    H       -4.79400         2.27200         0.13900
| 76>    H       -4.80000        -2.16000        -1.99400
| 77>    H       -6.84100        -3.58200        -1.89300
| 78>    H       -8.42800        -4.53600         0.54600
| 79>    H       -7.95600        -5.33700        -0.98100
| 80>    H       -7.45600        -6.03700         0.58400
| 81>    H       -5.28700        -0.34400         0.10000
| 82>    H       -3.78000        -3.60100         1.94700
| 83>    H        3.58700        -6.86800        -1.84300
| 84>    H       -2.27600        -4.77400        -0.05000
| 85>    H        3.71400        -3.72400         1.92600
| 86>    H        5.09200        -5.79500         1.87100
| 87>    H        6.20500        -7.32900        -0.43900
| 88>    H        5.39300        -7.91700         1.04200
| 89>    H        4.75900        -8.37300        -0.56400
| 90>    H        0.32900        -5.29000        -0.00800
| 91>    H        2.14600        -4.84200        -1.94000
| 92>    H        5.80800         4.98600        -1.95600
| 93>    H        4.78800        -2.28100        -0.18500
| 94>    H        4.86000         2.11400         1.91200
| 95>    H        6.90100         3.53100         1.77200
| 96>    H        7.38300         6.10900         0.35600
| 97>    H        8.41400         4.65200         0.43500
| 98>    H        7.92100         5.31000        -1.15000
| 99>    H        5.28300         0.33600        -0.17900
|100>    H        3.72000         3.63200        -1.96700
|101> *
|102> 
|103>                          ****END OF INPUT****
================================================================================

                       ****************************
                       * Single Point Calculation *
                       ****************************

---------------------------------
CARTESIAN COORDINATES (ANGSTROEM)
---------------------------------
  C     -3.968000    5.833000    1.248000
  C      1.474000    4.041000    0.057000
  C     -2.802000    4.093000    0.049000
  C     -3.250000    4.685000   -1.142000
  C     -4.032000    5.821000   -1.101000
  C     -5.192000    7.617000    0.092000
  C      0.132000    4.307000    0.061000
  C     -0.569000    3.056000    0.047000
  C      1.649000    2.618000    0.023000
  C     -3.179000    4.699000    1.257000
  N     -4.384000    6.377000    0.082000
  N      0.388000    2.067000    0.025000
  N     -2.010000    0.395000   -0.075000
  N     -0.388000   -2.074000   -0.027000
  N      2.010000   -0.401000    0.065000
  C     -1.960000    2.861000    0.024000
  C     -2.623000    1.615000   -0.018000
  C     -5.573000   -4.329000    1.066000
  C     -4.073000    1.471000    0.056000
  C     -4.106000   -2.756000   -0.026000
  C     -4.995000   -2.757000   -1.111000
  C     -6.132000   -3.542000   -1.076000
  C     -7.651000   -5.113000    0.040000
  C     -4.324000    0.141000    0.037000
  C     -3.025000   -0.520000   -0.048000
  C     -4.422000   -3.566000    1.075000
  N     -6.407000   -4.313000    0.001000
  C     -2.867000   -1.922000   -0.040000
  C     -1.650000   -2.624000   -0.027000
  C      3.568000   -6.142000   -1.040000
  C     -1.476000   -4.049000   -0.034000
  C      2.803000   -4.099000   -0.008000
  C      3.657000   -4.384000    1.069000
  C      4.427000   -5.530000    1.059000
  C      5.245000   -7.588000    0.014000
  C     -0.134000   -4.315000   -0.022000
  C      0.568000   -3.064000   -0.027000
  C      2.775000   -5.012000   -1.074000
  N      4.376000   -6.391000    0.017000
  C      1.959000   -2.869000   -0.009000
  C      2.621000   -1.622000    0.009000
  C      5.543000    4.339000   -1.130000
  C      4.070000   -1.479000   -0.094000
  C      4.104000    2.751000   -0.021000
  C      5.027000    2.729000    1.036000
  C      6.166000    3.509000    0.978000
  C      7.619000    5.153000   -0.115000
  C      4.321000   -0.148000   -0.092000
  C      3.025000    0.514000    0.015000
  C      4.387000    3.582000   -1.115000
  C      2.866000    1.916000    0.013000
  N      6.413000    4.296000   -0.095000
  H     -4.293000    6.326000    2.156000
  H      2.274000    4.766000    0.081000
  H     -2.984000    4.269000   -2.107000
  H     -4.394000    6.318000   -1.992000
  H     -4.524000    8.477000    0.005000
  H     -5.883000    7.592000   -0.750000
  H     -5.746000    7.667000    1.029000
  H     -0.332000    5.282000    0.069000
  H     -2.877000    4.282000    2.211000
  H      0.182000    1.072000    0.005000
  H     -0.183000   -1.080000   -0.021000
  H     -5.864000   -4.962000    1.895000
  H     -4.794000    2.272000    0.139000
  H     -4.800000   -2.160000   -1.994000
  H     -6.841000   -3.582000   -1.893000
  H     -8.428000   -4.536000    0.546000
  H     -7.956000   -5.337000   -0.981000
  H     -7.456000   -6.037000    0.584000
  H     -5.287000   -0.344000    0.100000
  H     -3.780000   -3.601000    1.947000
  H      3.587000   -6.868000   -1.843000
  H     -2.276000   -4.774000   -0.050000
  H      3.714000   -3.724000    1.926000
  H      5.092000   -5.795000    1.871000
  H      6.205000   -7.329000   -0.439000
  H      5.393000   -7.917000    1.042000
  H      4.759000   -8.373000   -0.564000
  H      0.329000   -5.290000   -0.008000
  H      2.146000   -4.842000   -1.940000
  H      5.808000    4.986000   -1.956000
  H      4.788000   -2.281000   -0.185000
  H      4.860000    2.114000    1.912000
  H      6.901000    3.531000    1.772000
  H      7.383000    6.109000    0.356000
  H      8.414000    4.652000    0.435000
  H      7.921000    5.310000   -1.150000
  H      5.283000    0.336000   -0.179000
  H      3.720000    3.632000   -1.967000

----------------------------
CARTESIAN COORDINATES (A.U.)
----------------------------
  NO LB      ZA    FRAG     MASS         X           Y           Z
   0 C     6.0000    0    12.011   -7.498433   11.022773    2.358378
   1 C     6.0000    0    12.011    2.785456    7.636383    0.107714
   2 C     6.0000    0    12.011   -5.295013    7.734649    0.092597
   3 C     6.0000    0    12.011   -6.141610    8.853367   -2.158067
   4 C     6.0000    0    12.011   -7.619376   11.000096   -2.080588
   5 C     6.0000    0    12.011   -9.811458   14.394044    0.173855
   6 C     6.0000    0    12.011    0.249444    8.139050    0.115273
   7 C     6.0000    0    12.011   -1.075254    5.775003    0.088817
   8 C     6.0000    0    12.011    3.116158    4.947303    0.043464
   9 C     6.0000    0    12.011   -6.007439    8.879823    2.375386
  10 N     7.0000    0    14.007   -8.284559   12.050784    0.154958
  11 N     7.0000    0    14.007    0.733214    3.906064    0.047243
  12 N     7.0000    0    14.007   -3.798350    0.746442   -0.141729
  13 N     7.0000    0    14.007   -0.733214   -3.919292   -0.051023
  14 N     7.0000    0    14.007    3.798350   -0.757780    0.122832
  15 C     6.0000    0    12.011   -3.703863    5.406506    0.045353
  16 C     6.0000    0    12.011   -4.956752    3.051908   -0.034015
  17 C     6.0000    0    12.011  -10.531444   -8.180624    2.014448
  18 C     6.0000    0    12.011   -7.696855    2.779787    0.105825
  19 C     6.0000    0    12.011   -7.759216   -5.208085   -0.049133
  20 C     6.0000    0    12.011   -9.439182   -5.209975   -2.099486
  21 C     6.0000    0    12.011  -11.587801   -6.693410   -2.033345
  22 C     6.0000    0    12.011  -14.458295   -9.662170    0.075589
  23 C     6.0000    0    12.011   -8.171176    0.266451    0.069920
  24 C     6.0000    0    12.011   -5.716422   -0.982658   -0.090707
  25 C     6.0000    0    12.011   -8.356369   -6.738763    2.031456
  26 N     7.0000    0    14.007  -12.107475   -8.150389    0.001890
  27 C     6.0000    0    12.011   -5.417845   -3.632054   -0.075589
  28 C     6.0000    0    12.011   -3.118048   -4.958641   -0.051023
  29 C     6.0000    0    12.011    6.742543  -11.606698   -1.965315
  30 C     6.0000    0    12.011   -2.789236   -7.651501   -0.064251
  31 C     6.0000    0    12.011    5.296902   -7.745987   -0.015118
  32 C     6.0000    0    12.011    6.910728   -8.284559    2.020117
  33 C     6.0000    0    12.011    8.365818  -10.450186    2.001220
  34 C     6.0000    0    12.011    9.911614  -14.339242    0.026456
  35 C     6.0000    0    12.011   -0.253223   -8.154168   -0.041574
  36 C     6.0000    0    12.011    1.073364   -5.790121   -0.051023
  37 C     6.0000    0    12.011    5.243990   -9.471307   -2.029566
  38 N     7.0000    0    14.007    8.269442  -12.077240    0.032125
  39 C     6.0000    0    12.011    3.701973   -5.421624   -0.017008
  40 C     6.0000    0    12.011    4.952972   -3.065136    0.017008
  41 C     6.0000    0    12.011   10.474752    8.199522   -2.135391
  42 C     6.0000    0    12.011    7.691185   -2.794905   -0.177634
  43 C     6.0000    0    12.011    7.755436    5.198637   -0.039684
  44 C     6.0000    0    12.011    9.499653    5.157063    1.957756
  45 C     6.0000    0    12.011   11.652051    6.631049    1.848152
  46 C     6.0000    0    12.011   14.397823    9.737759   -0.217319
  47 C     6.0000    0    12.011    8.165507   -0.279679   -0.173855
  48 C     6.0000    0    12.011    5.716422    0.971319    0.028346
  49 C     6.0000    0    12.011    8.290229    6.768999   -2.107045
  50 C     6.0000    0    12.011    5.415955    3.620715    0.024566
  51 N     7.0000    0    14.007   12.118814    8.118263   -0.179524
  52 H     1.0000    0     1.008   -8.112594   11.954408    4.074250
  53 H     1.0000    0     1.008    4.297237    9.006435    0.153068
  54 H     1.0000    0     1.008   -5.638943    8.067241   -3.981653
  55 H     1.0000    0     1.008   -8.303457   11.939290   -3.764334
  56 H     1.0000    0     1.008   -8.549121   16.019208    0.009449
  57 H     1.0000    0     1.008  -11.117259   14.346801   -1.417295
  58 H     1.0000    0     1.008  -10.858366   14.488530    1.944528
  59 H     1.0000    0     1.008   -0.627389    9.981533    0.130391
  60 H     1.0000    0     1.008   -5.436742    8.091807    4.178184
  61 H     1.0000    0     1.008    0.343930    2.025786    0.009449
  62 H     1.0000    0     1.008   -0.345820   -2.040904   -0.039684
  63 H     1.0000    0     1.008  -11.081354   -9.376821    3.581031
  64 H     1.0000    0     1.008   -9.059347    4.293458    0.262672
  65 H     1.0000    0     1.008   -9.070685   -4.081808   -3.768114
  66 H     1.0000    0     1.008  -12.927616   -6.768999   -3.577252
  67 H     1.0000    0     1.008  -15.926612   -8.571798    1.031790
  68 H     1.0000    0     1.008  -15.034661  -10.085468   -1.853821
  69 H     1.0000    0     1.008  -14.089798  -11.408277    1.103600
  70 H     1.0000    0     1.008   -9.990982   -0.650066    0.188973
  71 H     1.0000    0     1.008   -7.143165   -6.804904    3.679297
  72 H     1.0000    0     1.008    6.778448  -12.978639   -3.482765
  73 H     1.0000    0     1.008   -4.301017   -9.021553   -0.094486
  74 H     1.0000    0     1.008    7.018443   -7.037340    3.639613
  75 H     1.0000    0     1.008    9.622485  -10.950963    3.535678
  76 H     1.0000    0     1.008   11.725751  -13.849803   -0.829590
  77 H     1.0000    0     1.008   10.191293  -14.960962    1.969095
  78 H     1.0000    0     1.008    8.993207  -15.822677   -1.065806
  79 H     1.0000    0     1.008    0.621720   -9.996651   -0.015118
  80 H     1.0000    0     1.008    4.055352   -9.150054   -3.666069
  81 H     1.0000    0     1.008   10.975529    9.422175   -3.696304
  82 H     1.0000    0     1.008    9.048009   -4.310465   -0.349599
  83 H     1.0000    0     1.008    9.184069    3.994881    3.613156
  84 H     1.0000    0     1.008   13.041000    6.672623    3.348595
  85 H     1.0000    0     1.008   13.951848   11.544337    0.672743
  86 H     1.0000    0     1.008   15.900156    8.791006    0.822031
  87 H     1.0000    0     1.008   14.968521   10.034446   -2.173185
  88 H     1.0000    0     1.008    9.983423    0.634948   -0.338261
  89 H     1.0000    0     1.008    7.029781    6.863485   -3.717091

--------------------------------
INTERNAL COORDINATES (ANGSTROEM)
--------------------------------
 C      0   0   0     0.000000000000     0.00000000     0.00000000
 C      1   0   0     5.851932074110     0.00000000     0.00000000
 C      1   2   0     2.413453334954    39.54127608     0.00000000
 C      3   1   2     1.403441840619    87.89455663   249.29070085
 C      4   3   1     1.379746715887   120.19904337     0.12031156
 C      5   4   3     2.448359654953   152.49498068     1.61243972
 C      2   1   3     1.368114030335    13.50922156    25.43938877
 C      7   2   3     1.434084376876   108.05010202     0.84668783
 C      2   1   3     1.434123425651   114.97048604   322.94019734
 C      1   2   3     1.381505700314    38.63449447    48.74855643
 N      1   2   3     1.352238144707   103.52020109   285.94054215
 N      9   2   1     1.376127174356   106.58526707    11.83759315
 N     12   9   2     2.925062050624   168.53581413   171.12065651
 N     13  12   9     2.954513327098    91.55032014    11.12112580
 N     14  13  12     2.925371258490    88.43092389   359.84326247
 C      8   7   2     1.404790019896   127.24786865   181.11170171
 C     13  12   9     1.366535034311    81.72106996   188.00453233
 C     14  13  12     5.758810554272    80.56209567   166.76250791
 C     17  13  12     1.459010623676   111.08861209   183.82872609
 C     18  14  13     2.412235892279    27.27532823    36.33507194
 C     20  18  14     1.402692767501    87.95206320   148.94598259
 C     21  20  18     1.382106725257   120.14573887   359.70382047
 C     18  14  13     2.446510985056   144.15733107    82.80075377
 C     19  17  13     1.353610726908   106.29293361   359.75308708
 C     13  12   9     1.366813447402   172.21332906    33.46711076
 C     18  14  13     1.380960173213    15.08449437   309.23336894
 N     22  21  20     1.352773077792   120.73759875     0.27865223
 C     25  13  17     1.410897586645   125.60330303   182.37774668
 C     14  13  12     1.376642291955    80.24689249   177.85461986
 C     14  13  12     5.764089607215   164.51507311   312.20821879
 C     29  14  13     1.435600919476   106.58649366   178.76395472
 C     30  14  13     2.413316804732    27.10625047    82.12560436
 C     32  30  14     1.403734305344    87.90059683   149.76154742
 C     33  32  30     1.380694028378   120.14881443   359.74174632
 C     34  33  32     2.448777858443   152.49203239     2.45173620
 C     31  29  14     1.368160809262   108.16950133     0.70383075
 C     14  13  12     1.376239804685   169.26375223   353.09862627
 C     30  14  13     1.380907310430    14.68948582   353.70041132
 N     34  33  32     1.352658863128   120.85575621     0.19603406
 C     37  14  29     1.404717053360   126.01551127   180.90772073
 C     15  14  13     1.366491126938    81.61824056   183.09049352
 C      2   1   3     4.249062720177   157.80742471   132.72875304
 C     41  15  14     1.459677704153   111.05201287   175.08990246
 C     42   2   1     2.412953791518    41.78584867   165.61739886
 C     44  42   2     1.403446472082    87.95153797   233.97558675
 C     45  44  42     1.381696421071   120.11137308     0.19721020
 C     42   2   1     2.450019795838   135.97209175    75.93224796
 C     43  41  15     1.354461516618   106.26758155     0.30894352
 C     15  14  13     1.367461151185   171.87382904   332.35056460
 C     42   2   1     1.381886391857    32.59078432   214.47267805
 C      9   2   1     1.404988612053   126.98745415   192.84193068
 N     42   2   1     1.352765315936   113.57249190   103.66883715
 H      1   2   3     1.083114952348   126.08905706   147.80327963
 H      2   1   3     1.079907866440   118.60722953   154.96246289
 H      4   3   1     1.083991236127   121.01485069   179.54414235
 H      5   4   3     1.082559005320   122.89216758   179.45676765
 H      6   5   4     1.092425283486   104.41615889   100.09557500
 H      6   5   4     1.089527420490    84.66888567   209.55166385
 H      6   5   4     1.089671968989   133.91037599   322.41566775
 H      7   2  54     1.079807853278   126.66122480     1.30600390
 H     10   1   2     1.084070569659   118.72335593   108.93281402
 H     12   9   2     1.016297692608   125.29023241   180.00180175
 H     14  13  12     1.014936943854    44.97226959   359.42596618
 H     18  14  13     1.082871645210   128.03556573   234.20482432
 H     19  17  13     1.080893611786   126.41830519   178.11313280
 H     21  20  18     1.083569563987   121.05669627   180.67006309
 H     22  21  20     1.082483256222   122.73097286   180.59748951
 H     23  18  14     1.092105306278   103.92715769   234.93429879
 H     23  18  14     1.088871893291   134.19244188    12.25587044
 H     23  18  14     1.089833473518    84.85857450   125.45241208
 H     24  19  17     1.080075460327   127.28078426   178.44613241
 H     26  18  14     1.083408048706   118.76995697   244.94906660
 H     30  14  13     1.082703098730   127.99711412   279.66882698
 H     31  29  14     1.079759695488   125.22293469   180.92530585
 H     33  32  30     1.083188810873   121.01964473   180.74284758
 H     34  33  32     1.082494341787   122.70821597   180.59516895
 H     35  34  33     1.092652735319   105.73575241    97.19771933
 H     35  34  33     1.089462711615    84.05943581   206.43036958
 H     35  34  33     1.089268102902   133.08365142   318.50306270
 H     36  31  29     1.079439669458   126.61599965   178.98859863
 H     38  30  73     1.083742127999   118.77264435   359.90091293
 H     42   2   1     1.082178358682   119.31790784   320.30036761
 H     43  41  15     1.080281907652   126.36969097   182.06329380
 H     45  44  42     1.083277434455   121.10105945   179.58025624
 H     46  45  44     1.082194529648   122.72144639   179.46906377
 H     47  42   2     1.091546151109   106.65128841   315.16475048
 H     47  42   2     1.088818625851   132.46019523    94.52397119
 H     47  42   2     1.089531091801    83.63838232   206.04504406
 H     48  43  41     1.080402239909   127.23657387   181.62955349
 H     50  42   2     1.083186502870   118.77001737    94.71359229

---------------------------
INTERNAL COORDINATES (A.U.)
---------------------------
 C      0   0   0     0.000000000000     0.00000000     0.00000000
 C      1   0   0    11.058548974378     0.00000000     0.00000000
 C      1   2   0     4.560765840062    39.54127608     0.00000000
 C      3   1   2     2.652120723656    87.89455663   249.29070085
 C      4   3   1     2.607343427203   120.19904337     0.12031156
 C      5   4   3     4.626729225202   152.49498068     1.61243972
 C      2   1   3     2.585360837309    13.50922156    25.43938877
 C      7   2   3     2.710026725231   108.05010202     0.84668783
 C      2   1   3     2.710100516721   114.97048604   322.94019734
 C      1   2   3     2.610667426044    38.63449447    48.74855643
 N      1   2   3     2.555359761338   103.52020109   285.94054215
 N      9   2   1     2.600503484979   106.58526707    11.83759315
 N     12   9   2     5.527566200405   168.53581413   171.12065651
 N     13  12   9     5.583221047236    91.55032014    11.12112580
 N     14  13  12     5.528150518591    88.43092389   359.84326247
 C      8   7   2     2.654668413270   127.24786865   181.11170171
 C     13  12   9     2.582376967257    81.72106996   188.00453233
 C     14  13  12    10.882574804710    80.56209567   166.76250791
 C     17  13  12     2.757130505230   111.08861209   183.82872609
 C     18  14  13     4.558465206823    27.27532823    36.33507194
 C     20  18  14     2.650705180609    87.95206320   148.94598259
 C     21  20  18     2.611803198586   120.14573887   359.70382047
 C     18  14  13     4.623235745386   144.15733107    82.80075377
 C     19  17  13     2.557953565794   106.29293361   359.75308708
 C     13  12   9     2.582903091751   172.21332906    33.46711076
 C     18  14  13     2.609636529225    15.08449437   309.23336894
 N     22  21  20     2.556370638369   120.73759875     0.27865223
 C     25  13  17     2.666210041769   125.60330303   182.37774668
 C     14  13  12     2.601476916169    80.24689249   177.85461986
 C     14  13  12    10.892550769017   164.51507311   312.20821879
 C     29  14  13     2.712892575415   106.58649366   178.76395472
 C     30  14  13     4.560507835333    27.10625047    82.12560436
 C     32  30  14     2.652673401891    87.90059683   149.76154742
 C     33  32  30     2.609133588376   120.14881443   359.74174632
 C     34  33  32     4.627519515267   152.49203239     2.45173620
 C     31  29  14     2.585449236669   108.16950133     0.70383075
 C     14  13  12     2.600716325456   169.26375223   353.09862627
 C     30  14  13     2.609536633043    14.68948582   353.70041132
 N     34  33  32     2.556154803934   120.85575621     0.19603406
 C     37  14  29     2.654530526499   126.01551127   180.90772073
 C     15  14  13     2.582293994346    81.61824056   183.09049352
 C      2   1   3     8.029564866989   157.80742471   132.72875304
 C     41  15  14     2.758391104639   111.05201287   175.08990246
 C     42   2   1     4.559821839776    41.78584867   165.61739886
 C     44  42   2     2.652129475853    87.95153797   233.97558675
 C     45  44  42     2.611027836043   120.11137308     0.19721020
 C     42   2   1     4.629866436820   135.97209175    75.93224796
 C     43  41  15     2.559561325344   106.26758155     0.30894352
 C     15  14  13     2.584127074516   171.87382904   332.35056460
 C     42   2   1     2.611386828803    32.59078432   214.47267805
 C      9   2   1     2.655043698059   126.98745415   192.84193068
 N     42   2   1     2.556355970587   113.57249190   103.66883715
 H      1   2   3     2.046790631493   126.08905706   147.80327963
 H      2   1   3     2.040730117440   118.60722953   154.96246289
 H      4   3   1     2.048446567851   121.01485069   179.54414235
 H      5   4   3     2.045740043865   122.89216758   179.45676765
 H      6   5   4     2.064384607560   104.41615889   100.09557500
 H      6   5   4     2.058908440124    84.66888567   209.55166385
 H      6   5   4     2.059181597200   133.91037599   322.41566775
 H      7   2  54     2.040541119952   126.66122480     1.30600390
 H     10   1   2     2.048596486499   118.72335593   108.93281402
 H     12   9   2     1.920524309565   125.29023241   180.00180175
 H     14  13  12     1.917952867083    44.97226959   359.42596618
 H     18  14  13     2.046330847636   128.03556573   234.20482432
 H     19  17  13     2.042592906181   126.41830519   178.11313280
 H     21  20  18     2.047649722989   121.05669627   180.67006309
 H     22  21  20     2.045596898814   122.73097286   180.59748951
 H     23  18  14     2.063779938267   103.92715769   234.93429879
 H     23  18  14     2.057669673245   134.19244188    12.25587044
 H     23  18  14     2.059486796529    84.85857450   125.45241208
 H     24  19  17     2.041046823986   127.28078426   178.44613241
 H     26  18  14     2.047344503340   118.76995697   244.94906660
 H     30  14  13     2.046012340948   127.99711412   279.66882698
 H     31  29  14     2.040450114918   125.22293469   180.92530585
 H     33  32  30     2.046930203877   121.01964473   180.74284758
 H     34  33  32     2.045617847496   122.70821597   180.59516895
 H     35  34  33     2.064814429233   105.73575241    97.19771933
 H     35  34  33     2.058786158072    84.05943581   206.43036958
 H     35  34  33     2.058418400901   133.08365142   318.50306270
 H     36  31  29     2.039845353366   126.61599965   178.98859863
 H     38  30  73     2.047975821711   118.77264435   359.90091293
 H     42   2   1     2.045020725966   119.31790784   320.30036761
 H     43  41  15     2.041436952892   126.36969097   182.06329380
 H     45  44  42     2.047097678177   121.10105945   179.58025624
 H     46  45  44     2.045051284662   122.72144639   179.46906377
 H     47  42   2     2.062723288131   106.65128841   315.16475048
 H     47  42   2     2.057569012371   132.46019523    94.52397119
 H     47  42   2     2.058915377895    83.63838232   206.04504406
 H     48  43  41     2.041664347903   127.23657387   181.62955349
 H     50  42   2     2.046925842384   118.77001737    94.71359229

---------------------
BASIS SET INFORMATION
---------------------
There are 3 groups of distinct atoms

 Group   1 Type C   : 17s4p1d contracted to 3s2p1d pattern {881/31/1}
 Group   2 Type N   : 17s4p1d contracted to 3s2p1d pattern {881/31/1}
 Group   3 Type H   : 4s1p contracted to 2s1p pattern {31/1}

Atom   0C    basis set group =>   1
Atom   1N    basis set group =>   2
Atom   2C    basis set group =>   1
Atom   3N    basis set group =>   2
Atom   4C    basis set group =>   1
Atom   5N    basis set group =>   2
Atom   6C    basis set group =>   1
Atom   7N    basis set group =>   2
Atom   8C    basis set group =>   1
Atom   9N    basis set group =>   2
Atom  10C    basis set group =>   1
Atom  11N    basis set group =>   2
Atom  12C    basis set group =>   1
Atom  13N    basis set group =>   2
Atom  14C    basis set group =>   1
Atom  15N    basis set group =>   2
Atom  16C    basis set group =>   1
Atom  17C    basis set group =>   1
Atom  18C    basis set group =>   1
Atom  19C    basis set group =>   1
Atom  20C    basis set group =>   1
Atom  21C    basis set group =>   1
Atom  22C    basis set group =>   1
Atom  23C    basis set group =>   1
Atom  24C    basis set group =>   1
Atom  25C    basis set group =>   1
Atom  26C    basis set group =>   1
Atom  27C    basis set group =>   1
Atom  28C    basis set group =>   1
Atom  29C    basis set group =>   1
Atom  30C    basis set group =>   1
Atom  31C    basis set group =>   1
Atom  32C    basis set group =>   1
Atom  33C    basis set group =>   1
Atom  34C    basis set group =>   1
Atom  35C    basis set group =>   1
Atom  36C    basis set group =>   1
Atom  37C    basis set group =>   1
Atom  38C    basis set group =>   1
Atom  39C    basis set group =>   1
Atom  40C    basis set group =>   1
Atom  41C    basis set group =>   1
Atom  42C    basis set group =>   1
Atom  43C    basis set group =>   1
Atom  44C    basis set group =>   1
Atom  45C    basis set group =>   1
Atom  46C    basis set group =>   1
Atom  47C    basis set group =>   1
Atom  48C    basis set group =>   1
Atom  49C    basis set group =>   1
Atom  50C    basis set group =>   1
Atom  51C    basis set group =>   1
Atom  52H    basis set group =>   3
Atom  53H    basis set group =>   3
Atom  54H    basis set group =>   3
Atom  55H    basis set group =>   3
Atom  56H    basis set group =>   3
Atom  57H    basis set group =>   3
Atom  58H    basis set group =>   3
Atom  59H    basis set group =>   3
Atom  60H    basis set group =>   3
Atom  61H    basis set group =>   3
Atom  62H    basis set group =>   3
Atom  63H    basis set group =>   3
Atom  64H    basis set group =>   3
Atom  65H    basis set group =>   3
Atom  66H    basis set group =>   3
Atom  67H    basis set group =>   3
Atom  68H    basis set group =>   3
Atom  69H    basis set group =>   3
Atom  70H    basis set group =>   3
Atom  71H    basis set group =>   3
Atom  72H    basis set group =>   3
Atom  73H    basis set group =>   3
Atom  74H    basis set group =>   3
Atom  75H    basis set group =>   3
Atom  76H    basis set group =>   3
Atom  77H    basis set group =>   3
Atom  78H    basis set group =>   3
Atom  79H    basis set group =>   3
Atom  80H    basis set group =>   3
Atom  81H    basis set group =>   3
Atom  82H    basis set group =>   3
Atom  83H    basis set group =>   3
Atom  84H    basis set group =>   3
Atom  85H    basis set group =>   3
Atom  86H    basis set group =>   3
Atom  87H    basis set group =>   3
Atom  88H    basis set group =>   3
Atom  89H    basis set group =>   3


           ************************************************************
           *        Program running with 16 parallel MPI-processes    *
           *              working on a common directory               *
           ************************************************************
------------------------------------------------------------------------------
                           ORCA GTO INTEGRAL CALCULATION
------------------------------------------------------------------------------
------------------------------------------------------------------------------
                   ___                                                        
                  /   \      - P O W E R E D   B Y -                         
                 /     \                                                     
                 |  |  |   _    _      __       _____    __    __             
                 |  |  |  | |  | |    /  \     |  _  \  |  |  /  |          
                  \  \/   | |  | |   /    \    | | | |  |  | /  /          
                 / \  \   | |__| |  /  /\  \   | |_| |  |  |/  /          
                |  |  |   |  __  | /  /__\  \  |    /   |      \           
                |  |  |   | |  | | |   __   |  |    \   |  |\   \          
                \     /   | |  | | |  |  |  |  | |\  \  |  | \   \       
                 \___/    |_|  |_| |__|  |__|  |_| \__\ |__|  \__/        
                                                                              
                      - O R C A' S   B I G   F R I E N D -                    
                                      &                                       
                       - I N T E G R A L  F E E D E R -                       
                                                                              
 v1 FN, 2020, v2 2021                                                         
------------------------------------------------------------------------------


Reading SHARK input file /scratch/allen/tmpyp4_amber_gaff2/conf1/conf1/Conf274.orca.SHARKINP.tmp ... ok
----------------------
SHARK INTEGRAL PACKAGE
----------------------

Number of atoms                             ...     90
Number of basis functions                   ...   1230
Number of shells                            ...    738
Maximum angular momentum                    ...      2
Integral batch strategy                     ... SHARK/LIBINT Hybrid
RI-J (if used) integral strategy            ... SPLIT-RIJ (Revised 2003 algorithm where possible)
Printlevel                                  ...      1
Contraction scheme used                     ... PARTIAL GENERAL contraction
Coulomb Range Separation                    ... NOT USED
Exchange Range Separation                   ... NOT USED
Finite Nucleus Model                        ... NOT USED
Auxiliary Coulomb fitting basis             ... NOT available
Auxiliary J/K fitting basis                 ... NOT available
Auxiliary Correlation fitting basis         ... NOT available
Auxiliary 'external' fitting basis          ... NOT available
Integral threshold                          ...     2.500000e-11
Primitive cut-off                           ...     2.500000e-12
Primitive pair pre-selection threshold      ...     2.500000e-12

Calculating pre-screening integrals         ... done (  0.1 sec) Dimension = 738
Calculating pre-screening integrals (ORCA)  ... done (  0.3 sec) Dimension = 426
Organizing shell pair data                  ... done (  0.7 sec)
Shell pair information
Total number of shell pairs                 ...    272691
Shell pairs after pre-screening             ...     71638
Total number of primitive shell pairs       ...    422091
Primitive shell pairs kept                  ...     92370
          la=0 lb=0:  29424 shell pairs
          la=1 lb=0:  25980 shell pairs
          la=1 lb=1:   4688 shell pairs
          la=2 lb=0:   7899 shell pairs
          la=2 lb=1:   3116 shell pairs
          la=2 lb=2:    531 shell pairs

Calculating one electron integrals          ... done (  0.2 sec)
Calculating Nuclear repulsion               ... done (  0.0 sec) ENN=   6221.854577660418 Eh

SHARK setup successfully completed in   2.2 seconds

Maximum memory used throughout the entire GTOINT-calculation: 99.0 MB


           ************************************************************
           *        Program running with 16 parallel MPI-processes    *
           *              working on a common directory               *
           ************************************************************
-------------------------------------------------------------------------------
                                 ORCA SCF
-------------------------------------------------------------------------------

------------
SCF SETTINGS
------------
Hamiltonian:
 Ab initio Hamiltonian  Method          .... Hartree-Fock(GTOs)


General Settings:
 Integral files         IntName         .... /scratch/allen/tmpyp4_amber_gaff2/conf1/conf1/Conf274.orca
 Hartree-Fock type      HFTyp           .... RHF
 Total Charge           Charge          ....    0
 Multiplicity           Mult            ....    1
 Number of Electrons    NEL             ....  358
 Basis Dimension        Dim             ....  918
 Nuclear Repulsion      ENuc            ....   6221.8545776604 Eh

Convergence Acceleration:
 DIIS                   CNVDIIS         .... on
   Start iteration      DIISMaxIt       ....    12
   Startup error        DIISStart       ....  0.200000
   # of expansion vecs  DIISMaxEq       ....     5
   Bias factor          DIISBfac        ....   1.050
   Max. coefficient     DIISMaxC        ....  10.000
 Trust-Rad. Augm. Hess. CNVTRAH         .... auto
   Auto Start mean grad. ratio tolernc. ....  1.125000
   Auto Start start iteration           ....    20
   Auto Start num. interpolation iter.  ....    10
   Max. Number of Micro iterations      ....    16
   Max. Number of Macro iterations      .... Maxiter - #DIIS iter
   Number of Davidson start vectors     ....     2
   Converg. threshold I  (grad. norm)   ....   1.000e-05
   Converg. threshold II (energy diff.) ....   1.000e-08
   Grad. Scal. Fac. for Micro threshold ....   0.100
   Minimum threshold for Micro iter.    ....   0.010
   NR start threshold (gradient norm)   ....   0.001
   Initial trust radius                 ....   0.400
   Minimum AH scaling param. (alpha)    ....   1.000
   Maximum AH scaling param. (alpha)    .... 1000.000
   Orbital update algorithm             .... Taylor
   White noise on init. David. guess    .... on
   Maximum white noise                  ....   0.010
   Quad. conv. algorithm                .... NR
 SOSCF                  CNVSOSCF        .... on
   Start iteration      SOSCFMaxIt      ....   150
   Startup grad/error   SOSCFStart      ....  0.003300
 Level Shifting         CNVShift        .... on
   Level shift para.    LevelShift      ....    0.2500
   Turn off err/grad.   ShiftErr        ....    0.0010
 Zerner damping         CNVZerner       .... off
 Static damping         CNVDamp         .... on
   Fraction old density DampFac         ....    0.7000
   Max. Damping (<1)    DampMax         ....    0.9800
   Min. Damping (>=0)   DampMin         ....    0.0000
   Turn off err/grad.   DampErr         ....    0.1000
 Fernandez-Rico         CNVRico         .... off

SCF Procedure:
 Maximum # iterations   MaxIter         ....   125
 SCF integral mode      SCFMode         .... Direct
   Integral package                     .... SHARK and LIBINT hybrid scheme
 Reset frequency        DirectResetFreq ....    20
 Integral Threshold     Thresh          ....  2.500e-11 Eh
 Primitive CutOff       TCut            ....  2.500e-12 Eh

Convergence Tolerance:
 Convergence Check Mode ConvCheckMode   .... Total+1el-Energy
 Convergence forced     ConvForced      .... 1
 Energy Change          TolE            ....  1.000e-08 Eh
 1-El. energy change                    ....  1.000e-05 Eh
 Orbital Gradient       TolG            ....  1.000e-05
 Orbital Rotation angle TolX            ....  1.000e-05
 DIIS Error             TolErr          ....  5.000e-07


Diagonalization of the overlap matrix:
Smallest eigenvalue                        ... 2.264e-04
Time for diagonalization                   ...    0.468 sec
Threshold for overlap eigenvalues          ... 1.000e-08
Number of eigenvalues below threshold      ... 0
Time for construction of square roots      ...    0.269 sec
Total time needed                          ...    0.743 sec

Time for model grid setup =    1.297 sec

------------------------------
INITIAL GUESS: MODEL POTENTIAL
------------------------------
Loading Hartree-Fock densities                     ... done
Calculating cut-offs                               ... done
Initializing the effective Hamiltonian             ... done
Setting up the integral package (SHARK)            ... done
Starting the Coulomb interaction                   ... done (   1.4 sec)
Reading the grid                                   ... done
Mapping shells                                     ... done
Starting the XC term evaluation                    ... done (   0.2 sec)
Transforming the Hamiltonian                       ... done (   0.3 sec)
Diagonalizing the Hamiltonian                      ... done (   0.4 sec)
Back transforming the eigenvectors                 ... done (   0.1 sec)
Now organizing SCF variables                       ... done
                      ------------------
                      INITIAL GUESS DONE (   3.8 sec)
                      ------------------
--------------
SCF ITERATIONS
--------------
ITER       Energy         Delta-E        Max-DP      RMS-DP      [F,P]     Damp
               ***  Starting incremental Fock matrix formation  ***
  0  -2121.6413755915   0.000000000000 0.06934053  0.00121186  0.2351149 0.7000
  1  -2122.3104380564  -0.669062464873 0.05271633  0.00098180  0.1454510 0.7000
                               ***Turning on DIIS***
  2  -2122.7266541411  -0.416216084663 0.11738666  0.00221894  0.0807583 0.0000
  3  -2117.7650425031   4.961611638015 0.03421681  0.00068536  0.0442672 0.0000
  4  -2123.4127624743  -5.647719971234 0.00932672  0.00023054  0.0073845 0.0000
  5  -2123.5807922225  -0.168029748223 0.00549044  0.00013872  0.0051631 0.0000
  6  -2123.5597181177   0.021074104787 0.00464782  0.00009503  0.0024655 0.0000
  7  -2123.6640532832  -0.104335165450 0.00416990  0.00008022  0.0019457 0.0000
  8  -2123.6920560280  -0.028002744852 0.00406315  0.00008184  0.0018326 0.0000
                      *** Initiating the SOSCF procedure ***
                           *** Shutting down DIIS ***
                      *** Re-Reading the Fockian *** 
                      *** Removing any level shift *** 
ITER      Energy       Delta-E        Grad      Rot      Max-DP    RMS-DP
  9  -2123.65080010   0.0412559238  0.003127  0.003127  0.002960  0.000060
               *** Restarting incremental Fock matrix formation ***
 10  -2123.60779961   0.0430004963  0.002195  0.021270  0.006143  0.000101
 11  -2123.60847632  -0.0006767081  0.001428  0.071611  0.017884  0.000339
 12  -2123.60967370  -0.0011973856  0.001102  0.017142  0.005633  0.000084
 13  -2123.60999675  -0.0003230476  0.000866  0.019208  0.006319  0.000103
 14  -2123.61022886  -0.0002321067  0.000507  0.012351  0.003956  0.000054
 15  -2123.61031647  -0.0000876140  0.000338  0.012469  0.003605  0.000055
 16  -2123.61037866  -0.0000621903  0.000310  0.007430  0.001706  0.000029
 17  -2123.61040048  -0.0000218178  0.000167  0.001863  0.000629  0.000010
 18  -2123.61040613  -0.0000056548  0.000126  0.002069  0.000399  0.000008
 19  -2123.61040887  -0.0000027417  0.000077  0.002413  0.000418  0.000008
 20  -2123.61041069  -0.0000018183  0.000070  0.003430  0.000560  0.000010
 21  -2123.61041211  -0.0000014181  0.000045  0.002888  0.000521  0.000009
 22  -2123.61041297  -0.0000008567  0.000035  0.001787  0.000324  0.000006
 23  -2123.61041339  -0.0000004184  0.000030  0.000798  0.000252  0.000004
 24  -2123.61041363  -0.0000002406  0.000026  0.000744  0.000223  0.000003
 25  -2123.61041378  -0.0000001579  0.000021  0.000771  0.000226  0.000003
 26  -2123.61041390  -0.0000001111  0.000014  0.000556  0.000173  0.000002
 27  -2123.61041397  -0.0000000728  0.000010  0.000277  0.000088  0.000001
 28  -2123.61041400  -0.0000000345  0.000004  0.000050  0.000020  0.000000
 29  -2123.61041401  -0.0000000080  0.000003  0.000019  0.000008  0.000000
               *** Restarting incremental Fock matrix formation ***
                  ***Gradient check signals convergence***
              ***Rediagonalizing the Fockian in SOSCF/NRSCF***

               *****************************************************
               *                     SUCCESS                       *
               *           SCF CONVERGED AFTER  30 CYCLES          *
               *****************************************************


----------------
TOTAL SCF ENERGY
----------------

Total Energy       :        -2123.61041397 Eh          -57786.37717 eV

Components:
Nuclear Repulsion  :         6221.85457766 Eh          169305.27037 eV
Electronic Energy  :        -8345.46499163 Eh         -227091.64754 eV
One Electron Energy:       -15285.20485675 Eh         -415931.56970 eV
Two Electron Energy:         6939.73986512 Eh          188839.92217 eV

Virial components:
Potential Energy   :        -4245.59432604 Eh         -115528.49497 eV
Kinetic Energy     :         2121.98391207 Eh           57742.11780 eV
Virial Ratio       :            2.00076650


---------------
SCF CONVERGENCE
---------------

  Last Energy change         ...    3.8772e-08  Tolerance :   1.0000e-08
  Last MAX-Density change    ...    7.0418e-06  Tolerance :   1.0000e-07
  Last RMS-Density change    ...    1.2777e-07  Tolerance :   5.0000e-09
  Last Orbital Gradient      ...    1.4617e-06  Tolerance :   1.0000e-05
  Last Orbital Rotation      ...    1.9546e-05  Tolerance :   1.0000e-05

             **** THE GBW FILE WAS UPDATED (/scratch/allen/tmpyp4_amber_gaff2/conf1/conf1/Conf274.orca.gbw) ****
             **** DENSITY /scratch/allen/tmpyp4_amber_gaff2/conf1/conf1/Conf274.orca.scfp WAS UPDATED ****
             **** ENERGY FILE WAS UPDATED (/scratch/allen/tmpyp4_amber_gaff2/conf1/conf1/Conf274.orca.en.tmp) ****
             **** THE GBW FILE WAS UPDATED (/scratch/allen/tmpyp4_amber_gaff2/conf1/conf1/Conf274.orca.gbw) ****
             **** DENSITY /scratch/allen/tmpyp4_amber_gaff2/conf1/conf1/Conf274.orca.scfp WAS UPDATED ****
----------------
ORBITAL ENERGIES
----------------

  NO   OCC          E(Eh)            E(eV) 
   0   2.0000     -15.718952      -427.7344 
   1   2.0000     -15.628492      -425.2729 
   2   2.0000     -15.618726      -425.0071 
   3   2.0000     -15.576977      -423.8711 
   4   2.0000     -15.520535      -422.3352 
   5   2.0000     -15.504214      -421.8911 
   6   2.0000     -15.451216      -420.4490 
   7   2.0000     -15.426855      -419.7861 
   8   2.0000     -11.356584      -309.0284 
   9   2.0000     -11.355996      -309.0124 
  10   2.0000     -11.349666      -308.8401 
  11   2.0000     -11.312771      -307.8362 
  12   2.0000     -11.296380      -307.3901 
  13   2.0000     -11.290639      -307.2339 
  14   2.0000     -11.289693      -307.2082 
  15   2.0000     -11.285937      -307.1060 
  16   2.0000     -11.285843      -307.1034 
  17   2.0000     -11.281546      -306.9865 
  18   2.0000     -11.280447      -306.9566 
  19   2.0000     -11.271454      -306.7119 
  20   2.0000     -11.263422      -306.4933 
  21   2.0000     -11.243467      -305.9503 
  22   2.0000     -11.239754      -305.8492 
  23   2.0000     -11.232245      -305.6449 
  24   2.0000     -11.226775      -305.4961 
  25   2.0000     -11.225888      -305.4719 
  26   2.0000     -11.223013      -305.3937 
  27   2.0000     -11.219004      -305.2846 
  28   2.0000     -11.218706      -305.2765 
  29   2.0000     -11.210983      -305.0664 
  30   2.0000     -11.209220      -305.0184 
  31   2.0000     -11.195121      -304.6347 
  32   2.0000     -11.193987      -304.6039 
  33   2.0000     -11.192865      -304.5733 
  34   2.0000     -11.188532      -304.4554 
  35   2.0000     -11.187773      -304.4348 
  36   2.0000     -11.183538      -304.3195 
  37   2.0000     -11.179997      -304.2232 
  38   2.0000     -11.179893      -304.2203 
  39   2.0000     -11.177607      -304.1581 
  40   2.0000     -11.169869      -303.9476 
  41   2.0000     -11.165096      -303.8177 
  42   2.0000     -11.164685      -303.8065 
  43   2.0000     -11.161574      -303.7219 
  44   2.0000     -11.160550      -303.6940 
  45   2.0000     -11.144660      -303.2616 
  46   2.0000     -11.144019      -303.2442 
  47   2.0000     -11.140832      -303.1574 
  48   2.0000     -11.137540      -303.0679 
  49   2.0000     -11.131043      -302.8911 
  50   2.0000     -11.116677      -302.5002 
  51   2.0000     -11.111053      -302.3471 
  52   2.0000      -1.390770       -37.8448 
  53   2.0000      -1.316731       -35.8301 
  54   2.0000      -1.307703       -35.5844 
  55   2.0000      -1.272199       -34.6183 
  56   2.0000      -1.224272       -33.3141 
  57   2.0000      -1.200291       -32.6616 
  58   2.0000      -1.177947       -32.0536 
  59   2.0000      -1.164592       -31.6902 
  60   2.0000      -1.136896       -30.9365 
  61   2.0000      -1.108766       -30.1710 
  62   2.0000      -1.106036       -30.0968 
  63   2.0000      -1.097420       -29.8623 
  64   2.0000      -1.066334       -29.0164 
  65   2.0000      -1.056981       -28.7619 
  66   2.0000      -1.041186       -28.3321 
  67   2.0000      -1.032629       -28.0993 
  68   2.0000      -1.015087       -27.6219 
  69   2.0000      -1.003943       -27.3187 
  70   2.0000      -0.999394       -27.1949 
  71   2.0000      -0.994809       -27.0701 
  72   2.0000      -0.985407       -26.8143 
  73   2.0000      -0.976226       -26.5645 
  74   2.0000      -0.964201       -26.2372 
  75   2.0000      -0.961482       -26.1633 
  76   2.0000      -0.950776       -25.8719 
  77   2.0000      -0.940502       -25.5923 
  78   2.0000      -0.934527       -25.4298 
  79   2.0000      -0.919769       -25.0282 
  80   2.0000      -0.912330       -24.8258 
  81   2.0000      -0.890978       -24.2447 
  82   2.0000      -0.886509       -24.1231 
  83   2.0000      -0.868286       -23.6273 
  84   2.0000      -0.860126       -23.4052 
  85   2.0000      -0.846444       -23.0329 
  86   2.0000      -0.829078       -22.5603 
  87   2.0000      -0.826710       -22.4959 
  88   2.0000      -0.820245       -22.3200 
  89   2.0000      -0.794296       -21.6139 
  90   2.0000      -0.785841       -21.3838 
  91   2.0000      -0.771778       -21.0012 
  92   2.0000      -0.739589       -20.1253 
  93   2.0000      -0.733489       -19.9593 
  94   2.0000      -0.728731       -19.8298 
  95   2.0000      -0.723738       -19.6939 
  96   2.0000      -0.716101       -19.4861 
  97   2.0000      -0.710117       -19.3233 
  98   2.0000      -0.705766       -19.2049 
  99   2.0000      -0.705325       -19.1929 
 100   2.0000      -0.695763       -18.9327 
 101   2.0000      -0.688068       -18.7233 
 102   2.0000      -0.684071       -18.6145 
 103   2.0000      -0.675402       -18.3786 
 104   2.0000      -0.672421       -18.2975 
 105   2.0000      -0.670631       -18.2488 
 106   2.0000      -0.666936       -18.1482 
 107   2.0000      -0.661851       -18.0099 
 108   2.0000      -0.652016       -17.7423 
 109   2.0000      -0.649041       -17.6613 
 110   2.0000      -0.648351       -17.6425 
 111   2.0000      -0.642109       -17.4727 
 112   2.0000      -0.640421       -17.4268 
 113   2.0000      -0.634256       -17.2590 
 114   2.0000      -0.634029       -17.2528 
 115   2.0000      -0.629351       -17.1255 
 116   2.0000      -0.627017       -17.0620 
 117   2.0000      -0.615070       -16.7369 
 118   2.0000      -0.610843       -16.6219 
 119   2.0000      -0.609048       -16.5730 
 120   2.0000      -0.608374       -16.5547 
 121   2.0000      -0.600791       -16.3484 
 122   2.0000      -0.592146       -16.1131 
 123   2.0000      -0.589265       -16.0347 
 124   2.0000      -0.584249       -15.8982 
 125   2.0000      -0.578182       -15.7331 
 126   2.0000      -0.574813       -15.6415 
 127   2.0000      -0.570873       -15.5342 
 128   2.0000      -0.570120       -15.5138 
 129   2.0000      -0.570000       -15.5105 
 130   2.0000      -0.556282       -15.1372 
 131   2.0000      -0.543263       -14.7829 
 132   2.0000      -0.541893       -14.7457 
 133   2.0000      -0.538483       -14.6529 
 134   2.0000      -0.533483       -14.5168 
 135   2.0000      -0.529309       -14.4032 
 136   2.0000      -0.519340       -14.1320 
 137   2.0000      -0.515673       -14.0322 
 138   2.0000      -0.513499       -13.9730 
 139   2.0000      -0.512190       -13.9374 
 140   2.0000      -0.509701       -13.8697 
 141   2.0000      -0.503200       -13.6928 
 142   2.0000      -0.501228       -13.6391 
 143   2.0000      -0.497632       -13.5413 
 144   2.0000      -0.495239       -13.4761 
 145   2.0000      -0.492862       -13.4115 
 146   2.0000      -0.488528       -13.2935 
 147   2.0000      -0.473383       -12.8814 
 148   2.0000      -0.470323       -12.7982 
 149   2.0000      -0.465763       -12.6740 
 150   2.0000      -0.462661       -12.5896 
 151   2.0000      -0.460116       -12.5204 
 152   2.0000      -0.451818       -12.2946 
 153   2.0000      -0.440823       -11.9954 
 154   2.0000      -0.432837       -11.7781 
 155   2.0000      -0.431103       -11.7309 
 156   2.0000      -0.418271       -11.3817 
 157   2.0000      -0.416609       -11.3365 
 158   2.0000      -0.411279       -11.1915 
 159   2.0000      -0.409465       -11.1421 
 160   2.0000      -0.381501       -10.3812 
 161   2.0000      -0.369417       -10.0524 
 162   2.0000      -0.353310        -9.6141 
 163   2.0000      -0.351771        -9.5722 
 164   2.0000      -0.345708        -9.4072 
 165   2.0000      -0.341492        -9.2925 
 166   2.0000      -0.338020        -9.1980 
 167   2.0000      -0.317236        -8.6324 
 168   2.0000      -0.311944        -8.4884 
 169   2.0000      -0.304756        -8.2928 
 170   2.0000      -0.298052        -8.1104 
 171   2.0000      -0.282479        -7.6866 
 172   2.0000      -0.275554        -7.4982 
 173   2.0000      -0.266388        -7.2488 
 174   2.0000      -0.229001        -6.2314 
 175   2.0000      -0.182984        -4.9792 
 176   2.0000      -0.173157        -4.7118 
 177   2.0000      -0.062573        -1.7027 
 178   2.0000      -0.050791        -1.3821 
 179   0.0000       0.036018         0.9801 
 180   0.0000       0.054578         1.4851 
 181   0.0000       0.074264         2.0208 
 182   0.0000       0.098614         2.6834 
 183   0.0000       0.102310         2.7840 
 184   0.0000       0.123604         3.3634 
 185   0.0000       0.141450         3.8491 
 186   0.0000       0.149034         4.0554 
 187   0.0000       0.161090         4.3835 
 188   0.0000       0.165709         4.5092 
 189   0.0000       0.167043         4.5455 
 190   0.0000       0.167340         4.5536 
 191   0.0000       0.173128         4.7111 
 192   0.0000       0.180036         4.8990 
 193   0.0000       0.195580         5.3220 
 194   0.0000       0.200329         5.4512 
 195   0.0000       0.205990         5.6053 
 196   0.0000       0.212228         5.7750 
 197   0.0000       0.212406         5.7799 
 198   0.0000       0.217423         5.9164 
 199   0.0000       0.218031         5.9329 
 200   0.0000       0.230152         6.2627 
 201   0.0000       0.236648         6.4395 
 202   0.0000       0.238003         6.4764 
 203   0.0000       0.239726         6.5233 
 204   0.0000       0.241435         6.5698 
 205   0.0000       0.246183         6.6990 
 206   0.0000       0.247204         6.7268 
 207   0.0000       0.249622         6.7925 
 208   0.0000       0.251310         6.8385 
 209   0.0000       0.258372         7.0307 
 210   0.0000       0.263656         7.1744 
 211   0.0000       0.267084         7.2677 
 212   0.0000       0.268171         7.2973 
 213   0.0000       0.274029         7.4567 
 214   0.0000       0.279034         7.5929 
 215   0.0000       0.280876         7.6430 
 216   0.0000       0.283662         7.7188 
 217   0.0000       0.285331         7.7643 
 218   0.0000       0.287450         7.8219 
 219   0.0000       0.289412         7.8753 
 220   0.0000       0.290418         7.9027 
 221   0.0000       0.294520         8.0143 
 222   0.0000       0.299055         8.1377 
 223   0.0000       0.299868         8.1598 
 224   0.0000       0.300426         8.1750 
 225   0.0000       0.305312         8.3080 
 226   0.0000       0.306688         8.3454 
 227   0.0000       0.307032         8.3548 
 228   0.0000       0.317745         8.6463 
 229   0.0000       0.320430         8.7194 
 230   0.0000       0.327461         8.9107 
 231   0.0000       0.330208         8.9854 
 232   0.0000       0.333020         9.0619 
 233   0.0000       0.336507         9.1568 
 234   0.0000       0.340266         9.2591 
 235   0.0000       0.356735         9.7072 
 236   0.0000       0.358235         9.7481 
 237   0.0000       0.361534         9.8378 
 238   0.0000       0.374758        10.1977 
 239   0.0000       0.387479        10.5438 
 240   0.0000       0.394768        10.7422 
 241   0.0000       0.398983        10.8569 
 242   0.0000       0.408176        11.1070 
 243   0.0000       0.417528        11.3615 
 244   0.0000       0.423689        11.5292 
 245   0.0000       0.430547        11.7158 
 246   0.0000       0.436483        11.8773 
 247   0.0000       0.438592        11.9347 
 248   0.0000       0.443547        12.0695 
 249   0.0000       0.444747        12.1022 
 250   0.0000       0.451783        12.2936 
 251   0.0000       0.456213        12.4142 
 252   0.0000       0.458241        12.4694 
 253   0.0000       0.469265        12.7693 
 254   0.0000       0.471106        12.8194 
 255   0.0000       0.476751        12.9731 
 256   0.0000       0.479484        13.0474 
 257   0.0000       0.483366        13.1530 
 258   0.0000       0.484440        13.1823 
 259   0.0000       0.492915        13.4129 
 260   0.0000       0.501445        13.6450 
 261   0.0000       0.504909        13.7393 
 262   0.0000       0.506773        13.7900 
 263   0.0000       0.509615        13.8673 
 264   0.0000       0.511993        13.9320 
 265   0.0000       0.517051        14.0697 
 266   0.0000       0.521206        14.1827 
 267   0.0000       0.525424        14.2975 
 268   0.0000       0.531741        14.4694 
 269   0.0000       0.539114        14.6700 
 270   0.0000       0.543385        14.7863 
 271   0.0000       0.544754        14.8235 
 272   0.0000       0.547013        14.8850 
 273   0.0000       0.548675        14.9302 
 274   0.0000       0.552965        15.0469 
 275   0.0000       0.560520        15.2525 
 276   0.0000       0.568403        15.4670 
 277   0.0000       0.571636        15.5550 
 278   0.0000       0.578458        15.7407 
 279   0.0000       0.585909        15.9434 
 280   0.0000       0.587967        15.9994 
 281   0.0000       0.593994        16.1634 
 282   0.0000       0.597181        16.2501 
 283   0.0000       0.598332        16.2814 
 284   0.0000       0.600495        16.3403 
 285   0.0000       0.601779        16.3753 
 286   0.0000       0.604865        16.4592 
 287   0.0000       0.607981        16.5440 
 288   0.0000       0.613027        16.6813 
 289   0.0000       0.620104        16.8739 
 290   0.0000       0.626428        17.0460 
 291   0.0000       0.629697        17.1349 
 292   0.0000       0.632457        17.2100 
 293   0.0000       0.638024        17.3615 
 294   0.0000       0.643033        17.4978 
 295   0.0000       0.646720        17.5981 
 296   0.0000       0.648724        17.6527 
 297   0.0000       0.655728        17.8433 
 298   0.0000       0.659846        17.9553 
 299   0.0000       0.662492        18.0273 
 300   0.0000       0.663910        18.0659 
 301   0.0000       0.668842        18.2001 
 302   0.0000       0.669201        18.2099 
 303   0.0000       0.673765        18.3341 
 304   0.0000       0.677993        18.4491 
 305   0.0000       0.679920        18.5016 
 306   0.0000       0.683099        18.5881 
 307   0.0000       0.686754        18.6875 
 308   0.0000       0.691052        18.8045 
 309   0.0000       0.693837        18.8803 
 310   0.0000       0.699210        19.0265 
 311   0.0000       0.700934        19.0734 
 312   0.0000       0.704939        19.1824 
 313   0.0000       0.707461        19.2510 
 314   0.0000       0.712616        19.3913 
 315   0.0000       0.714844        19.4519 
 316   0.0000       0.715645        19.4737 
 317   0.0000       0.717814        19.5327 
 318   0.0000       0.719401        19.5759 
 319   0.0000       0.722919        19.6716 
 320   0.0000       0.725914        19.7531 
 321   0.0000       0.729321        19.8458 
 322   0.0000       0.731668        19.9097 
 323   0.0000       0.737821        20.0771 
 324   0.0000       0.739161        20.1136 
 325   0.0000       0.743945        20.2438 
 326   0.0000       0.744647        20.2629 
 327   0.0000       0.748047        20.3554 
 328   0.0000       0.752749        20.4833 
 329   0.0000       0.755100        20.5473 
 330   0.0000       0.759468        20.6662 
 331   0.0000       0.760755        20.7012 
 332   0.0000       0.762591        20.7512 
 333   0.0000       0.764996        20.8166 
 334   0.0000       0.765645        20.8342 
 335   0.0000       0.767753        20.8916 
 336   0.0000       0.771181        20.9849 
 337   0.0000       0.776193        21.1213 
 338   0.0000       0.783491        21.3199 
 339   0.0000       0.786333        21.3972 
 340   0.0000       0.789420        21.4812 
 341   0.0000       0.791541        21.5389 
 342   0.0000       0.792728        21.5712 
 343   0.0000       0.794592        21.6220 
 344   0.0000       0.796719        21.6798 
 345   0.0000       0.797902        21.7120 
 346   0.0000       0.804913        21.9028 
 347   0.0000       0.806169        21.9370 
 348   0.0000       0.811550        22.0834 
 349   0.0000       0.814931        22.1754 
 350   0.0000       0.817329        22.2407 
 351   0.0000       0.821869        22.3642 
 352   0.0000       0.825012        22.4497 
 353   0.0000       0.825374        22.4596 
 354   0.0000       0.828212        22.5368 
 355   0.0000       0.829586        22.5742 
 356   0.0000       0.830485        22.5986 
 357   0.0000       0.836693        22.7676 
 358   0.0000       0.840497        22.8711 
 359   0.0000       0.840670        22.8758 
 360   0.0000       0.844737        22.9865 
 361   0.0000       0.845912        23.0184 
 362   0.0000       0.849030        23.1033 
 363   0.0000       0.851118        23.1601 
 364   0.0000       0.851606        23.1734 
 365   0.0000       0.857857        23.3435 
 366   0.0000       0.858918        23.3723 
 367   0.0000       0.859678        23.3930 
 368   0.0000       0.862053        23.4577 
 369   0.0000       0.865044        23.5390 
 370   0.0000       0.866932        23.5904 
 371   0.0000       0.868711        23.6388 
 372   0.0000       0.869742        23.6669 
 373   0.0000       0.871507        23.7149 
 374   0.0000       0.875159        23.8143 
 375   0.0000       0.877065        23.8662 
 376   0.0000       0.878540        23.9063 
 377   0.0000       0.878848        23.9147 
 378   0.0000       0.884536        24.0694 
 379   0.0000       0.889772        24.2119 
 380   0.0000       0.889859        24.2143 
 381   0.0000       0.891759        24.2660 
 382   0.0000       0.901898        24.5419 
 383   0.0000       0.903907        24.5966 
 384   0.0000       0.903969        24.5983 
 385   0.0000       0.908029        24.7087 
 386   0.0000       0.910006        24.7625 
 387   0.0000       0.916271        24.9330 
 388   0.0000       0.917959        24.9789 
 389   0.0000       0.918617        24.9968 
 390   0.0000       0.920233        25.0408 
 391   0.0000       0.925185        25.1756 
 392   0.0000       0.928270        25.2595 
 393   0.0000       0.933117        25.3914 
 394   0.0000       0.933623        25.4052 
 395   0.0000       0.935809        25.4647 
 396   0.0000       0.936493        25.4833 
 397   0.0000       0.939668        25.5697 
 398   0.0000       0.941016        25.6063 
 399   0.0000       0.942645        25.6507 
 400   0.0000       0.945928        25.7400 
 401   0.0000       0.948791        25.8179 
 402   0.0000       0.952003        25.9053 
 403   0.0000       0.956212        26.0198 
 404   0.0000       0.959076        26.0978 
 405   0.0000       0.960467        26.1356 
 406   0.0000       0.963032        26.2054 
 407   0.0000       0.967290        26.3213 
 408   0.0000       0.969003        26.3679 
 409   0.0000       0.974900        26.5284 
 410   0.0000       0.981162        26.6988 
 411   0.0000       0.984902        26.8006 
 412   0.0000       0.988288        26.8927 
 413   0.0000       0.996486        27.1158 
 414   0.0000       0.996768        27.1234 
 415   0.0000       0.999855        27.2074 
 416   0.0000       1.004511        27.3341 
 417   0.0000       1.007287        27.4097 
 418   0.0000       1.008886        27.4532 
 419   0.0000       1.011339        27.5199 
 420   0.0000       1.019534        27.7429 
 421   0.0000       1.027198        27.9515 
 422   0.0000       1.033097        28.1120 
 423   0.0000       1.037957        28.2442 
 424   0.0000       1.039583        28.2885 
 425   0.0000       1.046032        28.4640 
 426   0.0000       1.056741        28.7554 
 427   0.0000       1.063561        28.9410 
 428   0.0000       1.066517        29.0214 
 429   0.0000       1.070650        29.1339 
 430   0.0000       1.073855        29.2211 
 431   0.0000       1.082545        29.4575 
 432   0.0000       1.085530        29.5388 
 433   0.0000       1.088274        29.6134 
 434   0.0000       1.094358        29.7790 
 435   0.0000       1.096559        29.8389 
 436   0.0000       1.102949        30.0128 
 437   0.0000       1.110603        30.2210 
 438   0.0000       1.112560        30.2743 
 439   0.0000       1.115054        30.3422 
 440   0.0000       1.117103        30.3979 
 441   0.0000       1.118470        30.4351 
 442   0.0000       1.124083        30.5879 
 443   0.0000       1.128529        30.7088 
 444   0.0000       1.133345        30.8399 
 445   0.0000       1.134997        30.8848 
 446   0.0000       1.141962        31.0744 
 447   0.0000       1.144022        31.1304 
 448   0.0000       1.145249        31.1638 
 449   0.0000       1.148845        31.2617 
 450   0.0000       1.155460        31.4417 
 451   0.0000       1.156409        31.4675 
 452   0.0000       1.158913        31.5356 
 453   0.0000       1.160544        31.5800 
 454   0.0000       1.165791        31.7228 
 455   0.0000       1.167858        31.7790 
 456   0.0000       1.175749        31.9938 
 457   0.0000       1.177803        32.0496 
 458   0.0000       1.184065        32.2201 
 459   0.0000       1.186256        32.2797 
 460   0.0000       1.189602        32.3707 
 461   0.0000       1.191406        32.4198 
 462   0.0000       1.199843        32.6494 
 463   0.0000       1.200335        32.6628 
 464   0.0000       1.204628        32.7796 
 465   0.0000       1.209144        32.9025 
 466   0.0000       1.210374        32.9359 
 467   0.0000       1.213038        33.0084 
 468   0.0000       1.217087        33.1186 
 469   0.0000       1.220861        33.2213 
 470   0.0000       1.226845        33.3841 
 471   0.0000       1.229301        33.4510 
 472   0.0000       1.233357        33.5613 
 473   0.0000       1.237734        33.6805 
 474   0.0000       1.238880        33.7116 
 475   0.0000       1.242900        33.8210 
 476   0.0000       1.246291        33.9133 
 477   0.0000       1.250038        34.0153 
 478   0.0000       1.257274        34.2122 
 479   0.0000       1.258068        34.2338 
 480   0.0000       1.258470        34.2447 
 481   0.0000       1.264108        34.3981 
 482   0.0000       1.265409        34.4335 
 483   0.0000       1.269595        34.5474 
 484   0.0000       1.275767        34.7154 
 485   0.0000       1.282310        34.8934 
 486   0.0000       1.283664        34.9303 
 487   0.0000       1.286544        35.0086 
 488   0.0000       1.289495        35.0889 
 489   0.0000       1.292135        35.1608 
 490   0.0000       1.295553        35.2538 
 491   0.0000       1.299853        35.3708 
 492   0.0000       1.302633        35.4464 
 493   0.0000       1.305843        35.5338 
 494   0.0000       1.310803        35.6688 
 495   0.0000       1.314534        35.7703 
 496   0.0000       1.319392        35.9025 
 497   0.0000       1.322976        36.0000 
 498   0.0000       1.324964        36.0541 
 499   0.0000       1.331213        36.2242 
 500   0.0000       1.332690        36.2643 
 501   0.0000       1.336926        36.3796 
 502   0.0000       1.340102        36.4660 
 503   0.0000       1.342956        36.5437 
 504   0.0000       1.346243        36.6331 
[...]
      pz      :     0.021743  p :     0.079239
      px      :     0.042803
      py      :     0.014693
 77 H s       :     0.896279  s :     0.896279
      pz      :     0.047067  p :     0.078281
      px      :     0.015002
      py      :     0.016212
 78 H s       :     0.896678  s :     0.896678
      pz      :     0.025417  p :     0.078191
      px      :     0.020723
      py      :     0.032050
 79 H s       :     0.906988  s :     0.906988
      pz      :     0.022658  p :     0.087331
      px      :     0.021912
      py      :     0.042761
 80 H s       :     0.880733  s :     0.880733
      pz      :     0.038078  p :     0.083091
      px      :     0.029440
      py      :     0.015573
 81 H s       :     0.888967  s :     0.888967
      pz      :     0.037525  p :     0.083237
      px      :     0.016069
      py      :     0.029643
 82 H s       :     0.914179  s :     0.914179
      pz      :     0.022550  p :     0.087184
      px      :     0.030864
      py      :     0.033770
 83 H s       :     0.872307  s :     0.872307
      pz      :     0.039156  p :     0.083596
      px      :     0.015247
      py      :     0.029193
 84 H s       :     0.889030  s :     0.889030
      pz      :     0.035806  p :     0.084519
      px      :     0.031808
      py      :     0.016905
 85 H s       :     0.896426  s :     0.896426
      pz      :     0.022508  p :     0.079585
      px      :     0.014165
      py      :     0.042912
 86 H s       :     0.890824  s :     0.890824
      pz      :     0.024693  p :     0.078888
      px      :     0.032987
      py      :     0.021207
 87 H s       :     0.891499  s :     0.891499
      pz      :     0.047782  p :     0.078567
      px      :     0.015664
      py      :     0.015121
 88 H s       :     0.918805  s :     0.918805
      pz      :     0.022601  p :     0.086825
      px      :     0.041909
      py      :     0.022316
 89 H s       :     0.875766  s :     0.875766
      pz      :     0.037786  p :     0.084042
      px      :     0.030455
      py      :     0.015800


                      *****************************
                      * MAYER POPULATION ANALYSIS *
                      *****************************

  NA   - Mulliken gross atomic population
  ZA   - Total nuclear charge
  QA   - Mulliken gross atomic charge
  VA   - Mayer's total valence
  BVA  - Mayer's bonded valence
  FA   - Mayer's free valence

  ATOM       NA         ZA         QA         VA         BVA        FA
  0 C      5.7633     6.0000     0.2367     3.7989     3.7989    -0.0000
  1 N      7.4108     7.0000    -0.4108     3.4846     3.4846     0.0000
  2 C      6.0665     6.0000    -0.0665     3.9206     3.9206    -0.0000
  3 N      7.3444     7.0000    -0.3444     3.4192     3.4192     0.0000
  4 C      6.0677     6.0000    -0.0677     3.9527     3.9527     0.0000
  5 N      7.5661     7.0000    -0.5661     3.0656     3.0656    -0.0000
  6 C      6.0280     6.0000    -0.0280     3.9590     3.9590    -0.0000
  7 N      7.3368     7.0000    -0.3368     3.4457     3.4457    -0.0000
  8 C      5.7637     6.0000     0.2363     3.7985     3.7985    -0.0000
  9 N      7.5664     7.0000    -0.5664     3.0927     3.0927    -0.0000
 10 C      5.8970     6.0000     0.1030     3.8573     3.8573     0.0000
 11 N      7.4402     7.0000    -0.4402     3.3708     3.3708     0.0000
 12 C      6.0580     6.0000    -0.0580     3.9084     3.9084     0.0000
 13 N      7.4519     7.0000    -0.4519     3.3129     3.3129     0.0000
 14 C      5.7813     6.0000     0.2187     3.8123     3.8123     0.0000
 15 N      7.4418     7.0000    -0.4418     3.3621     3.3621     0.0000
 16 C      5.7420     6.0000     0.2580     3.8065     3.8065    -0.0000
 17 C      6.0293     6.0000    -0.0293     3.9590     3.9590    -0.0000
 18 C      6.1738     6.0000    -0.1738     3.6703     3.6703     0.0000
 19 C      5.7708     6.0000     0.2292     3.9036     3.9036    -0.0000
 20 C      5.8140     6.0000     0.1860     3.8207     3.8207    -0.0000
 21 C      6.0667     6.0000    -0.0667     3.8896     3.8896     0.0000
 22 C      6.0922     6.0000    -0.0922     3.9850     3.9850    -0.0000
 23 C      6.0691     6.0000    -0.0691     3.9884     3.9884     0.0000
 24 C      5.7824     6.0000     0.2176     3.8311     3.8311     0.0000
 25 C      5.8848     6.0000     0.1152     3.8944     3.8944    -0.0000
 26 C      6.0651     6.0000    -0.0651     3.9098     3.9098    -0.0000
 27 C      5.7503     6.0000     0.2497     3.9037     3.9037    -0.0000
 28 C      6.0388     6.0000    -0.0388     3.9912     3.9912    -0.0000
 29 C      6.1977     6.0000    -0.1977     3.7282     3.7282    -0.0000
 30 C      5.7804     6.0000     0.2196     3.7771     3.7771    -0.0000
 31 C      5.8138     6.0000     0.1862     3.8341     3.8341    -0.0000
 32 C      6.0643     6.0000    -0.0643     3.9129     3.9129    -0.0000
 33 C      6.1041     6.0000    -0.1041     3.9838     3.9838    -0.0000
 34 C      6.0504     6.0000    -0.0504     4.0001     4.0001    -0.0000
 35 C      5.8236     6.0000     0.1764     3.8301     3.8301    -0.0000
 36 C      5.8784     6.0000     0.1216     3.9120     3.9120     0.0000
 37 C      6.0709     6.0000    -0.0709     3.9131     3.9131    -0.0000
 38 C      5.7548     6.0000     0.2452     3.7939     3.7939    -0.0000
 39 C      6.0658     6.0000    -0.0658     3.9995     3.9995    -0.0000
 40 C      6.2055     6.0000    -0.2055     3.7535     3.7535    -0.0000
 41 C      5.7843     6.0000     0.2157     3.8731     3.8731     0.0000
 42 C      5.7873     6.0000     0.2127     3.8332     3.8332    -0.0000
 43 C      6.0778     6.0000    -0.0778     3.9051     3.9051    -0.0000
 44 C      6.0927     6.0000    -0.0927     3.9828     3.9828     0.0000
 45 C      6.0371     6.0000    -0.0371     3.9965     3.9965    -0.0000
 46 C      5.8177     6.0000     0.1823     3.8195     3.8195    -0.0000
 47 C      5.8831     6.0000     0.1169     3.8976     3.8976    -0.0000
 48 C      6.0828     6.0000    -0.0828     3.8970     3.8970     0.0000
 49 C      5.7939     6.0000     0.2061     3.8605     3.8605    -0.0000
 50 C      6.0688     6.0000    -0.0688     3.9903     3.9903     0.0000
 51 C      6.1886     6.0000    -0.1886     3.7431     3.7431    -0.0000
 52 H      0.9158     1.0000     0.0842     0.9818     0.9818     0.0000
 53 H      1.0063     1.0000    -0.0063     1.0027     1.0027    -0.0000
 54 H      0.9314     1.0000     0.0686     1.0046     1.0046    -0.0000
 55 H      0.9176     1.0000     0.0824     0.9826     0.9826    -0.0000
 56 H      0.9131     1.0000     0.0869     0.9727     0.9727    -0.0000
 57 H      0.9225     1.0000     0.0775     0.9848     0.9848    -0.0000
 58 H      0.9238     1.0000     0.0762     0.9871     0.9871     0.0000
 59 H      1.0303     1.0000    -0.0303     0.9961     0.9961    -0.0000
 60 H      0.9307     1.0000     0.0693     1.0045     1.0045    -0.0000
 61 H      0.8225     1.0000     0.1775     1.0439     1.0439    -0.0000
 62 H      0.8326     1.0000     0.1674     1.0433     1.0433    -0.0000
 63 H      0.9481     1.0000     0.0519     0.9864     0.9864    -0.0000
 64 H      1.0356     1.0000    -0.0356     0.9927     0.9927     0.0000
 65 H      0.9605     1.0000     0.0395     1.0076     1.0076     0.0000
 66 H      0.9459     1.0000     0.0541     0.9847     0.9847     0.0000
 67 H      0.9427     1.0000     0.0573     0.9715     0.9715    -0.0000
 68 H      0.9446     1.0000     0.0554     0.9863     0.9863     0.0000
 69 H      0.9414     1.0000     0.0586     0.9830     0.9830    -0.0000
 70 H      1.0123     1.0000    -0.0123     0.9986     0.9986    -0.0000
 71 H      0.9540     1.0000     0.0460     1.0077     1.0077    -0.0000
 72 H      0.9641     1.0000     0.0359     0.9861     0.9861     0.0000
 73 H      1.0195     1.0000    -0.0195     0.9961     0.9961     0.0000
 74 H      0.9721     1.0000     0.0279     1.0090     1.0090    -0.0000
 75 H      0.9655     1.0000     0.0345     0.9868     0.9868     0.0000
 76 H      0.9551     1.0000     0.0449     0.9700     0.9700    -0.0000
 77 H      0.9549     1.0000     0.0451     0.9841     0.9841    -0.0000
 78 H      0.9557     1.0000     0.0443     0.9834     0.9834     0.0000
 79 H      1.0115     1.0000    -0.0115     1.0021     1.0021     0.0000
 80 H      0.9724     1.0000     0.0276     1.0061     1.0061    -0.0000
 81 H      0.9501     1.0000     0.0499     0.9852     0.9852    -0.0000
 82 H      1.0231     1.0000    -0.0231     0.9952     0.9952    -0.0000
 83 H      0.9575     1.0000     0.0425     1.0109     1.0109     0.0000
 84 H      0.9512     1.0000     0.0488     0.9865     0.9865    -0.0000
 85 H      0.9463     1.0000     0.0537     0.9713     0.9713    -0.0000
 86 H      0.9437     1.0000     0.0563     0.9841     0.9841    -0.0000
 87 H      0.9459     1.0000     0.0541     0.9852     0.9852    -0.0000
 88 H      1.0313     1.0000    -0.0313     0.9907     0.9907    -0.0000
 89 H      0.9618     1.0000     0.0382     1.0058     1.0058     0.0000

  Mayer bond orders larger than 0.100000
B(  0-C ,  1-N ) :   1.2115 B(  0-C , 17-C ) :   1.5081 B(  0-C , 52-H ) :   0.9665 
B(  1-N ,  8-C ) :   1.2081 B(  1-N , 10-C ) :   0.9237 B(  2-C , 12-C ) :   1.5826 
B(  2-C , 16-C ) :   1.2702 B(  2-C , 53-H ) :   0.9793 B(  3-N , 14-C ) :   1.1741 
B(  3-N , 16-C ) :   1.2020 B(  3-N , 61-H ) :   0.8951 B(  4-C ,  6-C ) :   1.3600 
B(  4-C , 17-C ) :   1.3663 B(  4-C , 18-C ) :   1.0469 B(  5-N , 19-C ) :   1.3632 
B(  5-N , 27-C ) :   1.4494 B(  6-C ,  8-C ) :   1.5120 B(  6-C , 54-H ) :   0.9705 
B(  7-N , 30-C ) :   1.1834 B(  7-N , 38-C ) :   1.2161 B(  7-N , 62-H ) :   0.9016 
B(  8-C , 55-H ) :   0.9675 B(  9-N , 41-C ) :   1.4355 B(  9-N , 49-C ) :   1.3923 
B( 10-C , 56-H ) :   0.9767 B( 10-C , 57-H ) :   0.9807 B( 10-C , 58-H ) :   0.9814 
B( 11-N , 20-C ) :   1.0953 B( 11-N , 24-C ) :   1.1343 B( 11-N , 25-C ) :   0.9627 
B( 12-C , 14-C ) :   1.2708 B( 12-C , 59-H ) :   0.9768 B( 13-N , 31-C ) :   1.0810 
B( 13-N , 35-C ) :   1.0704 B( 13-N , 36-C ) :   0.9831 B( 14-C , 18-C ) :   1.2656 
B( 15-N , 42-C ) :   1.1265 B( 15-N , 46-C ) :   1.0882 B( 15-N , 47-C ) :   0.9666 
B( 16-C , 51-C ) :   1.2507 B( 17-C , 60-H ) :   0.9706 B( 18-C , 19-C ) :   1.3140 
B( 19-C , 21-C ) :   1.1607 B( 20-C , 28-C ) :   1.6298 B( 20-C , 63-H ) :   0.9710 
B( 21-C , 26-C ) :   1.6841 B( 21-C , 64-H ) :   0.9717 B( 22-C , 23-C ) :   1.2540 
B( 22-C , 28-C ) :   1.2796 B( 22-C , 29-C ) :   1.2578 B( 23-C , 24-C ) :   1.6360 
B( 23-C , 65-H ) :   0.9723 B( 24-C , 66-H ) :   0.9691 B( 25-C , 67-H ) :   0.9762 
B( 25-C , 68-H ) :   0.9834 B( 25-C , 69-H ) :   0.9819 B( 26-C , 27-C ) :   1.1704 
B( 26-C , 70-H ) :   0.9758 B( 27-C , 29-C ) :   1.2433 B( 28-C , 71-H ) :   0.9709 
B( 29-C , 30-C ) :   1.1741 B( 30-C , 32-C ) :   1.3520 B( 31-C , 39-C ) :   1.6866 
B( 31-C , 72-H ) :   0.9709 B( 32-C , 37-C ) :   1.5081 B( 32-C , 73-H ) :   0.9771 
B( 33-C , 34-C ) :   1.2311 B( 33-C , 39-C ) :   1.2234 B( 33-C , 40-C ) :   1.3618 
B( 34-C , 35-C ) :   1.6852 B( 34-C , 74-H ) :   0.9709 B( 35-C , 75-H ) :   0.9709 
B( 36-C , 76-H ) :   0.9755 B( 36-C , 77-H ) :   0.9826 B( 36-C , 78-H ) :   0.9838 
B( 37-C , 38-C ) :   1.3454 B( 37-C , 79-H ) :   0.9793 B( 38-C , 40-C ) :   1.1777 
B( 39-C , 80-H ) :   0.9721 B( 40-C , 41-C ) :   1.1665 B( 41-C , 43-C ) :   1.2583 
B( 42-C , 50-C ) :   1.6425 B( 42-C , 81-H ) :   0.9696 B( 43-C , 48-C ) :   1.5928 
B( 43-C , 82-H ) :   0.9757 B( 44-C , 45-C ) :   1.2812 B( 44-C , 50-C ) :   1.2483 
B( 44-C , 51-C ) :   1.2467 B( 45-C , 46-C ) :   1.6331 B( 45-C , 83-H ) :   0.9702 
B( 46-C , 84-H ) :   0.9709 B( 47-C , 85-H ) :   0.9759 B( 47-C , 86-H ) :   0.9826 
B( 47-C , 87-H ) :   0.9830 B( 48-C , 49-C ) :   1.2524 B( 48-C , 88-H ) :   0.9725 
B( 49-C , 51-C ) :   1.1877 B( 50-C , 89-H ) :   0.9723 

-------
TIMINGS
-------

Total SCF time: 0 days 0 hours 31 min 13 sec 

Total time                  ....    1873.625 sec
Sum of individual times     ....    1868.755 sec  ( 99.7%)

Fock matrix formation       ....    1840.933 sec  ( 98.3%)
Diagonalization             ....       7.296 sec  (  0.4%)
Density matrix formation    ....       0.571 sec  (  0.0%)
Population analysis         ....       0.586 sec  (  0.0%)
Initial guess               ....       2.504 sec  (  0.1%)
Orbital Transformation      ....       0.000 sec  (  0.0%)
Orbital Orthonormalization  ....       0.000 sec  (  0.0%)
DIIS solution               ....       3.247 sec  (  0.2%)
SOSCF solution              ....      12.320 sec  (  0.7%)

Maximum memory used throughout the entire SCF-calculation: 302.6 MB


           ************************************************************
           *        Program running with 16 parallel MPI-processes    *
           *              working on a common directory               *
           ************************************************************

------------------------------------------------------------------------------
                                ORCA  MP2 
------------------------------------------------------------------------------

Freezing NCore=104 chemical core electrons

----------
MP2 ENERGY (disk based algorithm)
----------

Dimension of the basis                    ...  918
Memory devoted to MP2                     ... 2000 MB   
Data format for buffers                   ... DOUBLE
Compression type for matrix containers    ... UNCOMPRESSED

-------------------------------
PARTIAL EXCHANGE TRANSFORMATION
-------------------------------

Transformation type                        ... one-operator
Generation of integrals (i,mue|j,nue)      ... ON
Generation of integrals (mue,kappa|nue,tau)... OFF
Generation of integrals (i,mue|a,nue)      ... OFF
Dimension of the basis                     ...  918
Number of internal MOs                     ...  127 (  52- 178)
Pair cutoff                                ... 2.500e-12 Eh
Number of AO pairs in the trafo            ... 421821
Total Number of distinct AO pairs          ... 421821
Memory devoted for trafo                   ... 2000.0 MB 
Max. Number of MO pairs treated together   ...  311      
Number Format for Storage                  ... Double (8 Byte)
Integral package used                      ... LIBINT

Starting integral evaluation:
    ... done with AO integral generation
Closing buffer AOK     (37.66 GB; CompressionRatio= 1.35)
Collecting buffer AOK 
Number of MO pairs included in the trafo   ... 8128
------------------------
SORTING OF (i,mue|j,nue)
------------------------

IBATCH = 1 of  2
IBATCH = 2 of  2
Closing buffer KAO     (51.03 GB; CompressionRatio= 1.00)
Collecting buffer KAO 
N(AO-Batches) Done                         ...  85541087 
N(AO-Batches) Skipped                      ...  81946404 
N(IJ)-pairs Skipped                        ...         0 
TOTAL TIME for half transformation         ...  2261.696 sec
AO-integral generation                     ...   209.997 sec
Half transformation                        ...   424.904 sec
K-integral sorting                         ...  1407.663 sec
Process 10:   Internal MO 132
Process 13:   Internal MO 156

Finished integral transformation - now doing MP2 part

Process  4:   Internal MO  84
Process  7:   Internal MO 108
OPERATOR COMBINATION   0   0: ij=( 52..178, 52..178)
Process  1:   Internal MO  60
Process  2:   Internal MO  69
Process  0:   Internal MO  54
Process  1:   Internal MO  63
Process  5:   Internal MO  93
Process  0:   Internal MO  57
Process  3:   Internal MO  78
Process  8:   Internal MO 117
Process  1:   Internal MO  66
Process  2:   Internal MO  72
Process 14:   Internal MO 165
Process  6:   Internal MO 102
Process  4:   Internal MO  87
Process 11:   Internal MO 141
Process  3:   Internal MO  81
Process  9:   Internal MO 126
Process  7:   Internal MO 111
Process  2:   Internal MO  75
Process  5:   Internal MO  96
Process 12:   Internal MO 150
Process  4:   Internal MO  90
Process  8:   Internal MO 120
Process 10:   Internal MO 135
Process 15:   Internal MO 174
Process  6:   Internal MO 105
Process  5:   Internal MO  99
Process  7:   Internal MO 114
Process  9:   Internal MO 129
Process 13:   Internal MO 159
Process 11:   Internal MO 144
Process  8:   Internal MO 123
Process 14:   Internal MO 168
Process 12:   Internal MO 153
Process 10:   Internal MO 138
Process 15:   Internal MO 177
Process 11:   Internal MO 147
Process 13:   Internal MO 162
Process 14:   Internal MO 171
-----------------------------------------------
 MP2 CORRELATION ENERGY   :     -7.259935221 Eh
-----------------------------------------------


-------
TIMINGS
-------
Total time                : 2560.233 sec
Integral trafo            : 2264.262 sec ( 88.4%)
K(i,j)                    :   11.596 sec (  0.5%)
T(i,j)                    :    0.178 sec (  0.0%)

---------------------------------------
MP2 TOTAL ENERGY:    -2130.870349193 Eh
---------------------------------------

Maximum memory used throughout the entire MP2-calculation: 2275.2 MB

-------------------------   --------------------
FINAL SINGLE POINT ENERGY     -2130.870349193309
-------------------------   --------------------


                            ***************************************
                            *     ORCA property calculations      *
                            ***************************************


  WARNING: The energy has been calculated at the MP2 level but the densities
           used in the property calculations are still SCF densities
           MP2 response densities have not been calculated 
           use %mp2 Density relaxed end
           or  %mp2 Density unrelaxed end

                                    ---------------------
                                    Active property flags
                                    ---------------------
   (+) Dipole Moment


------------------------------------------------------------------------------
                       ORCA ELECTRIC PROPERTIES CALCULATION
------------------------------------------------------------------------------

Dipole Moment Calculation                       ... on
Quadrupole Moment Calculation                   ... off
Polarizability Calculation                      ... off
GBWName                                         ... /scratch/allen/tmpyp4_amber_gaff2/conf1/conf1/Conf274.orca.gbw
Electron density                                ... /scratch/allen/tmpyp4_amber_gaff2/conf1/conf1/Conf274.orca.scfp
The origin for moment calculation is the CENTER OF MASS  = ( 0.000193, -0.003905 -0.001604)

-------------
DIPOLE MOMENT
-------------
                                X             Y             Z
Electronic contribution:     -4.72170       5.43824      -0.06169
Nuclear contribution   :      0.05356       0.22457       0.08842
                        -----------------------------------------
Total Dipole Moment    :     -4.66814       5.66281       0.02673
                        -----------------------------------------
Magnitude (a.u.)       :      7.33891
Magnitude (Debye)      :     18.65403



--------------------
Rotational spectrum 
--------------------
 
Rotational constants in cm-1:     0.001498     0.001472     0.000763 
Rotational constants in MHz :    44.915006    44.124642    22.868316 

 Dipole components along the rotational axes: 
x,y,z [a.u.] :    -6.475021     3.454402     0.028917 
x,y,z [Debye]:   -16.458196     8.780391     0.073502 

 

Timings for individual modules:

Sum of individual times         ...     4454.304 sec (=  74.238 min)
GTO integral calculation        ...        3.453 sec (=   0.058 min)   0.1 %
SCF iterations                  ...     1874.882 sec (=  31.248 min)  42.1 %
MP2 module                      ...     2575.969 sec (=  42.933 min)  57.8 %
                             ****ORCA TERMINATED NORMALLY****
TOTAL RUN TIME: 0 days 1 hours 14 minutes 17 seconds 664 msec
# of primitive gaussian functions

