
                                 *****************
                                 * O   R   C   A *
                                 *****************

                                            #,                                       
                                            ###                                      
                                            ####                                     
                                            #####                                    
                                            ######                                   
                                           ########,                                 
                                     ,,################,,,,,                         
                               ,,#################################,,                 
                          ,,##########################################,,             
                       ,#########################################, ''#####,          
                    ,#############################################,,   '####,        
                  ,##################################################,,,,####,       
                ,###########''''           ''''###############################       
              ,#####''   ,,,,##########,,,,          '''####'''          '####       
            ,##' ,,,,###########################,,,                        '##       
           ' ,,###''''                  '''############,,,                           
         ,,##''                                '''############,,,,        ,,,,,,###''
      ,#''                                            '''#######################'''  
     '                                                          ''''####''''         
             ,#######,   #######,   ,#######,      ##                                
            ,#'     '#,  ##    ##  ,#'     '#,    #''#        ######   ,####,        
            ##       ##  ##   ,#'  ##            #'  '#       #        #'  '#        
            ##       ##  #######   ##           ,######,      #####,   #    #        
            '#,     ,#'  ##    ##  '#,     ,#' ,#      #,         ##   #,  ,#        
             '#######'   ##     ##  '#######'  #'      '#     #####' # '####'        



                  #######################################################
                  #                        -***-                        #
                  #          Department of theory and spectroscopy      #
                  #    Directorship and core code : Frank Neese         #
                  #        Max Planck Institute fuer Kohlenforschung    #
                  #                Kaiser Wilhelm Platz 1               #
                  #                 D-45470 Muelheim/Ruhr               #
                  #                      Germany                        #
                  #                                                     #
                  #                  All rights reserved                #
                  #                        -***-                        #
                  #######################################################


                         Program Version 5.0.4 -  RELEASE  -


 With contributions from (in alphabetic order):
   Daniel Aravena         : Magnetic Suceptibility
   Michael Atanasov       : Ab Initio Ligand Field Theory (pilot matlab implementation)
   Alexander A. Auer      : GIAO ZORA, VPT2 properties, NMR spectrum
   Ute Becker             : Parallelization
   Giovanni Bistoni       : ED, misc. LED, open-shell LED, HFLD
   Martin Brehm           : Molecular dynamics
   Dmytro Bykov           : SCF Hessian
   Vijay G. Chilkuri      : MRCI spin determinant printing, contributions to CSF-ICE
   Dipayan Datta          : RHF DLPNO-CCSD density
   Achintya Kumar Dutta   : EOM-CC, STEOM-CC
   Dmitry Ganyushin       : Spin-Orbit,Spin-Spin,Magnetic field MRCI
   Miquel Garcia          : C-PCM and meta-GGA Hessian, CC/C-PCM, Gaussian charge scheme
   Yang Guo               : DLPNO-NEVPT2, F12-NEVPT2, CIM, IAO-localization
   Andreas Hansen         : Spin unrestricted coupled pair/coupled cluster methods
   Benjamin Helmich-Paris : MC-RPA, TRAH-SCF, COSX integrals
   Lee Huntington         : MR-EOM, pCC
   Robert Izsak           : Overlap fitted RIJCOSX, COSX-SCS-MP3, EOM
   Marcus Kettner         : VPT2
   Christian Kollmar      : KDIIS, OOCD, Brueckner-CCSD(T), CCSD density, CASPT2, CASPT2-K
   Simone Kossmann        : Meta GGA functionals, TD-DFT gradient, OOMP2, MP2 Hessian
   Martin Krupicka        : Initial AUTO-CI
   Lucas Lang             : DCDCAS
   Marvin Lechner         : AUTO-CI (C++ implementation), FIC-MRCC
   Dagmar Lenk            : GEPOL surface, SMD
   Dimitrios Liakos       : Extrapolation schemes; Compound Job, initial MDCI parallelization
   Dimitrios Manganas     : Further ROCIS development; embedding schemes
   Dimitrios Pantazis     : SARC Basis sets
   Anastasios Papadopoulos: AUTO-CI, single reference methods and gradients
   Taras Petrenko         : DFT Hessian,TD-DFT gradient, ASA, ECA, R-Raman, ABS, FL, XAS/XES, NRVS
   Peter Pinski           : DLPNO-MP2, DLPNO-MP2 Gradient
   Christoph Reimann      : Effective Core Potentials
   Marius Retegan         : Local ZFS, SOC
   Christoph Riplinger    : Optimizer, TS searches, QM/MM, DLPNO-CCSD(T), (RO)-DLPNO pert. Triples
   Tobias Risthaus        : Range-separated hybrids, TD-DFT gradient, RPA, STAB
   Michael Roemelt        : Original ROCIS implementation
   Masaaki Saitow         : Open-shell DLPNO-CCSD energy and density
   Barbara Sandhoefer     : DKH picture change effects
   Avijit Sen             : IP-ROCIS
   Kantharuban Sivalingam : CASSCF convergence, NEVPT2, FIC-MRCI
   Bernardo de Souza      : ESD, SOC TD-DFT
   Georgi Stoychev        : AutoAux, RI-MP2 NMR, DLPNO-MP2 response
   Willem Van den Heuvel  : Paramagnetic NMR
   Boris Wezisla          : Elementary symmetry handling
   Frank Wennmohs         : Technical directorship


 We gratefully acknowledge several colleagues who have allowed us to
 interface, adapt or use parts of their codes:
   Stefan Grimme, W. Hujo, H. Kruse, P. Pracht,  : VdW corrections, initial TS optimization,
                  C. Bannwarth, S. Ehlert          DFT functionals, gCP, sTDA/sTD-DF
   Ed Valeev, F. Pavosevic, A. Kumar             : LibInt (2-el integral package), F12 methods
   Garnet Chan, S. Sharma, J. Yang, R. Olivares  : DMRG
   Ulf Ekstrom                                   : XCFun DFT Library
   Mihaly Kallay                                 : mrcc  (arbitrary order and MRCC methods)
   Jiri Pittner, Ondrej Demel                    : Mk-CCSD
   Frank Weinhold                                : gennbo (NPA and NBO analysis)
   Christopher J. Cramer and Donald G. Truhlar   : smd solvation model
   Lars Goerigk                                  : TD-DFT with DH, B97 family of functionals
   V. Asgeirsson, H. Jonsson                     : NEB implementation
   FAccTs GmbH                                   : IRC, NEB, NEB-TS, DLPNO-Multilevel, CI-OPT
                                                   MM, QMMM, 2- and 3-layer-ONIOM, Crystal-QMMM,
                                                   LR-CPCM, SF, NACMEs, symmetry and pop. for TD-DFT,
                                                   nearIR, NL-DFT gradient (VV10), updates on ESD,
                                                   ML-optimized integration grids
   S Lehtola, MJT Oliveira, MAL Marques          : LibXC Library
   Liviu Ungur et al                             : ANISO software


 Your calculation uses the libint2 library for the computation of 2-el integrals
 For citations please refer to: http://libint.valeyev.net

 Your ORCA version has been built with support for libXC version: 5.1.0
 For citations please refer to: https://tddft.org/programs/libxc/

 This ORCA versions uses:
   CBLAS   interface :  Fast vector & matrix operations
   LAPACKE interface :  Fast linear algebra routines
   SCALAPACK package :  Parallel linear algebra routines
   Shared memory     :  Shared parallel matrices
   BLAS/LAPACK       :  OpenBLAS 0.3.15  USE64BITINT DYNAMIC_ARCH NO_AFFINITY Sandybridge SINGLE_THREADED
        Core in use  :  Sandybridge
   Copyright (c) 2011-2014, The OpenBLAS Project


================================================================================

----- Orbital basis set information -----
Your calculation utilizes the basis: cc-pVDZ 
       H, B-Ne : Obtained from the ccRepo (grant-hill.group.shef.ac.uk/ccrepo) Feb. 2017
                 T. H. Dunning, Jr., J. Chem. Phys. 90, 1007 (1989)
            He : Obtained from the ccRepo (grant-hill.group.shef.ac.uk/ccrepo) Feb. 2017
                 D. E. Woon, T. H. Dunning, Jr., J. Chem. Phys. 100, 2975 (1994)
  Li-Be, Na-Mg : Obtained from the ccRepo (grant-hill.group.shef.ac.uk/ccrepo) Feb. 2017
                 B. P. Prascher, D. E. Woon, K. A. Peterson, T. H. Dunning, Jr., A. K. Wilson, Theor. Chem. Acc. 128, 69 (2011)
         Al-Ar : Obtained from the ccRepo (grant-hill.group.shef.ac.uk/ccrepo) Feb. 2017
                 D. E. Woon, T. H. Dunning, Jr., J. Chem. Phys. 98, 1358 (1993)
            Ca : Obtained from the Peterson Research Group Website (tyr0.chem.wsu.edu/~kipeters) Feb. 2017
                 J. Koput, K. A. Peterson, J. Phys. Chem. 106, 9595 (2002)
         Sc-Zn : Obtained from the ccRepo (grant-hill.group.shef.ac.uk/ccrepo) Feb. 2017
                 N. B. Balabanov, K. A. Peterson, J. Chem. Phys. 123, 064107 (2005)
                 N. B. Balabanov, K. A. Peterson, J. Chem. Phys. 125, 074110 (2006)
         Ga-Kr : Obtained from the ccRepo (grant-hill.group.shef.ac.uk/ccrepo) Feb. 2017
                 A. K. Wilson, D. E. Woon, K. A. Peterson, T. H. Dunning, Jr., J. Chem. Phys. 110, 7667 (1999)

================================================================================
                                        WARNINGS
                       Please study these warnings very carefully!
================================================================================


WARNING: No MP2 level density has been requested!
         To caclulate MP2 level properties use
         %mp2 Density relaxed end
         or
         %mp2 Density unrelaxed end

WARNING: Post HF methods need fully converged wavefunctions
  ===> : Setting SCFConvForced true
         You can overwrite this default with %scf ConvForced false 


INFO   : the flag for use of the SHARK integral package has been found!

================================================================================
                                       INPUT FILE
================================================================================
NAME = /scratch/allen/tmpyp4_amber_gaff2/2.Mdgx/conf11/conf11/Conf210.orca
|  1> ! PAL2
|  2> ! mp2 cc-pvdz TightSCF  NoKeepInts
|  3> 
|  4> %scf
|  5>   MaxCore 2000
|  6> end
|  7> %mp2
|  8>   MaxCore 2000
|  9> end
| 10> * xyz 0 1
| 11>    C       -4.84700         5.24500         0.61100
| 12>    C        1.47400         4.04100         0.05700
| 13>    C       -2.80200         4.09300         0.04900
| 14>    C       -2.33400         5.29700        -0.49900
| 15>    C       -3.12800         6.42600        -0.47200
| 16>    C       -5.17700         7.62600         0.12200
| 17>    C        0.13200         4.30700         0.06100
| 18>    C       -0.56900         3.05600         0.04700
| 19>    C        1.64900         2.61800         0.02300
| 20>    C       -4.08700         4.09100         0.61300
| 21>    N       -4.36600         6.39000         0.07400
| 22>    N        0.38800         2.06700         0.02500
| 23>    N       -2.01000         0.39500        -0.07500
| 24>    N       -0.38800        -2.07400        -0.02700
| 25>    N        2.01000        -0.40100         0.06500
| 26>    C       -1.96000         2.86100         0.02400
| 27>    C       -2.62300         1.61500        -0.01800
| 28>    C       -5.57300        -4.32900         1.06600
| 29>    C       -4.07300         1.47100         0.05600
| 30>    C       -4.10600        -2.75600        -0.02600
| 31>    C       -4.99500        -2.75700        -1.11100
| 32>    C       -6.13200        -3.54200        -1.07600
| 33>    C       -7.65100        -5.11300         0.04000
| 34>    C       -4.32400         0.14100         0.03700
| 35>    C       -3.02500        -0.52000        -0.04800
| 36>    C       -4.42200        -3.56600         1.07500
| 37>    N       -6.40700        -4.31300         0.00100
| 38>    C       -2.86700        -1.92200        -0.04000
| 39>    C       -1.65000        -2.62400        -0.02700
| 40>    C        3.56800        -6.14200        -1.04000
| 41>    C       -1.47600        -4.04900        -0.03400
| 42>    C        2.80300        -4.09900        -0.00800
| 43>    C        3.65700        -4.38400         1.06900
| 44>    C        4.42700        -5.53000         1.05900
| 45>    C        5.24500        -7.58800         0.01400
| 46>    C       -0.13400        -4.31500        -0.02200
| 47>    C        0.56800        -3.06400        -0.02700
| 48>    C        2.77500        -5.01200        -1.07400
| 49>    N        4.37600        -6.39100         0.01700
| 50>    C        1.95900        -2.86900        -0.00900
| 51>    C        2.62100        -1.62200         0.00900
| 52>    C        5.54300         4.33900        -1.13000
| 53>    C        4.07000        -1.47900        -0.09400
| 54>    C        4.10400         2.75100        -0.02100
| 55>    C        5.02700         2.72900         1.03600
| 56>    C        6.16600         3.50900         0.97800
| 57>    C        7.61900         5.15300        -0.11500
| 58>    C        4.32100        -0.14800        -0.09200
| 59>    C        3.02500         0.51400         0.01500
| 60>    C        4.38700         3.58200        -1.11500
| 61>    C        2.86600         1.91600         0.01300
| 62>    N        6.41300         4.29600        -0.09500
| 63>    H       -5.84700         5.28700         1.02400
| 64>    H        2.27400         4.76600         0.08100
| 65>    H       -1.34700         5.36500        -0.94000
| 66>    H       -2.80700         7.37900        -0.87300
| 67>    H       -4.91200         8.19100         1.01800
| 68>    H       -4.96900         8.21700        -0.77000
| 69>    H       -6.23200         7.35200         0.15000
| 70>    H       -0.33200         5.28200         0.06900
| 71>    H       -4.51000         3.18900         1.03900
| 72>    H        0.18200         1.07200         0.00500
| 73>    H       -0.18300        -1.08000        -0.02100
| 74>    H       -5.86400        -4.96200         1.89500
| 75>    H       -4.79400         2.27200         0.13900
| 76>    H       -4.80000        -2.16000        -1.99400
| 77>    H       -6.84100        -3.58200        -1.89300
| 78>    H       -8.42800        -4.53600         0.54600
| 79>    H       -7.95600        -5.33700        -0.98100
| 80>    H       -7.45600        -6.03700         0.58400
| 81>    H       -5.28700        -0.34400         0.10000
| 82>    H       -3.78000        -3.60100         1.94700
| 83>    H        3.58700        -6.86800        -1.84300
| 84>    H       -2.27600        -4.77400        -0.05000
| 85>    H        3.71400        -3.72400         1.92600
| 86>    H        5.09200        -5.79500         1.87100
| 87>    H        6.20500        -7.32900        -0.43900
| 88>    H        5.39300        -7.91700         1.04200
| 89>    H        4.75900        -8.37300        -0.56400
| 90>    H        0.32900        -5.29000        -0.00800
| 91>    H        2.14600        -4.84200        -1.94000
| 92>    H        5.80800         4.98600        -1.95600
| 93>    H        4.78800        -2.28100        -0.18500
| 94>    H        4.86000         2.11400         1.91200
| 95>    H        6.90100         3.53100         1.77200
| 96>    H        7.38300         6.10900         0.35600
| 97>    H        8.41400         4.65200         0.43500
| 98>    H        7.92100         5.31000        -1.15000
| 99>    H        5.28300         0.33600        -0.17900
|100>    H        3.72000         3.63200        -1.96700
|101> *
|102> 
|103>                          ****END OF INPUT****
================================================================================

                       ****************************
                       * Single Point Calculation *
                       ****************************

---------------------------------
CARTESIAN COORDINATES (ANGSTROEM)
---------------------------------
  C     -4.847000    5.245000    0.611000
  C      1.474000    4.041000    0.057000
  C     -2.802000    4.093000    0.049000
  C     -2.334000    5.297000   -0.499000
  C     -3.128000    6.426000   -0.472000
  C     -5.177000    7.626000    0.122000
  C      0.132000    4.307000    0.061000
  C     -0.569000    3.056000    0.047000
  C      1.649000    2.618000    0.023000
  C     -4.087000    4.091000    0.613000
  N     -4.366000    6.390000    0.074000
  N      0.388000    2.067000    0.025000
  N     -2.010000    0.395000   -0.075000
  N     -0.388000   -2.074000   -0.027000
  N      2.010000   -0.401000    0.065000
  C     -1.960000    2.861000    0.024000
  C     -2.623000    1.615000   -0.018000
  C     -5.573000   -4.329000    1.066000
  C     -4.073000    1.471000    0.056000
  C     -4.106000   -2.756000   -0.026000
  C     -4.995000   -2.757000   -1.111000
  C     -6.132000   -3.542000   -1.076000
  C     -7.651000   -5.113000    0.040000
  C     -4.324000    0.141000    0.037000
  C     -3.025000   -0.520000   -0.048000
  C     -4.422000   -3.566000    1.075000
  N     -6.407000   -4.313000    0.001000
  C     -2.867000   -1.922000   -0.040000
  C     -1.650000   -2.624000   -0.027000
  C      3.568000   -6.142000   -1.040000
  C     -1.476000   -4.049000   -0.034000
  C      2.803000   -4.099000   -0.008000
  C      3.657000   -4.384000    1.069000
  C      4.427000   -5.530000    1.059000
  C      5.245000   -7.588000    0.014000
  C     -0.134000   -4.315000   -0.022000
  C      0.568000   -3.064000   -0.027000
  C      2.775000   -5.012000   -1.074000
  N      4.376000   -6.391000    0.017000
  C      1.959000   -2.869000   -0.009000
  C      2.621000   -1.622000    0.009000
  C      5.543000    4.339000   -1.130000
  C      4.070000   -1.479000   -0.094000
  C      4.104000    2.751000   -0.021000
  C      5.027000    2.729000    1.036000
  C      6.166000    3.509000    0.978000
  C      7.619000    5.153000   -0.115000
  C      4.321000   -0.148000   -0.092000
  C      3.025000    0.514000    0.015000
  C      4.387000    3.582000   -1.115000
  C      2.866000    1.916000    0.013000
  N      6.413000    4.296000   -0.095000
  H     -5.847000    5.287000    1.024000
  H      2.274000    4.766000    0.081000
  H     -1.347000    5.365000   -0.940000
  H     -2.807000    7.379000   -0.873000
  H     -4.912000    8.191000    1.018000
  H     -4.969000    8.217000   -0.770000
  H     -6.232000    7.352000    0.150000
  H     -0.332000    5.282000    0.069000
  H     -4.510000    3.189000    1.039000
  H      0.182000    1.072000    0.005000
  H     -0.183000   -1.080000   -0.021000
  H     -5.864000   -4.962000    1.895000
  H     -4.794000    2.272000    0.139000
  H     -4.800000   -2.160000   -1.994000
  H     -6.841000   -3.582000   -1.893000
  H     -8.428000   -4.536000    0.546000
  H     -7.956000   -5.337000   -0.981000
  H     -7.456000   -6.037000    0.584000
  H     -5.287000   -0.344000    0.100000
  H     -3.780000   -3.601000    1.947000
  H      3.587000   -6.868000   -1.843000
  H     -2.276000   -4.774000   -0.050000
  H      3.714000   -3.724000    1.926000
  H      5.092000   -5.795000    1.871000
  H      6.205000   -7.329000   -0.439000
  H      5.393000   -7.917000    1.042000
  H      4.759000   -8.373000   -0.564000
  H      0.329000   -5.290000   -0.008000
  H      2.146000   -4.842000   -1.940000
  H      5.808000    4.986000   -1.956000
  H      4.788000   -2.281000   -0.185000
  H      4.860000    2.114000    1.912000
  H      6.901000    3.531000    1.772000
  H      7.383000    6.109000    0.356000
  H      8.414000    4.652000    0.435000
  H      7.921000    5.310000   -1.150000
  H      5.283000    0.336000   -0.179000
  H      3.720000    3.632000   -1.967000

----------------------------
CARTESIAN COORDINATES (A.U.)
----------------------------
  NO LB      ZA    FRAG     MASS         X           Y           Z
   0 C     6.0000    0    12.011   -9.159503    9.911614    1.154623
   1 C     6.0000    0    12.011    2.785456    7.636383    0.107714
   2 C     6.0000    0    12.011   -5.295013    7.734649    0.092597
   3 C     6.0000    0    12.011   -4.410621   10.009879   -0.942973
   4 C     6.0000    0    12.011   -5.911063   12.143380   -0.891951
   5 C     6.0000    0    12.011   -9.783112   14.411051    0.230547
   6 C     6.0000    0    12.011    0.249444    8.139050    0.115273
   7 C     6.0000    0    12.011   -1.075254    5.775003    0.088817
   8 C     6.0000    0    12.011    3.116158    4.947303    0.043464
   9 C     6.0000    0    12.011   -7.723311    7.730870    1.158402
  10 N     7.0000    0    14.007   -8.250544   12.075350    0.139840
  11 N     7.0000    0    14.007    0.733214    3.906064    0.047243
  12 N     7.0000    0    14.007   -3.798350    0.746442   -0.141729
  13 N     7.0000    0    14.007   -0.733214   -3.919292   -0.051023
  14 N     7.0000    0    14.007    3.798350   -0.757780    0.122832
  15 C     6.0000    0    12.011   -3.703863    5.406506    0.045353
  16 C     6.0000    0    12.011   -4.956752    3.051908   -0.034015
  17 C     6.0000    0    12.011  -10.531444   -8.180624    2.014448
  18 C     6.0000    0    12.011   -7.696855    2.779787    0.105825
  19 C     6.0000    0    12.011   -7.759216   -5.208085   -0.049133
  20 C     6.0000    0    12.011   -9.439182   -5.209975   -2.099486
  21 C     6.0000    0    12.011  -11.587801   -6.693410   -2.033345
  22 C     6.0000    0    12.011  -14.458295   -9.662170    0.075589
  23 C     6.0000    0    12.011   -8.171176    0.266451    0.069920
  24 C     6.0000    0    12.011   -5.716422   -0.982658   -0.090707
  25 C     6.0000    0    12.011   -8.356369   -6.738763    2.031456
  26 N     7.0000    0    14.007  -12.107475   -8.150389    0.001890
  27 C     6.0000    0    12.011   -5.417845   -3.632054   -0.075589
  28 C     6.0000    0    12.011   -3.118048   -4.958641   -0.051023
  29 C     6.0000    0    12.011    6.742543  -11.606698   -1.965315
  30 C     6.0000    0    12.011   -2.789236   -7.651501   -0.064251
  31 C     6.0000    0    12.011    5.296902   -7.745987   -0.015118
  32 C     6.0000    0    12.011    6.910728   -8.284559    2.020117
  33 C     6.0000    0    12.011    8.365818  -10.450186    2.001220
  34 C     6.0000    0    12.011    9.911614  -14.339242    0.026456
  35 C     6.0000    0    12.011   -0.253223   -8.154168   -0.041574
  36 C     6.0000    0    12.011    1.073364   -5.790121   -0.051023
  37 C     6.0000    0    12.011    5.243990   -9.471307   -2.029566
  38 N     7.0000    0    14.007    8.269442  -12.077240    0.032125
  39 C     6.0000    0    12.011    3.701973   -5.421624   -0.017008
  40 C     6.0000    0    12.011    4.952972   -3.065136    0.017008
  41 C     6.0000    0    12.011   10.474752    8.199522   -2.135391
  42 C     6.0000    0    12.011    7.691185   -2.794905   -0.177634
  43 C     6.0000    0    12.011    7.755436    5.198637   -0.039684
  44 C     6.0000    0    12.011    9.499653    5.157063    1.957756
  45 C     6.0000    0    12.011   11.652051    6.631049    1.848152
  46 C     6.0000    0    12.011   14.397823    9.737759   -0.217319
  47 C     6.0000    0    12.011    8.165507   -0.279679   -0.173855
  48 C     6.0000    0    12.011    5.716422    0.971319    0.028346
  49 C     6.0000    0    12.011    8.290229    6.768999   -2.107045
  50 C     6.0000    0    12.011    5.415955    3.620715    0.024566
  51 N     7.0000    0    14.007   12.118814    8.118263   -0.179524
  52 H     1.0000    0     1.008  -11.049229    9.990982    1.935080
  53 H     1.0000    0     1.008    4.297237    9.006435    0.153068
  54 H     1.0000    0     1.008   -2.545461   10.138381   -1.776343
  55 H     1.0000    0     1.008   -5.304461   13.944289   -1.649731
  56 H     1.0000    0     1.008   -9.282335   15.478747    1.923741
  57 H     1.0000    0     1.008   -9.390049   15.527880   -1.455089
  58 H     1.0000    0     1.008  -11.776773   13.893267    0.283459
  59 H     1.0000    0     1.008   -0.627389    9.981533    0.130391
  60 H     1.0000    0     1.008   -8.522665    6.026337    1.963425
  61 H     1.0000    0     1.008    0.343930    2.025786    0.009449
  62 H     1.0000    0     1.008   -0.345820   -2.040904   -0.039684
  63 H     1.0000    0     1.008  -11.081354   -9.376821    3.581031
  64 H     1.0000    0     1.008   -9.059347    4.293458    0.262672
  65 H     1.0000    0     1.008   -9.070685   -4.081808   -3.768114
  66 H     1.0000    0     1.008  -12.927616   -6.768999   -3.577252
  67 H     1.0000    0     1.008  -15.926612   -8.571798    1.031790
  68 H     1.0000    0     1.008  -15.034661  -10.085468   -1.853821
  69 H     1.0000    0     1.008  -14.089798  -11.408277    1.103600
  70 H     1.0000    0     1.008   -9.990982   -0.650066    0.188973
  71 H     1.0000    0     1.008   -7.143165   -6.804904    3.679297
  72 H     1.0000    0     1.008    6.778448  -12.978639   -3.482765
  73 H     1.0000    0     1.008   -4.301017   -9.021553   -0.094486
  74 H     1.0000    0     1.008    7.018443   -7.037340    3.639613
  75 H     1.0000    0     1.008    9.622485  -10.950963    3.535678
  76 H     1.0000    0     1.008   11.725751  -13.849803   -0.829590
  77 H     1.0000    0     1.008   10.191293  -14.960962    1.969095
  78 H     1.0000    0     1.008    8.993207  -15.822677   -1.065806
  79 H     1.0000    0     1.008    0.621720   -9.996651   -0.015118
  80 H     1.0000    0     1.008    4.055352   -9.150054   -3.666069
  81 H     1.0000    0     1.008   10.975529    9.422175   -3.696304
  82 H     1.0000    0     1.008    9.048009   -4.310465   -0.349599
  83 H     1.0000    0     1.008    9.184069    3.994881    3.613156
  84 H     1.0000    0     1.008   13.041000    6.672623    3.348595
  85 H     1.0000    0     1.008   13.951848   11.544337    0.672743
  86 H     1.0000    0     1.008   15.900156    8.791006    0.822031
  87 H     1.0000    0     1.008   14.968521   10.034446   -2.173185
  88 H     1.0000    0     1.008    9.983423    0.634948   -0.338261
  89 H     1.0000    0     1.008    7.029781    6.863485   -3.717091

--------------------------------
INTERNAL COORDINATES (ANGSTROEM)
--------------------------------
 C      0   0   0     0.000000000000     0.00000000     0.00000000
 C      1   0   0     6.458449736585     0.00000000     0.00000000
 C      1   2   0     2.413498083695    20.24166407     0.00000000
 C      3   1   2     1.403190649912    87.93598394   312.53847055
 C      4   3   1     1.380509326300   120.14933321     0.15327633
 C      5   4   3     2.447700349307   152.51724572     1.64648916
 C      2   1   3     1.368114030335     4.77240852    68.90558973
 C      7   2   4     1.434084376876   108.05010202   130.25401129
 C      2   1   3     1.434123425651   107.84475456   333.60976329
 C      1   2   7     1.381781458842    46.06225389   100.01489690
 N      1   2   7     1.353053953100    77.04336675   298.02904766
 N      9   2   1     1.376127174356   106.58526707     4.24100047
 N     12   9   2     2.925062050624   168.53581413   171.12065651
 N     13  12   9     2.954513327098    91.55032014    11.12112580
 N     14  13  12     2.925371258490    88.43092389   359.84326247
 C      8   7   2     1.404790019896   127.24786865   181.11170171
 C     13  12   9     1.366535034311    81.72106996   188.00453233
 C     14  13  12     5.758810554272    80.56209567   166.76250791
 C     17  13  12     1.459010623676   111.08861209   183.82872609
 C     18  14  13     2.412235892279    27.27532823    36.33507194
 C     20  18  14     1.402692767501    87.95206320   148.94598259
 C     21  20  18     1.382106725257   120.14573887   359.70382047
 C     18  14  13     2.446510985056   144.15733107    82.80075377
 C     19  17  13     1.353610726908   106.29293361   359.75308708
 C     13  12   9     1.366813447402   172.21332906    33.46711076
 C     18  14  13     1.380960173213    15.08449437   309.23336894
 N     22  21  20     1.352773077792   120.73759875     0.27865223
 C     25  13  17     1.410897586645   125.60330303   182.37774668
 C     14  13  12     1.376642291955    80.24689249   177.85461986
 C     14  13  12     5.764089607215   164.51507311   312.20821879
 C     29  14  13     1.435600919476   106.58649366   178.76395472
 C     30  14  13     2.413316804732    27.10625047    82.12560436
 C     32  30  14     1.403734305344    87.90059683   149.76154742
 C     33  32  30     1.380694028378   120.14881443   359.74174632
 C     34  33  32     2.448777858443   152.49203239     2.45173620
 C     31  29  14     1.368160809262   108.16950133     0.70383075
 C     14  13  12     1.376239804685   169.26375223   353.09862627
 C     30  14  13     1.380907310430    14.68948582   353.70041132
 N     34  33  32     1.352658863128   120.85575621     0.19603406
 C     37  14  29     1.404717053360   126.01551127   180.90772073
 C     15  14  13     1.366491126938    81.61824056   183.09049352
 C      2   1   3     4.249062720177   161.46527432   115.06396572
 C     41  15  14     1.459677704153   111.05201287   175.08990246
 C     42   2   1     2.412953791518    41.78584867   192.79880384
 C     44  42   2     1.403446472082    87.95153797   233.97558675
 C     45  44  42     1.381696421071   120.11137308     0.19721020
 C     42   2   1     2.450019795838   135.97209175   103.11365294
 C     43  41  15     1.354461516618   106.26758155     0.30894352
 C     15  14  13     1.367461151185   171.87382904   332.35056460
 C     42   2   1     1.381886391857    32.59078432   241.65408303
 C      9   2   1     1.404988612053   126.98745415   185.24533800
 N     42   2   1     1.352765315936   113.57249190   130.85024213
 H      1   2   7     1.082743275204   160.71284794   161.07140672
 H      2   1   3     1.079907866440   126.72509740   159.04783851
 H      4   3   1     1.083177732415   121.11648782   179.53117590
 H      5   4   3     1.082613042596   122.82837180   179.38217631
 H      6   5   4     1.091909336896   104.45697281   100.07258364
 H      6   5   4     1.090049998853    84.69170593   209.55290219
 H      6   5   4     1.090360032283   133.86796364   322.31815440
 H      7   2  54     1.079807853278   126.66122480     1.30600390
 H     10   1   2     1.083516958797   118.75661239   160.32700090
 H     12   9   2     1.016297692608   125.29023241   180.00180175
 H     14  13  12     1.014936943854    44.97226959   359.42596618
 H     18  14  13     1.082871645210   128.03556573   234.20482432
 H     19  17  13     1.080893611786   126.41830519   178.11313280
 H     21  20  18     1.083569563987   121.05669627   180.67006309
 H     22  21  20     1.082483256222   122.73097286   180.59748951
 H     23  18  14     1.092105306278   103.92715769   234.93429879
 H     23  18  14     1.088871893291   134.19244188    12.25587044
 H     23  18  14     1.089833473518    84.85857450   125.45241208
 H     24  19  17     1.080075460327   127.28078426   178.44613241
 H     26  18  14     1.083408048706   118.76995697   244.94906660
 H     30  14  13     1.082703098730   127.99711412   279.66882698
 H     31  29  14     1.079759695488   125.22293469   180.92530585
 H     33  32  30     1.083188810873   121.01964473   180.74284758
 H     34  33  32     1.082494341787   122.70821597   180.59516895
 H     35  34  33     1.092652735319   105.73575241    97.19771933
 H     35  34  33     1.089462711615    84.05943581   206.43036958
 H     35  34  33     1.089268102902   133.08365142   318.50306270
 H     36  31  29     1.079439669458   126.61599965   178.98859863
 H     38  30  73     1.083742127999   118.77264435   359.90091293
 H     42   2   1     1.082178358682   119.31790784   347.48177259
 H     43  41  15     1.080281907652   126.36969097   182.06329380
 H     45  44  42     1.083277434455   121.10105945   179.58025624
 H     46  45  44     1.082194529648   122.72144639   179.46906377
 H     47  42   2     1.091546151109   106.65128841   315.16475048
 H     47  42   2     1.088818625851   132.46019523    94.52397119
 H     47  42   2     1.089531091801    83.63838232   206.04504406
 H     48  43  41     1.080402239909   127.23657387   181.62955349
 H     50  42   2     1.083186502870   118.77001737    94.71359229

---------------------------
INTERNAL COORDINATES (A.U.)
---------------------------
 C      0   0   0     0.000000000000     0.00000000     0.00000000
 C      1   0   0    12.204701251842     0.00000000     0.00000000
 C      1   2   0     4.560850402928    20.24166407     0.00000000
 C      3   1   2     2.651646042012    87.93598394   312.53847055
 C      4   3   1     2.608784552030   120.14933321     0.15327633
 C      5   4   3     4.625483318095   152.51724572     1.64648916
 C      2   1   3     2.585360837309     4.77240852    68.90558973
 C      7   2   4     2.710026725231   108.05010202   130.25401129
 C      2   1   3     2.710100516721   107.84475456   333.60976329
 C      1   2   7     2.611188534142    46.06225389   100.01489690
 N      1   2   7     2.556901415779    77.04336675   298.02904766
 N      9   2   1     2.600503484979   106.58526707     4.24100047
 N     12   9   2     5.527566200405   168.53581413   171.12065651
 N     13  12   9     5.583221047236    91.55032014    11.12112580
 N     14  13  12     5.528150518591    88.43092389   359.84326247
 C      8   7   2     2.654668413270   127.24786865   181.11170171
 C     13  12   9     2.582376967257    81.72106996   188.00453233
 C     14  13  12    10.882574804710    80.56209567   166.76250791
 C     17  13  12     2.757130505230   111.08861209   183.82872609
 C     18  14  13     4.558465206823    27.27532823    36.33507194
 C     20  18  14     2.650705180609    87.95206320   148.94598259
 C     21  20  18     2.611803198586   120.14573887   359.70382047
 C     18  14  13     4.623235745386   144.15733107    82.80075377
 C     19  17  13     2.557953565794   106.29293361   359.75308708
 C     13  12   9     2.582903091751   172.21332906    33.46711076
 C     18  14  13     2.609636529225    15.08449437   309.23336894
 N     22  21  20     2.556370638369   120.73759875     0.27865223
 C     25  13  17     2.666210041769   125.60330303   182.37774668
 C     14  13  12     2.601476916169    80.24689249   177.85461986
 C     14  13  12    10.892550769017   164.51507311   312.20821879
 C     29  14  13     2.712892575415   106.58649366   178.76395472
 C     30  14  13     4.560507835333    27.10625047    82.12560436
 C     32  30  14     2.652673401891    87.90059683   149.76154742
 C     33  32  30     2.609133588376   120.14881443   359.74174632
 C     34  33  32     4.627519515267   152.49203239     2.45173620
 C     31  29  14     2.585449236669   108.16950133     0.70383075
 C     14  13  12     2.600716325456   169.26375223   353.09862627
 C     30  14  13     2.609536633043    14.68948582   353.70041132
 N     34  33  32     2.556154803934   120.85575621     0.19603406
 C     37  14  29     2.654530526499   126.01551127   180.90772073
 C     15  14  13     2.582293994346    81.61824056   183.09049352
 C      2   1   3     8.029564866989   161.46527432   115.06396572
 C     41  15  14     2.758391104639   111.05201287   175.08990246
 C     42   2   1     4.559821839776    41.78584867   192.79880384
 C     44  42   2     2.652129475853    87.95153797   233.97558675
 C     45  44  42     2.611027836043   120.11137308     0.19721020
 C     42   2   1     4.629866436820   135.97209175   103.11365294
 C     43  41  15     2.559561325344   106.26758155     0.30894352
 C     15  14  13     2.584127074516   171.87382904   332.35056460
 C     42   2   1     2.611386828803    32.59078432   241.65408303
 C      9   2   1     2.655043698059   126.98745415   185.24533800
 N     42   2   1     2.556355970587   113.57249190   130.85024213
 H      1   2   7     2.046088263481   160.71284794   161.07140672
 H      2   1   3     2.040730117440   126.72509740   159.04783851
 H      4   3   1     2.046909268626   121.11648782   179.53117590
 H      5   4   3     2.045842159519   122.82837180   179.38217631
 H      6   5   4     2.063409609804   104.45697281   100.07258364
 H      6   5   4     2.059895970114    84.69170593   209.55290219
 H      6   5   4     2.060481848388   133.86796364   322.31815440
 H      7   2  54     2.040541119952   126.66122480     1.30600390
 H     10   1   2     2.047550313585   118.75661239   160.32700090
 H     12   9   2     1.920524309565   125.29023241   180.00180175
 H     14  13  12     1.917952867083    44.97226959   359.42596618
 H     18  14  13     2.046330847636   128.03556573   234.20482432
 H     19  17  13     2.042592906181   126.41830519   178.11313280
 H     21  20  18     2.047649722989   121.05669627   180.67006309
 H     22  21  20     2.045596898814   122.73097286   180.59748951
 H     23  18  14     2.063779938267   103.92715769   234.93429879
 H     23  18  14     2.057669673245   134.19244188    12.25587044
 H     23  18  14     2.059486796529    84.85857450   125.45241208
 H     24  19  17     2.041046823986   127.28078426   178.44613241
 H     26  18  14     2.047344503340   118.76995697   244.94906660
 H     30  14  13     2.046012340948   127.99711412   279.66882698
 H     31  29  14     2.040450114918   125.22293469   180.92530585
 H     33  32  30     2.046930203877   121.01964473   180.74284758
 H     34  33  32     2.045617847496   122.70821597   180.59516895
 H     35  34  33     2.064814429233   105.73575241    97.19771933
 H     35  34  33     2.058786158072    84.05943581   206.43036958
 H     35  34  33     2.058418400901   133.08365142   318.50306270
 H     36  31  29     2.039845353366   126.61599965   178.98859863
 H     38  30  73     2.047975821711   118.77264435   359.90091293
 H     42   2   1     2.045020725966   119.31790784   347.48177259
 H     43  41  15     2.041436952892   126.36969097   182.06329380
 H     45  44  42     2.047097678177   121.10105945   179.58025624
 H     46  45  44     2.045051284662   122.72144639   179.46906377
 H     47  42   2     2.062723288131   106.65128841   315.16475048
 H     47  42   2     2.057569012371   132.46019523    94.52397119
 H     47  42   2     2.058915377895    83.63838232   206.04504406
 H     48  43  41     2.041664347903   127.23657387   181.62955349
 H     50  42   2     2.046925842384   118.77001737    94.71359229

---------------------
BASIS SET INFORMATION
---------------------
There are 3 groups of distinct atoms

 Group   1 Type C   : 17s4p1d contracted to 3s2p1d pattern {881/31/1}
 Group   2 Type N   : 17s4p1d contracted to 3s2p1d pattern {881/31/1}
 Group   3 Type H   : 4s1p contracted to 2s1p pattern {31/1}

Atom   0C    basis set group =>   1
Atom   1N    basis set group =>   2
Atom   2C    basis set group =>   1
Atom   3N    basis set group =>   2
Atom   4C    basis set group =>   1
Atom   5N    basis set group =>   2
Atom   6C    basis set group =>   1
Atom   7N    basis set group =>   2
Atom   8C    basis set group =>   1
Atom   9N    basis set group =>   2
Atom  10C    basis set group =>   1
Atom  11N    basis set group =>   2
Atom  12C    basis set group =>   1
Atom  13N    basis set group =>   2
Atom  14C    basis set group =>   1
Atom  15N    basis set group =>   2
Atom  16C    basis set group =>   1
Atom  17C    basis set group =>   1
Atom  18C    basis set group =>   1
Atom  19C    basis set group =>   1
Atom  20C    basis set group =>   1
Atom  21C    basis set group =>   1
Atom  22C    basis set group =>   1
Atom  23C    basis set group =>   1
Atom  24C    basis set group =>   1
Atom  25C    basis set group =>   1
Atom  26C    basis set group =>   1
Atom  27C    basis set group =>   1
Atom  28C    basis set group =>   1
Atom  29C    basis set group =>   1
Atom  30C    basis set group =>   1
Atom  31C    basis set group =>   1
Atom  32C    basis set group =>   1
Atom  33C    basis set group =>   1
Atom  34C    basis set group =>   1
Atom  35C    basis set group =>   1
Atom  36C    basis set group =>   1
Atom  37C    basis set group =>   1
Atom  38C    basis set group =>   1
Atom  39C    basis set group =>   1
Atom  40C    basis set group =>   1
Atom  41C    basis set group =>   1
Atom  42C    basis set group =>   1
Atom  43C    basis set group =>   1
Atom  44C    basis set group =>   1
Atom  45C    basis set group =>   1
Atom  46C    basis set group =>   1
Atom  47C    basis set group =>   1
Atom  48C    basis set group =>   1
Atom  49C    basis set group =>   1
Atom  50C    basis set group =>   1
Atom  51C    basis set group =>   1
Atom  52H    basis set group =>   3
Atom  53H    basis set group =>   3
Atom  54H    basis set group =>   3
Atom  55H    basis set group =>   3
Atom  56H    basis set group =>   3
Atom  57H    basis set group =>   3
Atom  58H    basis set group =>   3
Atom  59H    basis set group =>   3
Atom  60H    basis set group =>   3
Atom  61H    basis set group =>   3
Atom  62H    basis set group =>   3
Atom  63H    basis set group =>   3
Atom  64H    basis set group =>   3
Atom  65H    basis set group =>   3
Atom  66H    basis set group =>   3
Atom  67H    basis set group =>   3
Atom  68H    basis set group =>   3
Atom  69H    basis set group =>   3
Atom  70H    basis set group =>   3
Atom  71H    basis set group =>   3
Atom  72H    basis set group =>   3
Atom  73H    basis set group =>   3
Atom  74H    basis set group =>   3
Atom  75H    basis set group =>   3
Atom  76H    basis set group =>   3
Atom  77H    basis set group =>   3
Atom  78H    basis set group =>   3
Atom  79H    basis set group =>   3
Atom  80H    basis set group =>   3
Atom  81H    basis set group =>   3
Atom  82H    basis set group =>   3
Atom  83H    basis set group =>   3
Atom  84H    basis set group =>   3
Atom  85H    basis set group =>   3
Atom  86H    basis set group =>   3
Atom  87H    basis set group =>   3
Atom  88H    basis set group =>   3
Atom  89H    basis set group =>   3


           ************************************************************
           *        Program running with 16 parallel MPI-processes    *
           *              working on a common directory               *
           ************************************************************
------------------------------------------------------------------------------
                           ORCA GTO INTEGRAL CALCULATION
------------------------------------------------------------------------------
------------------------------------------------------------------------------
                   ___                                                        
                  /   \      - P O W E R E D   B Y -                         
                 /     \                                                     
                 |  |  |   _    _      __       _____    __    __             
                 |  |  |  | |  | |    /  \     |  _  \  |  |  /  |          
                  \  \/   | |  | |   /    \    | | | |  |  | /  /          
                 / \  \   | |__| |  /  /\  \   | |_| |  |  |/  /          
                |  |  |   |  __  | /  /__\  \  |    /   |      \           
                |  |  |   | |  | | |   __   |  |    \   |  |\   \          
                \     /   | |  | | |  |  |  |  | |\  \  |  | \   \       
                 \___/    |_|  |_| |__|  |__|  |_| \__\ |__|  \__/        
                                                                              
                      - O R C A' S   B I G   F R I E N D -                    
                                      &                                       
                       - I N T E G R A L  F E E D E R -                       
                                                                              
 v1 FN, 2020, v2 2021                                                         
------------------------------------------------------------------------------


Reading SHARK input file /scratch/allen/tmpyp4_amber_gaff2/conf1/conf1/Conf210.orca.SHARKINP.tmp ... ok
----------------------
SHARK INTEGRAL PACKAGE
----------------------

Number of atoms                             ...     90
Number of basis functions                   ...   1230
Number of shells                            ...    738
Maximum angular momentum                    ...      2
Integral batch strategy                     ... SHARK/LIBINT Hybrid
RI-J (if used) integral strategy            ... SPLIT-RIJ (Revised 2003 algorithm where possible)
Printlevel                                  ...      1
Contraction scheme used                     ... PARTIAL GENERAL contraction
Coulomb Range Separation                    ... NOT USED
Exchange Range Separation                   ... NOT USED
Finite Nucleus Model                        ... NOT USED
Auxiliary Coulomb fitting basis             ... NOT available
Auxiliary J/K fitting basis                 ... NOT available
Auxiliary Correlation fitting basis         ... NOT available
Auxiliary 'external' fitting basis          ... NOT available
Integral threshold                          ...     2.500000e-11
Primitive cut-off                           ...     2.500000e-12
Primitive pair pre-selection threshold      ...     2.500000e-12

Calculating pre-screening integrals         ... done (  0.1 sec) Dimension = 738
Calculating pre-screening integrals (ORCA)  ... done (  0.3 sec) Dimension = 426
Organizing shell pair data                  ... done (  0.7 sec)
Shell pair information
Total number of shell pairs                 ...    272691
Shell pairs after pre-screening             ...     71673
Total number of primitive shell pairs       ...    422091
Primitive shell pairs kept                  ...     92546
          la=0 lb=0:  29422 shell pairs
          la=1 lb=0:  26008 shell pairs
          la=1 lb=1:   4706 shell pairs
          la=2 lb=0:   7886 shell pairs
          la=2 lb=1:   3122 shell pairs
          la=2 lb=2:    529 shell pairs

Calculating one electron integrals          ... done (  0.2 sec)
Calculating Nuclear repulsion               ... done (  0.0 sec) ENN=   6232.059773919632 Eh

SHARK setup successfully completed in   2.3 seconds

Maximum memory used throughout the entire GTOINT-calculation: 99.0 MB


           ************************************************************
           *        Program running with 16 parallel MPI-processes    *
           *              working on a common directory               *
           ************************************************************
-------------------------------------------------------------------------------
                                 ORCA SCF
-------------------------------------------------------------------------------

------------
SCF SETTINGS
------------
Hamiltonian:
 Ab initio Hamiltonian  Method          .... Hartree-Fock(GTOs)


General Settings:
 Integral files         IntName         .... /scratch/allen/tmpyp4_amber_gaff2/conf1/conf1/Conf210.orca
 Hartree-Fock type      HFTyp           .... RHF
 Total Charge           Charge          ....    0
 Multiplicity           Mult            ....    1
 Number of Electrons    NEL             ....  358
 Basis Dimension        Dim             ....  918
 Nuclear Repulsion      ENuc            ....   6232.0597739196 Eh

Convergence Acceleration:
 DIIS                   CNVDIIS         .... on
   Start iteration      DIISMaxIt       ....    12
   Startup error        DIISStart       ....  0.200000
   # of expansion vecs  DIISMaxEq       ....     5
   Bias factor          DIISBfac        ....   1.050
   Max. coefficient     DIISMaxC        ....  10.000
 Trust-Rad. Augm. Hess. CNVTRAH         .... auto
   Auto Start mean grad. ratio tolernc. ....  1.125000
   Auto Start start iteration           ....    20
   Auto Start num. interpolation iter.  ....    10
   Max. Number of Micro iterations      ....    16
   Max. Number of Macro iterations      .... Maxiter - #DIIS iter
   Number of Davidson start vectors     ....     2
   Converg. threshold I  (grad. norm)   ....   1.000e-05
   Converg. threshold II (energy diff.) ....   1.000e-08
   Grad. Scal. Fac. for Micro threshold ....   0.100
   Minimum threshold for Micro iter.    ....   0.010
   NR start threshold (gradient norm)   ....   0.001
   Initial trust radius                 ....   0.400
   Minimum AH scaling param. (alpha)    ....   1.000
   Maximum AH scaling param. (alpha)    .... 1000.000
   Orbital update algorithm             .... Taylor
   White noise on init. David. guess    .... on
   Maximum white noise                  ....   0.010
   Quad. conv. algorithm                .... NR
 SOSCF                  CNVSOSCF        .... on
   Start iteration      SOSCFMaxIt      ....   150
   Startup grad/error   SOSCFStart      ....  0.003300
 Level Shifting         CNVShift        .... on
   Level shift para.    LevelShift      ....    0.2500
   Turn off err/grad.   ShiftErr        ....    0.0010
 Zerner damping         CNVZerner       .... off
 Static damping         CNVDamp         .... on
   Fraction old density DampFac         ....    0.7000
   Max. Damping (<1)    DampMax         ....    0.9800
   Min. Damping (>=0)   DampMin         ....    0.0000
   Turn off err/grad.   DampErr         ....    0.1000
 Fernandez-Rico         CNVRico         .... off

SCF Procedure:
 Maximum # iterations   MaxIter         ....   125
 SCF integral mode      SCFMode         .... Direct
   Integral package                     .... SHARK and LIBINT hybrid scheme
 Reset frequency        DirectResetFreq ....    20
 Integral Threshold     Thresh          ....  2.500e-11 Eh
 Primitive CutOff       TCut            ....  2.500e-12 Eh

Convergence Tolerance:
 Convergence Check Mode ConvCheckMode   .... Total+1el-Energy
 Convergence forced     ConvForced      .... 1
 Energy Change          TolE            ....  1.000e-08 Eh
 1-El. energy change                    ....  1.000e-05 Eh
 Orbital Gradient       TolG            ....  1.000e-05
 Orbital Rotation angle TolX            ....  1.000e-05
 DIIS Error             TolErr          ....  5.000e-07


Diagonalization of the overlap matrix:
Smallest eigenvalue                        ... 2.165e-04
Time for diagonalization                   ...    0.448 sec
Threshold for overlap eigenvalues          ... 1.000e-08
Number of eigenvalues below threshold      ... 0
Time for construction of square roots      ...    0.269 sec
Total time needed                          ...    0.724 sec

Time for model grid setup =    1.310 sec

------------------------------
INITIAL GUESS: MODEL POTENTIAL
------------------------------
Loading Hartree-Fock densities                     ... done
Calculating cut-offs                               ... done
Initializing the effective Hamiltonian             ... done
Setting up the integral package (SHARK)            ... done
Starting the Coulomb interaction                   ... done (   1.4 sec)
Reading the grid                                   ... done
Mapping shells                                     ... done
Starting the XC term evaluation                    ... done (   0.2 sec)
Transforming the Hamiltonian                       ... done (   0.3 sec)
Diagonalizing the Hamiltonian                      ... done (   0.4 sec)
Back transforming the eigenvectors                 ... done (   0.1 sec)
Now organizing SCF variables                       ... done
                      ------------------
                      INITIAL GUESS DONE (   3.8 sec)
                      ------------------
--------------
SCF ITERATIONS
--------------
ITER       Energy         Delta-E        Max-DP      RMS-DP      [F,P]     Damp
               ***  Starting incremental Fock matrix formation  ***
  0  -2121.6735792499   0.000000000000 0.07387989  0.00122609  0.2319124 0.7000
  1  -2122.3255184049  -0.651939154946 0.05590574  0.00099800  0.1437234 0.7000
                               ***Turning on DIIS***
  2  -2122.7311195861  -0.405601181288 0.13076726  0.00226379  0.0802505 0.0000
  3  -2117.9523676462   4.778751939933 0.04425241  0.00068034  0.0437722 0.0000
  4  -2123.4101182143  -5.457750568121 0.01338690  0.00022685  0.0084911 0.0000
  5  -2123.5632357640  -0.153117549657 0.00644487  0.00013291  0.0049349 0.0000
  6  -2123.5473308585   0.015904905467 0.00377905  0.00008534  0.0020698 0.0000
  7  -2123.6436279532  -0.096297094686 0.00305634  0.00006726  0.0015831 0.0000
  8  -2123.6538254338  -0.010197480569 0.00323119  0.00006377  0.0014784 0.0000
  9  -2123.6242108962   0.029614537565 0.00258130  0.00004473  0.0011850 0.0000
 10  -2123.6333262342  -0.009115337962 0.00518192  0.00009304  0.0009195 0.0000
                      *** Initiating the SOSCF procedure ***
                           *** Shutting down DIIS ***
                      *** Re-Reading the Fockian *** 
                      *** Removing any level shift *** 
ITER      Energy       Delta-E        Grad      Rot      Max-DP    RMS-DP
 11  -2123.52462386   0.1087023712  0.000186  0.000186  0.000238  0.000005
               *** Restarting incremental Fock matrix formation ***
 12  -2123.59092867  -0.0663048083  0.000878  0.006057  0.001369  0.000034
 13  -2123.59103349  -0.0001048209  0.001088  0.030441  0.006370  0.000134
 14  -2123.59121341  -0.0001799134  0.000352  0.001789  0.000645  0.000012
 15  -2123.59122908  -0.0000156765  0.000174  0.002534  0.000684  0.000017
 16  -2123.59123811  -0.0000090274  0.000156  0.002743  0.000459  0.000010
 17  -2123.59124113  -0.0000030163  0.000138  0.001905  0.000325  0.000007
 18  -2123.59124274  -0.0000016111  0.000070  0.000864  0.000281  0.000004
 19  -2123.59124352  -0.0000007785  0.000045  0.000879  0.000184  0.000004
 20  -2123.59124383  -0.0000003153  0.000025  0.000591  0.000103  0.000002
 21  -2123.59124400  -0.0000001673  0.000023  0.000729  0.000132  0.000003
 22  -2123.59124414  -0.0000001373  0.000020  0.000667  0.000116  0.000002
 23  -2123.59124422  -0.0000000831  0.000013  0.000433  0.000075  0.000001
 24  -2123.59124426  -0.0000000447  0.000008  0.000331  0.000048  0.000001
 25  -2123.59124429  -0.0000000290  0.000009  0.000193  0.000035  0.000001
 26  -2123.59124431  -0.0000000146  0.000006  0.000161  0.000031  0.000001
 27  -2123.59124431  -0.0000000068  0.000004  0.000118  0.000024  0.000000
                  ***Gradient check signals convergence***
              ***Rediagonalizing the Fockian in SOSCF/NRSCF***

               *****************************************************
               *                     SUCCESS                       *
               *           SCF CONVERGED AFTER  28 CYCLES          *
               *****************************************************


----------------
TOTAL SCF ENERGY
----------------

Total Energy       :        -2123.59124431 Eh          -57785.85553 eV

Components:
Nuclear Repulsion  :         6232.05977392 Eh          169582.96788 eV
Electronic Energy  :        -8355.65101823 Eh         -227368.82341 eV
One Electron Energy:       -15304.84365295 Eh         -416465.96852 eV
Two Electron Energy:         6949.19263471 Eh          189097.14510 eV

Virial components:
Potential Energy   :        -4245.83488225 Eh         -115535.04083 eV
Kinetic Energy     :         2122.24363793 Eh           57749.18530 eV
Virial Ratio       :            2.00063499


---------------
SCF CONVERGENCE
---------------

  Last Energy change         ...    3.6198e-10  Tolerance :   1.0000e-08
  Last MAX-Density change    ...    1.2398e-05  Tolerance :   1.0000e-07
  Last RMS-Density change    ...    2.5808e-07  Tolerance :   5.0000e-09
  Last Orbital Gradient      ...    2.2467e-06  Tolerance :   1.0000e-05
  Last Orbital Rotation      ...    6.7149e-05  Tolerance :   1.0000e-05

             **** THE GBW FILE WAS UPDATED (/scratch/allen/tmpyp4_amber_gaff2/conf1/conf1/Conf210.orca.gbw) ****
             **** DENSITY /scratch/allen/tmpyp4_amber_gaff2/conf1/conf1/Conf210.orca.scfp WAS UPDATED ****
             **** ENERGY FILE WAS UPDATED (/scratch/allen/tmpyp4_amber_gaff2/conf1/conf1/Conf210.orca.en.tmp) ****
             **** THE GBW FILE WAS UPDATED (/scratch/allen/tmpyp4_amber_gaff2/conf1/conf1/Conf210.orca.gbw) ****
             **** DENSITY /scratch/allen/tmpyp4_amber_gaff2/conf1/conf1/Conf210.orca.scfp WAS UPDATED ****
----------------
ORBITAL ENERGIES
----------------

  NO   OCC          E(Eh)            E(eV) 
   0   2.0000     -15.674192      -426.5164 
   1   2.0000     -15.634674      -425.4411 
   2   2.0000     -15.630946      -425.3397 
   3   2.0000     -15.590982      -424.2522 
   4   2.0000     -15.524723      -422.4492 
   5   2.0000     -15.516176      -422.2166 
   6   2.0000     -15.452666      -420.4884 
   7   2.0000     -15.441123      -420.1743 
   8   2.0000     -11.324918      -308.1667 
   9   2.0000     -11.324478      -308.1547 
  10   2.0000     -11.323509      -308.1284 
  11   2.0000     -11.299763      -307.4822 
  12   2.0000     -11.297784      -307.4283 
  13   2.0000     -11.293315      -307.3067 
  14   2.0000     -11.290098      -307.2192 
  15   2.0000     -11.287446      -307.1470 
  16   2.0000     -11.286126      -307.1111 
  17   2.0000     -11.276806      -306.8575 
  18   2.0000     -11.272874      -306.7505 
  19   2.0000     -11.259471      -306.3858 
  20   2.0000     -11.258506      -306.3595 
  21   2.0000     -11.255188      -306.2692 
  22   2.0000     -11.254964      -306.2631 
  23   2.0000     -11.238336      -305.8107 
  24   2.0000     -11.235735      -305.7399 
  25   2.0000     -11.231708      -305.6303 
  26   2.0000     -11.230903      -305.6084 
  27   2.0000     -11.229093      -305.5591 
  28   2.0000     -11.228990      -305.5563 
  29   2.0000     -11.209934      -305.0378 
  30   2.0000     -11.208666      -305.0033 
  31   2.0000     -11.199477      -304.7533 
  32   2.0000     -11.191605      -304.5391 
  33   2.0000     -11.190418      -304.5067 
  34   2.0000     -11.189179      -304.4730 
  35   2.0000     -11.189128      -304.4717 
  36   2.0000     -11.188529      -304.4553 
  37   2.0000     -11.186171      -304.3912 
  38   2.0000     -11.185016      -304.3598 
  39   2.0000     -11.172817      -304.0278 
  40   2.0000     -11.172575      -304.0212 
  41   2.0000     -11.170194      -303.9564 
  42   2.0000     -11.167436      -303.8814 
  43   2.0000     -11.161101      -303.7090 
  44   2.0000     -11.159424      -303.6634 
  45   2.0000     -11.158759      -303.6453 
  46   2.0000     -11.157094      -303.6000 
  47   2.0000     -11.154635      -303.5331 
  48   2.0000     -11.148032      -303.3534 
  49   2.0000     -11.139279      -303.1152 
  50   2.0000     -11.131964      -302.9161 
  51   2.0000     -11.121783      -302.6391 
  52   2.0000      -1.355625       -36.8884 
  53   2.0000      -1.321825       -35.9687 
  54   2.0000      -1.318846       -35.8876 
  55   2.0000      -1.284540       -34.9541 
  56   2.0000      -1.225361       -33.3438 
  57   2.0000      -1.210635       -32.9430 
  58   2.0000      -1.171720       -31.8841 
  59   2.0000      -1.151906       -31.3449 
  60   2.0000      -1.139680       -31.0123 
  61   2.0000      -1.110671       -30.2229 
  62   2.0000      -1.108373       -30.1604 
  63   2.0000      -1.080734       -29.4083 
  64   2.0000      -1.077669       -29.3249 
  65   2.0000      -1.045975       -28.4624 
  66   2.0000      -1.043563       -28.3968 
  67   2.0000      -1.038481       -28.2585 
  68   2.0000      -1.014519       -27.6065 
  69   2.0000      -1.013882       -27.5891 
  70   2.0000      -1.009648       -27.4739 
  71   2.0000      -0.992795       -27.0153 
  72   2.0000      -0.986814       -26.8526 
  73   2.0000      -0.980000       -26.6671 
  74   2.0000      -0.972446       -26.4616 
  75   2.0000      -0.960943       -26.1486 
  76   2.0000      -0.953311       -25.9409 
  77   2.0000      -0.946386       -25.7525 
  78   2.0000      -0.935132       -25.4462 
  79   2.0000      -0.919061       -25.0089 
  80   2.0000      -0.906583       -24.6694 
  81   2.0000      -0.894055       -24.3285 
  82   2.0000      -0.874705       -23.8019 
  83   2.0000      -0.872031       -23.7292 
  84   2.0000      -0.868964       -23.6457 
  85   2.0000      -0.857007       -23.3203 
  86   2.0000      -0.841424       -22.8963 
  87   2.0000      -0.836055       -22.7502 
  88   2.0000      -0.824363       -22.4321 
  89   2.0000      -0.797764       -21.7083 
  90   2.0000      -0.791539       -21.5389 
  91   2.0000      -0.750703       -20.4277 
  92   2.0000      -0.743598       -20.2343 
  93   2.0000      -0.732877       -19.9426 
  94   2.0000      -0.724335       -19.7102 
  95   2.0000      -0.721905       -19.6440 
  96   2.0000      -0.716001       -19.4834 
  97   2.0000      -0.711719       -19.3669 
  98   2.0000      -0.707328       -19.2474 
  99   2.0000      -0.696776       -18.9602 
 100   2.0000      -0.696183       -18.9441 
 101   2.0000      -0.684810       -18.6346 
 102   2.0000      -0.680761       -18.5244 
 103   2.0000      -0.680135       -18.5074 
 104   2.0000      -0.678411       -18.4605 
 105   2.0000      -0.673287       -18.3211 
 106   2.0000      -0.669606       -18.2209 
 107   2.0000      -0.660813       -17.9816 
 108   2.0000      -0.656209       -17.8563 
 109   2.0000      -0.653552       -17.7840 
 110   2.0000      -0.650776       -17.7085 
 111   2.0000      -0.643463       -17.5095 
 112   2.0000      -0.642089       -17.4721 
 113   2.0000      -0.640006       -17.4155 
 114   2.0000      -0.637721       -17.3533 
 115   2.0000      -0.627668       -17.0797 
 116   2.0000      -0.624444       -16.9920 
 117   2.0000      -0.619389       -16.8544 
 118   2.0000      -0.613005       -16.6807 
 119   2.0000      -0.612479       -16.6664 
 120   2.0000      -0.610803       -16.6208 
 121   2.0000      -0.607828       -16.5398 
 122   2.0000      -0.600474       -16.3397 
 123   2.0000      -0.586665       -15.9640 
 124   2.0000      -0.582150       -15.8411 
 125   2.0000      -0.580334       -15.7917 
 126   2.0000      -0.579611       -15.7720 
 127   2.0000      -0.574509       -15.6332 
 128   2.0000      -0.567448       -15.4411 
 129   2.0000      -0.559177       -15.2160 
 130   2.0000      -0.551373       -15.0036 
 131   2.0000      -0.547563       -14.8999 
 132   2.0000      -0.542414       -14.7598 
 133   2.0000      -0.540932       -14.7195 
 134   2.0000      -0.538413       -14.6510 
 135   2.0000      -0.535554       -14.5732 
 136   2.0000      -0.528586       -14.3836 
 137   2.0000      -0.522814       -14.2265 
 138   2.0000      -0.516932       -14.0664 
 139   2.0000      -0.513808       -13.9814 
 140   2.0000      -0.512134       -13.9359 
 141   2.0000      -0.511213       -13.9108 
 142   2.0000      -0.509286       -13.8584 
 143   2.0000      -0.503687       -13.7060 
 144   2.0000      -0.502013       -13.6605 
 145   2.0000      -0.497062       -13.5257 
 146   2.0000      -0.492645       -13.4055 
 147   2.0000      -0.483629       -13.1602 
 148   2.0000      -0.479655       -13.0521 
 149   2.0000      -0.466759       -12.7012 
 150   2.0000      -0.466181       -12.6854 
 151   2.0000      -0.457177       -12.4404 
 152   2.0000      -0.450561       -12.2604 
 153   2.0000      -0.445172       -12.1137 
 154   2.0000      -0.441411       -12.0114 
 155   2.0000      -0.429987       -11.7005 
 156   2.0000      -0.428158       -11.6508 
 157   2.0000      -0.412897       -11.2355 
 158   2.0000      -0.404613       -11.0101 
 159   2.0000      -0.388478       -10.5710 
 160   2.0000      -0.384003       -10.4493 
 161   2.0000      -0.378339       -10.2951 
 162   2.0000      -0.370200       -10.0736 
 163   2.0000      -0.357095        -9.7171 
 164   2.0000      -0.355266        -9.6673 
 165   2.0000      -0.340612        -9.2685 
 166   2.0000      -0.337541        -9.1850 
 167   2.0000      -0.325995        -8.8708 
 168   2.0000      -0.324391        -8.8271 
 169   2.0000      -0.304252        -8.2791 
 170   2.0000      -0.299679        -8.1547 
 171   2.0000      -0.285934        -7.7807 
 172   2.0000      -0.281596        -7.6626 
 173   2.0000      -0.262802        -7.1512 
 174   2.0000      -0.242654        -6.6030 
 175   2.0000      -0.189889        -5.1672 
 176   2.0000      -0.180321        -4.9068 
 177   2.0000      -0.076168        -2.0726 
 178   2.0000      -0.058538        -1.5929 
 179   0.0000       0.028465         0.7746 
 180   0.0000       0.066224         1.8020 
 181   0.0000       0.091131         2.4798 
 182   0.0000       0.109787         2.9875 
 183   0.0000       0.110540         3.0080 
 184   0.0000       0.136660         3.7187 
 185   0.0000       0.139822         3.8048 
 186   0.0000       0.143844         3.9142 
 187   0.0000       0.163379         4.4458 
 188   0.0000       0.164733         4.4826 
 189   0.0000       0.166144         4.5210 
 190   0.0000       0.169651         4.6164 
 191   0.0000       0.183311         4.9881 
 192   0.0000       0.186713         5.0807 
 193   0.0000       0.186874         5.0851 
 194   0.0000       0.204538         5.5658 
 195   0.0000       0.206050         5.6069 
 196   0.0000       0.207861         5.6562 
 197   0.0000       0.209086         5.6895 
 198   0.0000       0.219248         5.9660 
 199   0.0000       0.226723         6.1695 
 200   0.0000       0.231081         6.2880 
 201   0.0000       0.236427         6.4335 
 202   0.0000       0.238936         6.5018 
 203   0.0000       0.240187         6.5358 
 204   0.0000       0.248020         6.7490 
 205   0.0000       0.256376         6.9764 
 206   0.0000       0.257089         6.9957 
 207   0.0000       0.257404         7.0043 
 208   0.0000       0.260225         7.0811 
 209   0.0000       0.262078         7.1315 
 210   0.0000       0.262947         7.1551 
 211   0.0000       0.268443         7.3047 
 212   0.0000       0.269626         7.3369 
 213   0.0000       0.271871         7.3980 
 214   0.0000       0.272966         7.4278 
 215   0.0000       0.276486         7.5236 
 216   0.0000       0.278576         7.5804 
 217   0.0000       0.280652         7.6369 
 218   0.0000       0.285427         7.7669 
 219   0.0000       0.288192         7.8421 
 220   0.0000       0.289130         7.8676 
 221   0.0000       0.292128         7.9492 
 222   0.0000       0.294461         8.0127 
 223   0.0000       0.296431         8.0663 
 224   0.0000       0.297925         8.1069 
 225   0.0000       0.299553         8.1513 
 226   0.0000       0.305491         8.3128 
 227   0.0000       0.308303         8.3894 
 228   0.0000       0.310271         8.4429 
 229   0.0000       0.324532         8.8310 
 230   0.0000       0.326679         8.8894 
 231   0.0000       0.330402         8.9907 
 232   0.0000       0.337474         9.1831 
 233   0.0000       0.345140         9.3917 
 234   0.0000       0.352685         9.5971 
 235   0.0000       0.354563         9.6481 
 236   0.0000       0.376055        10.2330 
 237   0.0000       0.379558        10.3283 
 238   0.0000       0.393664        10.7121 
 239   0.0000       0.396714        10.7951 
 240   0.0000       0.400682        10.9031 
 241   0.0000       0.410654        11.1745 
 242   0.0000       0.414604        11.2819 
 243   0.0000       0.419770        11.4225 
 244   0.0000       0.429180        11.6786 
 245   0.0000       0.433908        11.8072 
 246   0.0000       0.436537        11.8788 
 247   0.0000       0.441124        12.0036 
 248   0.0000       0.441703        12.0194 
 249   0.0000       0.449253        12.2248 
 250   0.0000       0.457605        12.4521 
 251   0.0000       0.459837        12.5128 
 252   0.0000       0.465982        12.6800 
 253   0.0000       0.470915        12.8143 
 254   0.0000       0.472561        12.8590 
 255   0.0000       0.474863        12.9217 
 256   0.0000       0.477799        13.0016 
 257   0.0000       0.480771        13.0824 
 258   0.0000       0.486638        13.2421 
 259   0.0000       0.497270        13.5314 
 260   0.0000       0.503465        13.7000 
 261   0.0000       0.504840        13.7374 
 262   0.0000       0.506994        13.7960 
 263   0.0000       0.511096        13.9076 
 264   0.0000       0.514068        13.9885 
 265   0.0000       0.518783        14.1168 
 266   0.0000       0.524582        14.2746 
 267   0.0000       0.530028        14.4228 
 268   0.0000       0.532358        14.4862 
 269   0.0000       0.537084        14.6148 
 270   0.0000       0.540215        14.7000 
 271   0.0000       0.545437        14.8421 
 272   0.0000       0.554687        15.0938 
 273   0.0000       0.559425        15.2227 
 274   0.0000       0.562203        15.2983 
 275   0.0000       0.565011        15.3747 
 276   0.0000       0.570354        15.5201 
 277   0.0000       0.572389        15.5755 
 278   0.0000       0.577362        15.7108 
 279   0.0000       0.586561        15.9611 
 280   0.0000       0.590208        16.0604 
 281   0.0000       0.591732        16.1018 
 282   0.0000       0.594558        16.1787 
 283   0.0000       0.595819        16.2131 
 284   0.0000       0.598332        16.2814 
 285   0.0000       0.601899        16.3785 
 286   0.0000       0.608246        16.5512 
 287   0.0000       0.611467        16.6389 
 288   0.0000       0.613533        16.6951 
 289   0.0000       0.624264        16.9871 
 290   0.0000       0.627482        17.0747 
 291   0.0000       0.628949        17.1146 
 292   0.0000       0.634721        17.2716 
 293   0.0000       0.636905        17.3311 
 294   0.0000       0.646635        17.5958 
 295   0.0000       0.647884        17.6298 
 296   0.0000       0.653372        17.7792 
 297   0.0000       0.655909        17.8482 
 298   0.0000       0.662938        18.0395 
 299   0.0000       0.667605        18.1664 
 300   0.0000       0.670738        18.2517 
 301   0.0000       0.675353        18.3773 
 302   0.0000       0.676109        18.3979 
 303   0.0000       0.678213        18.4551 
 304   0.0000       0.680435        18.5156 
 305   0.0000       0.685918        18.6648 
 306   0.0000       0.689387        18.7592 
 307   0.0000       0.691356        18.8127 
 308   0.0000       0.695784        18.9333 
 309   0.0000       0.698018        18.9940 
 310   0.0000       0.702546        19.1173 
 311   0.0000       0.704002        19.1569 
 312   0.0000       0.706761        19.2320 
 313   0.0000       0.710801        19.3419 
 314   0.0000       0.711481        19.3604 
 315   0.0000       0.715465        19.4688 
 316   0.0000       0.717215        19.5164 
 317   0.0000       0.718940        19.5633 
 318   0.0000       0.721814        19.6416 
 319   0.0000       0.722416        19.6579 
 320   0.0000       0.726343        19.7648 
 321   0.0000       0.730756        19.8849 
 322   0.0000       0.731743        19.9117 
 323   0.0000       0.734538        19.9878 
 324   0.0000       0.736853        20.0508 
 325   0.0000       0.738694        20.1009 
 326   0.0000       0.742349        20.2003 
 327   0.0000       0.747495        20.3404 
 328   0.0000       0.751859        20.4591 
 329   0.0000       0.753114        20.4933 
 330   0.0000       0.755198        20.5500 
 331   0.0000       0.758177        20.6310 
 332   0.0000       0.760239        20.6871 
 333   0.0000       0.760823        20.7030 
 334   0.0000       0.767982        20.8978 
 335   0.0000       0.771943        21.0056 
 336   0.0000       0.774543        21.0764 
 337   0.0000       0.782209        21.2850 
 338   0.0000       0.786879        21.4121 
 339   0.0000       0.788637        21.4599 
 340   0.0000       0.789936        21.4952 
 341   0.0000       0.794334        21.6149 
 342   0.0000       0.797500        21.7011 
 343   0.0000       0.801990        21.8233 
 344   0.0000       0.805980        21.9318 
 345   0.0000       0.808187        21.9919 
 346   0.0000       0.809836        22.0368 
 347   0.0000       0.812235        22.1020 
 348   0.0000       0.813443        22.1349 
 349   0.0000       0.818135        22.2626 
 350   0.0000       0.818434        22.2707 
 351   0.0000       0.820247        22.3201 
 352   0.0000       0.825295        22.4574 
 353   0.0000       0.826258        22.4836 
 354   0.0000       0.828093        22.5336 
 355   0.0000       0.831526        22.6270 
 356   0.0000       0.833046        22.6683 
 357   0.0000       0.836260        22.7558 
 358   0.0000       0.836491        22.7621 
 359   0.0000       0.838469        22.8159 
 360   0.0000       0.839549        22.8453 
 361   0.0000       0.842387        22.9225 
 362   0.0000       0.844012        22.9667 
 363   0.0000       0.846353        23.0304 
 364   0.0000       0.850774        23.1507 
 365   0.0000       0.855327        23.2746 
 366   0.0000       0.858741        23.3675 
 367   0.0000       0.860208        23.4075 
 368   0.0000       0.863596        23.4996 
 369   0.0000       0.865635        23.5551 
 370   0.0000       0.869477        23.6597 
 371   0.0000       0.873018        23.7560 
 372   0.0000       0.874214        23.7886 
 373   0.0000       0.877545        23.8792 
 374   0.0000       0.879139        23.9226 
 375   0.0000       0.883689        24.0464 
 376   0.0000       0.885809        24.1041 
 377   0.0000       0.887303        24.1448 
 378   0.0000       0.891100        24.2481 
 379   0.0000       0.892099        24.2753 
 380   0.0000       0.896315        24.3900 
 381   0.0000       0.899381        24.4734 
 382   0.0000       0.900989        24.5172 
 383   0.0000       0.903028        24.5726 
 384   0.0000       0.904328        24.6080 
 385   0.0000       0.904863        24.6226 
 386   0.0000       0.907589        24.6968 
 387   0.0000       0.909158        24.7394 
 388   0.0000       0.913178        24.8488 
 389   0.0000       0.916676        24.9440 
 390   0.0000       0.920866        25.0580 
 391   0.0000       0.922757        25.1095 
 392   0.0000       0.926065        25.1995 
 393   0.0000       0.926999        25.2249 
 394   0.0000       0.929317        25.2880 
 395   0.0000       0.930440        25.3186 
 396   0.0000       0.931846        25.3568 
 397   0.0000       0.938840        25.5471 
 398   0.0000       0.940561        25.5940 
 399   0.0000       0.943465        25.6730 
 400   0.0000       0.945828        25.7373 
 401   0.0000       0.950852        25.8740 
 402   0.0000       0.952601        25.9216 
 403   0.0000       0.955590        26.0029 
 404   0.0000       0.959726        26.1155 
 405   0.0000       0.963132        26.2082 
 406   0.0000       0.966190        26.2914 
 407   0.0000       0.970348        26.4045 
 408   0.0000       0.974035        26.5048 
 409   0.0000       0.980785        26.6885 
 410   0.0000       0.983216        26.7547 
 411   0.0000       0.986162        26.8348 
 412   0.0000       0.993114        27.0240 
 413   0.0000       0.997856        27.1530 
 414   0.0000       1.000146        27.2154 
 415   0.0000       1.001642        27.2561 
 416   0.0000       1.008084        27.4314 
 417   0.0000       1.012906        27.5626 
 418   0.0000       1.021897        27.8072 
 419   0.0000       1.025986        27.9185 
 420   0.0000       1.030131        28.0313 
 421   0.0000       1.032694        28.1010 
 422   0.0000       1.037588        28.2342 
 423   0.0000       1.045381        28.4463 
 424   0.0000       1.052742        28.6466 
 425   0.0000       1.056903        28.7598 
 426   0.0000       1.059547        28.8317 
 427   0.0000       1.066103        29.0101 
 428   0.0000       1.075765        29.2730 
 429   0.0000       1.082290        29.4506 
 430   0.0000       1.083120        29.4732 
 431   0.0000       1.086428        29.5632 
 432   0.0000       1.088919        29.6310 
 433   0.0000       1.092885        29.7389 
 434   0.0000       1.099755        29.9259 
 435   0.0000       1.102007        29.9871 
 436   0.0000       1.108306        30.1585 
 437   0.0000       1.110489        30.2179 
 438   0.0000       1.115630        30.3578 
 439   0.0000       1.119828        30.4721 
 440   0.0000       1.121038        30.5050 
 441   0.0000       1.123210        30.5641 
 442   0.0000       1.124138        30.5893 
 443   0.0000       1.127983        30.6940 
 444   0.0000       1.132497        30.8168 
 445   0.0000       1.136141        30.9160 
 446   0.0000       1.140509        31.0348 
 447   0.0000       1.146041        31.1854 
 448   0.0000       1.147595        31.2277 
 449   0.0000       1.149472        31.2787 
 450   0.0000       1.153123        31.3781 
 451   0.0000       1.159084        31.5403 
 452   0.0000       1.162904        31.6442 
 453   0.0000       1.166019        31.7290 
 454   0.0000       1.170147        31.8413 
 455   0.0000       1.171579        31.8803 
 456   0.0000       1.172739        31.9119 
 457   0.0000       1.178487        32.0683 
 458   0.0000       1.184334        32.2274 
 459   0.0000       1.188447        32.3393 
 460   0.0000       1.190784        32.4029 
 461   0.0000       1.197962        32.5982 
 462   0.0000       1.200965        32.6799 
 463   0.0000       1.203886        32.7594 
 464   0.0000       1.208378        32.8816 
 465   0.0000       1.210460        32.9383 
 466   0.0000       1.215266        33.0691 
 467   0.0000       1.217406        33.1273 
 468   0.0000       1.223182        33.2845 
 469   0.0000       1.227482        33.4015 
 470   0.0000       1.229305        33.4511 
 471   0.0000       1.232812        33.5465 
 472   0.0000       1.234861        33.6023 
 473   0.0000       1.235540        33.6207 
 474   0.0000       1.243051        33.8251 
 475   0.0000       1.243516        33.8378 
 476   0.0000       1.249297        33.9951 
 477   0.0000       1.250431        34.0260 
 478   0.0000       1.251800        34.0632 
 479   0.0000       1.255608        34.1668 
 480   0.0000       1.257563        34.2200 
 481   0.0000       1.264063        34.3969 
 482   0.0000       1.264512        34.4091 
 483   0.0000       1.272101        34.6156 
 484   0.0000       1.274532        34.6818 
 485   0.0000       1.278936        34.8016 
 486   0.0000       1.282567        34.9004 
 487   0.0000       1.285354        34.9763 
 488   0.0000       1.287901        35.0456 
 489   0.0000       1.292261        35.1642 
 490   0.0000       1.294797        35.2332 
 491   0.0000       1.297369        35.3032 
 492   0.0000       1.299770        35.3685 
 493   0.0000       1.309538        35.6343 
 494   0.0000       1.311366        35.6841 
 495   0.0000       1.317608        35.8539 
 496   0.0000       1.320748        35.9394 
 497   0.0000       1.321767        35.9671 
 498   0.0000       1.326982        36.1090 
 499   0.0000       1.328330        36.1457 
 500   0.0000       1.333297        36.2809 
 501   0.0000       1.336913        36.3792 
 502   0.0000       1.339580        36.4518 
 503   0.0000       1.344662        36.5901 
 504   0.0000       1.345591        36.6154 
 505   0.0000       1.351205        36.7681 
 506   0.0000       1.352899        36.8143 
 507   0.0000       1.356095        36.9012 
 508   0.0000       1.358571        36.9686 
 509   0.0000       1.360863        37.0310 
[...]
      pz      :     0.022100  p :     0.079754
      px      :     0.043573
      py      :     0.014081
 77 H s       :     0.885117  s :     0.885117
      pz      :     0.047933  p :     0.079239
      px      :     0.015022
      py      :     0.016284
 78 H s       :     0.885476  s :     0.885476
      pz      :     0.025860  p :     0.079203
      px      :     0.020468
      py      :     0.032876
 79 H s       :     0.910478  s :     0.910478
      pz      :     0.021839  p :     0.086364
      px      :     0.021673
      py      :     0.042851
 80 H s       :     0.865254  s :     0.865254
      pz      :     0.039323  p :     0.084735
      px      :     0.030236
      py      :     0.015176
 81 H s       :     0.886965  s :     0.886965
      pz      :     0.037806  p :     0.084095
      px      :     0.016184
      py      :     0.030106
 82 H s       :     0.915899  s :     0.915899
      pz      :     0.021968  p :     0.086741
      px      :     0.031617
      py      :     0.033156
 83 H s       :     0.873337  s :     0.873337
      pz      :     0.039273  p :     0.084073
      px      :     0.015273
      py      :     0.029527
 84 H s       :     0.886756  s :     0.886756
      pz      :     0.035773  p :     0.083475
      px      :     0.031698
      py      :     0.016005
 85 H s       :     0.892956  s :     0.892956
      pz      :     0.022491  p :     0.079783
      px      :     0.014073
      py      :     0.043218
 86 H s       :     0.890988  s :     0.890988
      pz      :     0.024729  p :     0.078830
      px      :     0.032980
      py      :     0.021121
 87 H s       :     0.889959  s :     0.889959
      pz      :     0.048002  p :     0.078730
      px      :     0.015590
      py      :     0.015139
 88 H s       :     0.910905  s :     0.910905
      pz      :     0.021667  p :     0.087009
      px      :     0.042894
      py      :     0.022448
 89 H s       :     0.871603  s :     0.871603
      pz      :     0.037930  p :     0.083825
      px      :     0.030469
      py      :     0.015426


                      *****************************
                      * MAYER POPULATION ANALYSIS *
                      *****************************

  NA   - Mulliken gross atomic population
  ZA   - Total nuclear charge
  QA   - Mulliken gross atomic charge
  VA   - Mayer's total valence
  BVA  - Mayer's bonded valence
  FA   - Mayer's free valence

  ATOM       NA         ZA         QA         VA         BVA        FA
  0 C      5.7909     6.0000     0.2091     3.8408     3.8408    -0.0000
  1 N      7.4556     7.0000    -0.4556     3.3331     3.3331    -0.0000
  2 C      6.0669     6.0000    -0.0669     3.9202     3.9202     0.0000
  3 N      7.3376     7.0000    -0.3376     3.4571     3.4571    -0.0000
  4 C      6.0482     6.0000    -0.0482     4.0341     4.0341    -0.0000
  5 N      7.5647     7.0000    -0.5647     3.0943     3.0943    -0.0000
  6 C      6.1163     6.0000    -0.1163     3.9917     3.9917    -0.0000
  7 N      7.3403     7.0000    -0.3403     3.4342     3.4342    -0.0000
  8 C      5.7923     6.0000     0.2077     3.8434     3.8434    -0.0000
  9 N      7.5624     7.0000    -0.5624     3.0779     3.0779    -0.0000
 10 C      5.8813     6.0000     0.1187     3.9088     3.9088    -0.0000
 11 N      7.4383     7.0000    -0.4383     3.3788     3.3788    -0.0000
 12 C      6.0806     6.0000    -0.0806     3.8936     3.8936     0.0000
 13 N      7.4307     7.0000    -0.4307     3.4222     3.4222     0.0000
 14 C      5.7685     6.0000     0.2315     3.7859     3.7859    -0.0000
 15 N      7.4411     7.0000    -0.4411     3.3716     3.3716     0.0000
 16 C      5.7714     6.0000     0.2286     3.7788     3.7788    -0.0000
 17 C      6.1136     6.0000    -0.1136     3.9845     3.9845     0.0000
 18 C      6.1935     6.0000    -0.1935     3.7667     3.7667    -0.0000
 19 C      5.7751     6.0000     0.2249     3.8624     3.8624     0.0000
 20 C      5.7870     6.0000     0.2130     3.8288     3.8288     0.0000
 21 C      6.0908     6.0000    -0.0908     3.8794     3.8794    -0.0000
 22 C      6.0910     6.0000    -0.0910     3.9827     3.9827    -0.0000
 23 C      6.0404     6.0000    -0.0404     3.9925     3.9925     0.0000
 24 C      5.8051     6.0000     0.1949     3.8215     3.8215    -0.0000
 25 C      5.8855     6.0000     0.1145     3.8913     3.8913     0.0000
 26 C      6.0825     6.0000    -0.0825     3.9103     3.9103     0.0000
 27 C      5.7866     6.0000     0.2134     3.8637     3.8637     0.0000
 28 C      6.0608     6.0000    -0.0608     3.9886     3.9886     0.0000
 29 C      6.1804     6.0000    -0.1804     3.7447     3.7447     0.0000
 30 C      5.7550     6.0000     0.2450     3.7999     3.7999     0.0000
 31 C      5.7719     6.0000     0.2281     3.8186     3.8186    -0.0000
 32 C      6.0621     6.0000    -0.0621     3.9226     3.9226    -0.0000
 33 C      6.0629     6.0000    -0.0629     3.9735     3.9735     0.0000
 34 C      6.0508     6.0000    -0.0508     3.9847     3.9847    -0.0000
 35 C      5.7748     6.0000     0.2252     3.8177     3.8177    -0.0000
 36 C      5.8910     6.0000     0.1090     3.8768     3.8768     0.0000
 37 C      6.0646     6.0000    -0.0646     3.9177     3.9177    -0.0000
 38 C      5.7680     6.0000     0.2320     3.8003     3.8003    -0.0000
 39 C      6.0583     6.0000    -0.0583     3.9841     3.9841     0.0000
 40 C      6.1821     6.0000    -0.1821     3.7290     3.7290    -0.0000
 41 C      5.7747     6.0000     0.2253     3.8861     3.8861    -0.0000
 42 C      5.8022     6.0000     0.1978     3.8261     3.8261    -0.0000
 43 C      6.0724     6.0000    -0.0724     3.9002     3.9002    -0.0000
 44 C      6.0897     6.0000    -0.0897     3.9850     3.9850     0.0000
 45 C      6.0604     6.0000    -0.0604     3.9923     3.9923     0.0000
 46 C      5.7895     6.0000     0.2105     3.8283     3.8283     0.0000
 47 C      5.8846     6.0000     0.1154     3.8931     3.8931     0.0000
 48 C      6.0678     6.0000    -0.0678     3.9091     3.9091    -0.0000
 49 C      5.7624     6.0000     0.2376     3.8927     3.8927     0.0000
 50 C      6.0472     6.0000    -0.0472     3.9905     3.9905    -0.0000
 51 C      6.1920     6.0000    -0.1920     3.7360     3.7360    -0.0000
 52 H      0.9604     1.0000     0.0396     0.9860     0.9860    -0.0000
 53 H      1.0167     1.0000    -0.0167     0.9984     0.9984     0.0000
 54 H      0.9511     1.0000     0.0489     1.0150     1.0150    -0.0000
 55 H      0.9621     1.0000     0.0379     0.9867     0.9867    -0.0000
 56 H      0.9504     1.0000     0.0496     0.9696     0.9696    -0.0000
 57 H      0.9523     1.0000     0.0477     0.9828     0.9828    -0.0000
 58 H      0.9518     1.0000     0.0482     0.9848     0.9848    -0.0000
 59 H      0.9990     1.0000     0.0010     1.0030     1.0030    -0.0000
 60 H      0.9485     1.0000     0.0515     1.0167     1.0167    -0.0000
 61 H      0.8287     1.0000     0.1713     1.0421     1.0421    -0.0000
 62 H      0.8248     1.0000     0.1752     1.0436     1.0436    -0.0000
 63 H      0.9446     1.0000     0.0554     0.9853     0.9853     0.0000
 64 H      1.0094     1.0000    -0.0094     0.9958     0.9958     0.0000
 65 H      0.9526     1.0000     0.0474     1.0096     1.0096    -0.0000
 66 H      0.9440     1.0000     0.0560     0.9854     0.9854    -0.0000
 67 H      0.9376     1.0000     0.0624     0.9719     0.9719     0.0000
 68 H      0.9426     1.0000     0.0574     0.9868     0.9868    -0.0000
 69 H      0.9434     1.0000     0.0566     0.9828     0.9828     0.0000
 70 H      1.0295     1.0000    -0.0295     0.9936     0.9936     0.0000
 71 H      0.9550     1.0000     0.0450     1.0060     1.0060     0.0000
 72 H      0.9304     1.0000     0.0696     0.9837     0.9837    -0.0000
 73 H      1.0085     1.0000    -0.0085     1.0007     1.0007     0.0000
 74 H      0.9412     1.0000     0.0588     1.0101     1.0101    -0.0000
 75 H      0.9310     1.0000     0.0690     0.9841     0.9841    -0.0000
 76 H      0.9266     1.0000     0.0734     0.9721     0.9721     0.0000
 77 H      0.9332     1.0000     0.0668     0.9854     0.9854    -0.0000
 78 H      0.9339     1.0000     0.0661     0.9853     0.9853     0.0000
 79 H      1.0162     1.0000    -0.0162     0.9977     0.9977    -0.0000
 80 H      0.9403     1.0000     0.0597     1.0072     1.0072     0.0000
 81 H      0.9460     1.0000     0.0540     0.9856     0.9856     0.0000
 82 H      1.0247     1.0000    -0.0247     0.9935     0.9935     0.0000
 83 H      0.9580     1.0000     0.0420     1.0083     1.0083     0.0000
 84 H      0.9460     1.0000     0.0540     0.9853     0.9853    -0.0000
 85 H      0.9394     1.0000     0.0606     0.9716     0.9716     0.0000
 86 H      0.9444     1.0000     0.0556     0.9839     0.9839     0.0000
 87 H      0.9430     1.0000     0.0570     0.9856     0.9856     0.0000
 88 H      1.0151     1.0000    -0.0151     0.9965     0.9965     0.0000
 89 H      0.9541     1.0000     0.0459     1.0075     1.0075    -0.0000

  Mayer bond orders larger than 0.100000
B(  0-C ,  1-N ) :   1.0909 B(  0-C , 17-C ) :   1.7065 B(  0-C , 52-H ) :   0.9664 
B(  1-N ,  8-C ) :   1.0909 B(  1-N , 10-C ) :   0.9773 B(  2-C , 12-C ) :   1.5054 
B(  2-C , 16-C ) :   1.3574 B(  2-C , 53-H ) :   0.9749 B(  3-N , 14-C ) :   1.2186 
B(  3-N , 16-C ) :   1.1890 B(  3-N , 61-H ) :   0.8990 B(  4-C ,  6-C ) :   1.2141 
B(  4-C , 17-C ) :   1.2128 B(  4-C , 18-C ) :   1.4373 B(  5-N , 19-C ) :   1.4519 
B(  5-N , 27-C ) :   1.3787 B(  6-C ,  8-C ) :   1.7035 B(  6-C , 54-H ) :   0.9530 
B(  7-N , 30-C ) :   1.1956 B(  7-N , 38-C ) :   1.1912 B(  7-N , 62-H ) :   0.8969 
B(  8-C , 55-H ) :   0.9672 B(  9-N , 41-C ) :   1.3950 B(  9-N , 49-C ) :   1.4249 
B( 10-C , 56-H ) :   0.9771 B( 10-C , 57-H ) :   0.9821 B( 10-C , 58-H ) :   0.9843 
B( 11-N , 20-C ) :   1.1305 B( 11-N , 24-C ) :   1.1085 B( 11-N , 25-C ) :   0.9600 
B( 12-C , 14-C ) :   1.3557 B( 12-C , 59-H ) :   0.9714 B( 13-N , 31-C ) :   1.1569 
B( 13-N , 35-C ) :   1.1544 B( 13-N , 36-C ) :   0.9436 B( 14-C , 18-C ) :   1.1304 
B( 15-N , 42-C ) :   1.1082 B( 15-N , 46-C ) :   1.1226 B( 15-N , 47-C ) :   0.9616 
B( 16-C , 51-C ) :   1.1718 B( 17-C , 60-H ) :   0.9485 B( 18-C , 19-C ) :   1.1346 
B( 19-C , 21-C ) :   1.2457 B( 20-C , 28-C ) :   1.6280 B( 20-C , 63-H ) :   0.9703 
B( 21-C , 26-C ) :   1.6044 B( 21-C , 64-H ) :   0.9640 B( 22-C , 23-C ) :   1.2891 
B( 22-C , 28-C ) :   1.2649 B( 22-C , 29-C ) :   1.2237 B( 23-C , 24-C ) :   1.6198 
B( 23-C , 65-H ) :   0.9703 B( 24-C , 66-H ) :   0.9695 B( 25-C , 67-H ) :   0.9760 
B( 25-C , 68-H ) :   0.9828 B( 25-C , 69-H ) :   0.9823 B( 26-C , 27-C ) :   1.2434 
B( 26-C , 70-H ) :   0.9704 B( 27-C , 29-C ) :   1.2127 B( 28-C , 71-H ) :   0.9719 
B( 29-C , 30-C ) :   1.2410 B( 30-C , 32-C ) :   1.2836 B( 31-C , 39-C ) :   1.5931 
B( 31-C , 72-H ) :   0.9683 B( 32-C , 37-C ) :   1.5753 B( 32-C , 73-H ) :   0.9785 
B( 33-C , 34-C ) :   1.3035 B( 33-C , 39-C ) :   1.2995 B( 33-C , 40-C ) :   1.1846 
B( 34-C , 35-C ) :   1.5904 B( 34-C , 74-H ) :   0.9697 B( 35-C , 75-H ) :   0.9683 
B( 36-C , 76-H ) :   0.9767 B( 36-C , 77-H ) :   0.9816 B( 36-C , 78-H ) :   0.9824 
B( 37-C , 38-C ) :   1.2885 B( 37-C , 79-H ) :   0.9766 B( 38-C , 40-C ) :   1.2304 
B( 39-C , 80-H ) :   0.9706 B( 40-C , 41-C ) :   1.2473 B( 41-C , 43-C ) :   1.1878 
B( 42-C , 50-C ) :   1.6337 B( 42-C , 81-H ) :   0.9697 B( 43-C , 48-C ) :   1.6647 
B( 43-C , 82-H ) :   0.9723 B( 44-C , 45-C ) :   1.2640 B( 44-C , 50-C ) :   1.2713 
B( 44-C , 51-C ) :   1.2609 B( 45-C , 46-C ) :   1.6350 B( 45-C , 83-H ) :   0.9718 
B( 46-C , 84-H ) :   0.9700 B( 47-C , 85-H ) :   0.9762 B( 47-C , 86-H ) :   0.9829 
B( 47-C , 87-H ) :   0.9825 B( 48-C , 49-C ) :   1.1912 B( 48-C , 88-H ) :   0.9748 
B( 49-C , 51-C ) :   1.2403 B( 50-C , 89-H ) :   0.9710 

-------
TIMINGS
-------

Total SCF time: 0 days 0 hours 28 min 35 sec 

Total time                  ....    1715.509 sec
Sum of individual times     ....    1710.795 sec  ( 99.7%)

Fock matrix formation       ....    1683.097 sec  ( 98.1%)
Diagonalization             ....       8.787 sec  (  0.5%)
Density matrix formation    ....       0.520 sec  (  0.0%)
Population analysis         ....       0.586 sec  (  0.0%)
Initial guess               ....       2.511 sec  (  0.1%)
Orbital Transformation      ....       0.000 sec  (  0.0%)
Orbital Orthonormalization  ....       0.000 sec  (  0.0%)
DIIS solution               ....       3.977 sec  (  0.2%)
SOSCF solution              ....      10.006 sec  (  0.6%)

Maximum memory used throughout the entire SCF-calculation: 302.6 MB


           ************************************************************
           *        Program running with 16 parallel MPI-processes    *
           *              working on a common directory               *
           ************************************************************

------------------------------------------------------------------------------
                                ORCA  MP2 
------------------------------------------------------------------------------

Freezing NCore=104 chemical core electrons

----------
MP2 ENERGY (disk based algorithm)
----------

Dimension of the basis                    ...  918
Memory devoted to MP2                     ... 2000 MB   
Data format for buffers                   ... DOUBLE
Compression type for matrix containers    ... UNCOMPRESSED

-------------------------------
PARTIAL EXCHANGE TRANSFORMATION
-------------------------------

Transformation type                        ... one-operator
Generation of integrals (i,mue|j,nue)      ... ON
Generation of integrals (mue,kappa|nue,tau)... OFF
Generation of integrals (i,mue|a,nue)      ... OFF
Dimension of the basis                     ...  918
Number of internal MOs                     ...  127 (  52- 178)
Pair cutoff                                ... 2.500e-12 Eh
Number of AO pairs in the trafo            ... 421821
Total Number of distinct AO pairs          ... 421821
Memory devoted for trafo                   ... 2000.0 MB 
Max. Number of MO pairs treated together   ...  311      
Number Format for Storage                  ... Double (8 Byte)
Integral package used                      ... LIBINT

Starting integral evaluation:
    ... done with AO integral generation
Closing buffer AOK     (38.26 GB; CompressionRatio= 1.32)
Collecting buffer AOK 
Number of MO pairs included in the trafo   ... 8128
------------------------
SORTING OF (i,mue|j,nue)
------------------------

IBATCH = 1 of  2
IBATCH = 2 of  2
Closing buffer KAO     (51.03 GB; CompressionRatio= 1.00)
Collecting buffer KAO 
N(AO-Batches) Done                         ...  85998941 
N(AO-Batches) Skipped                      ...  82293319 
N(IJ)-pairs Skipped                        ...         0 
TOTAL TIME for half transformation         ...  2871.333 sec
AO-integral generation                     ...   211.058 sec
Half transformation                        ...   423.742 sec
K-integral sorting                         ...  2014.815 sec
Process 10:   Internal MO 132
Process 13:   Internal MO 156

Finished integral transformation - now doing MP2 part

OPERATOR COMBINATION   0   0: ij=( 52..178, 52..178)
Process  4:   Internal MO  84
Process  1:   Internal MO  60
Process  7:   Internal MO 108
Process  0:   Internal MO  54
Process  0:   Internal MO  57
Process  2:   Internal MO  69
Process  5:   Internal MO  93
Process  3:   Internal MO  78
Process  8:   Internal MO 117
Process  2:   Internal MO  72
Process  6:   Internal MO 102
Process 11:   Internal MO 141
Process  4:   Internal MO  87
Process  1:   Internal MO  63
Process  3:   Internal MO  81
Process  2:   Internal MO  75
Process  9:   Internal MO 126
Process  1:   Internal MO  66
Process  7:   Internal MO 111
Process  5:   Internal MO  96
Process 12:   Internal MO 150
Process  4:   Internal MO  90
Process 14:   Internal MO 165
Process  6:   Internal MO 105
Process 15:   Internal MO 174
Process  8:   Internal MO 120
Process 10:   Internal MO 135
Process  5:   Internal MO  99
Process  9:   Internal MO 129
Process  7:   Internal MO 114
Process 11:   Internal MO 144
Process 13:   Internal MO 159
Process 12:   Internal MO 153
Process  8:   Internal MO 123
Process 10:   Internal MO 138
Process 14:   Internal MO 168
Process 15:   Internal MO 177
Process 11:   Internal MO 147
Process 13:   Internal MO 162
Process 14:   Internal MO 171
-----------------------------------------------
 MP2 CORRELATION ENERGY   :     -7.283961900 Eh
-----------------------------------------------


-------
TIMINGS
-------
Total time                : 3166.457 sec
Integral trafo            : 2875.609 sec ( 90.8%)
K(i,j)                    :    6.347 sec (  0.2%)
T(i,j)                    :    0.067 sec (  0.0%)

---------------------------------------
MP2 TOTAL ENERGY:    -2130.875206213 Eh
---------------------------------------

Maximum memory used throughout the entire MP2-calculation: 2275.3 MB

-------------------------   --------------------
FINAL SINGLE POINT ENERGY     -2130.875206213056
-------------------------   --------------------


                            ***************************************
                            *     ORCA property calculations      *
                            ***************************************


  WARNING: The energy has been calculated at the MP2 level but the densities
           used in the property calculations are still SCF densities
           MP2 response densities have not been calculated 
           use %mp2 Density relaxed end
           or  %mp2 Density unrelaxed end

                                    ---------------------
                                    Active property flags
                                    ---------------------
   (+) Dipole Moment


------------------------------------------------------------------------------
                       ORCA ELECTRIC PROPERTIES CALCULATION
------------------------------------------------------------------------------

Dipole Moment Calculation                       ... on
Quadrupole Moment Calculation                   ... off
Polarizability Calculation                      ... off
GBWName                                         ... /scratch/allen/tmpyp4_amber_gaff2/conf1/conf1/Conf210.orca.gbw
Electron density                                ... /scratch/allen/tmpyp4_amber_gaff2/conf1/conf1/Conf210.orca.scfp
The origin for moment calculation is the CENTER OF MASS  = ( 0.002716, -0.002258 -0.000944)

-------------
DIPOLE MOMENT
-------------
                                X             Y             Z
Electronic contribution:      2.34173      -3.97045      -0.16625
Nuclear contribution   :      0.07825       0.23949       0.16598
                        -----------------------------------------
Total Dipole Moment    :      2.41998      -3.73096      -0.00027
                        -----------------------------------------
Magnitude (a.u.)       :      4.44706
Magnitude (Debye)      :     11.30354



--------------------
Rotational spectrum 
--------------------
 
Rotational constants in cm-1:     0.001501     0.001478     0.000760 
Rotational constants in MHz :    44.983957    44.320397    22.798845 

 Dipole components along the rotational axes: 
x,y,z [a.u.] :     3.184949    -3.103622    -0.000784 
x,y,z [Debye]:     8.095497    -7.888780    -0.001992 

 

Timings for individual modules:

Sum of individual times         ...     4906.826 sec (=  81.780 min)
GTO integral calculation        ...        3.523 sec (=   0.059 min)   0.1 %
SCF iterations                  ...     1716.752 sec (=  28.613 min)  35.0 %
MP2 module                      ...     3186.551 sec (=  53.109 min)  64.9 %
                             ****ORCA TERMINATED NORMALLY****
TOTAL RUN TIME: 0 days 1 hours 21 minutes 50 seconds 513 msec
# of primitive gaussian functions

