
                                 *****************
                                 * O   R   C   A *
                                 *****************

                                            #,                                       
                                            ###                                      
                                            ####                                     
                                            #####                                    
                                            ######                                   
                                           ########,                                 
                                     ,,################,,,,,                         
                               ,,#################################,,                 
                          ,,##########################################,,             
                       ,#########################################, ''#####,          
                    ,#############################################,,   '####,        
                  ,##################################################,,,,####,       
                ,###########''''           ''''###############################       
              ,#####''   ,,,,##########,,,,          '''####'''          '####       
            ,##' ,,,,###########################,,,                        '##       
           ' ,,###''''                  '''############,,,                           
         ,,##''                                '''############,,,,        ,,,,,,###''
      ,#''                                            '''#######################'''  
     '                                                          ''''####''''         
             ,#######,   #######,   ,#######,      ##                                
            ,#'     '#,  ##    ##  ,#'     '#,    #''#        ######   ,####,        
            ##       ##  ##   ,#'  ##            #'  '#       #        #'  '#        
            ##       ##  #######   ##           ,######,      #####,   #    #        
            '#,     ,#'  ##    ##  '#,     ,#' ,#      #,         ##   #,  ,#        
             '#######'   ##     ##  '#######'  #'      '#     #####' # '####'        



                  #######################################################
                  #                        -***-                        #
                  #          Department of theory and spectroscopy      #
                  #    Directorship and core code : Frank Neese         #
                  #        Max Planck Institute fuer Kohlenforschung    #
                  #                Kaiser Wilhelm Platz 1               #
                  #                 D-45470 Muelheim/Ruhr               #
                  #                      Germany                        #
                  #                                                     #
                  #                  All rights reserved                #
                  #                        -***-                        #
                  #######################################################


                         Program Version 5.0.4 -  RELEASE  -


 With contributions from (in alphabetic order):
   Daniel Aravena         : Magnetic Suceptibility
   Michael Atanasov       : Ab Initio Ligand Field Theory (pilot matlab implementation)
   Alexander A. Auer      : GIAO ZORA, VPT2 properties, NMR spectrum
   Ute Becker             : Parallelization
   Giovanni Bistoni       : ED, misc. LED, open-shell LED, HFLD
   Martin Brehm           : Molecular dynamics
   Dmytro Bykov           : SCF Hessian
   Vijay G. Chilkuri      : MRCI spin determinant printing, contributions to CSF-ICE
   Dipayan Datta          : RHF DLPNO-CCSD density
   Achintya Kumar Dutta   : EOM-CC, STEOM-CC
   Dmitry Ganyushin       : Spin-Orbit,Spin-Spin,Magnetic field MRCI
   Miquel Garcia          : C-PCM and meta-GGA Hessian, CC/C-PCM, Gaussian charge scheme
   Yang Guo               : DLPNO-NEVPT2, F12-NEVPT2, CIM, IAO-localization
   Andreas Hansen         : Spin unrestricted coupled pair/coupled cluster methods
   Benjamin Helmich-Paris : MC-RPA, TRAH-SCF, COSX integrals
   Lee Huntington         : MR-EOM, pCC
   Robert Izsak           : Overlap fitted RIJCOSX, COSX-SCS-MP3, EOM
   Marcus Kettner         : VPT2
   Christian Kollmar      : KDIIS, OOCD, Brueckner-CCSD(T), CCSD density, CASPT2, CASPT2-K
   Simone Kossmann        : Meta GGA functionals, TD-DFT gradient, OOMP2, MP2 Hessian
   Martin Krupicka        : Initial AUTO-CI
   Lucas Lang             : DCDCAS
   Marvin Lechner         : AUTO-CI (C++ implementation), FIC-MRCC
   Dagmar Lenk            : GEPOL surface, SMD
   Dimitrios Liakos       : Extrapolation schemes; Compound Job, initial MDCI parallelization
   Dimitrios Manganas     : Further ROCIS development; embedding schemes
   Dimitrios Pantazis     : SARC Basis sets
   Anastasios Papadopoulos: AUTO-CI, single reference methods and gradients
   Taras Petrenko         : DFT Hessian,TD-DFT gradient, ASA, ECA, R-Raman, ABS, FL, XAS/XES, NRVS
   Peter Pinski           : DLPNO-MP2, DLPNO-MP2 Gradient
   Christoph Reimann      : Effective Core Potentials
   Marius Retegan         : Local ZFS, SOC
   Christoph Riplinger    : Optimizer, TS searches, QM/MM, DLPNO-CCSD(T), (RO)-DLPNO pert. Triples
   Tobias Risthaus        : Range-separated hybrids, TD-DFT gradient, RPA, STAB
   Michael Roemelt        : Original ROCIS implementation
   Masaaki Saitow         : Open-shell DLPNO-CCSD energy and density
   Barbara Sandhoefer     : DKH picture change effects
   Avijit Sen             : IP-ROCIS
   Kantharuban Sivalingam : CASSCF convergence, NEVPT2, FIC-MRCI
   Bernardo de Souza      : ESD, SOC TD-DFT
   Georgi Stoychev        : AutoAux, RI-MP2 NMR, DLPNO-MP2 response
   Willem Van den Heuvel  : Paramagnetic NMR
   Boris Wezisla          : Elementary symmetry handling
   Frank Wennmohs         : Technical directorship


 We gratefully acknowledge several colleagues who have allowed us to
 interface, adapt or use parts of their codes:
   Stefan Grimme, W. Hujo, H. Kruse, P. Pracht,  : VdW corrections, initial TS optimization,
                  C. Bannwarth, S. Ehlert          DFT functionals, gCP, sTDA/sTD-DF
   Ed Valeev, F. Pavosevic, A. Kumar             : LibInt (2-el integral package), F12 methods
   Garnet Chan, S. Sharma, J. Yang, R. Olivares  : DMRG
   Ulf Ekstrom                                   : XCFun DFT Library
   Mihaly Kallay                                 : mrcc  (arbitrary order and MRCC methods)
   Jiri Pittner, Ondrej Demel                    : Mk-CCSD
   Frank Weinhold                                : gennbo (NPA and NBO analysis)
   Christopher J. Cramer and Donald G. Truhlar   : smd solvation model
   Lars Goerigk                                  : TD-DFT with DH, B97 family of functionals
   V. Asgeirsson, H. Jonsson                     : NEB implementation
   FAccTs GmbH                                   : IRC, NEB, NEB-TS, DLPNO-Multilevel, CI-OPT
                                                   MM, QMMM, 2- and 3-layer-ONIOM, Crystal-QMMM,
                                                   LR-CPCM, SF, NACMEs, symmetry and pop. for TD-DFT,
                                                   nearIR, NL-DFT gradient (VV10), updates on ESD,
                                                   ML-optimized integration grids
   S Lehtola, MJT Oliveira, MAL Marques          : LibXC Library
   Liviu Ungur et al                             : ANISO software


 Your calculation uses the libint2 library for the computation of 2-el integrals
 For citations please refer to: http://libint.valeyev.net

 Your ORCA version has been built with support for libXC version: 5.1.0
 For citations please refer to: https://tddft.org/programs/libxc/

 This ORCA versions uses:
   CBLAS   interface :  Fast vector & matrix operations
   LAPACKE interface :  Fast linear algebra routines
   SCALAPACK package :  Parallel linear algebra routines
   Shared memory     :  Shared parallel matrices
   BLAS/LAPACK       :  OpenBLAS 0.3.15  USE64BITINT DYNAMIC_ARCH NO_AFFINITY Sandybridge SINGLE_THREADED
        Core in use  :  Sandybridge
   Copyright (c) 2011-2014, The OpenBLAS Project


================================================================================

----- Orbital basis set information -----
Your calculation utilizes the basis: cc-pVDZ 
       H, B-Ne : Obtained from the ccRepo (grant-hill.group.shef.ac.uk/ccrepo) Feb. 2017
                 T. H. Dunning, Jr., J. Chem. Phys. 90, 1007 (1989)
            He : Obtained from the ccRepo (grant-hill.group.shef.ac.uk/ccrepo) Feb. 2017
                 D. E. Woon, T. H. Dunning, Jr., J. Chem. Phys. 100, 2975 (1994)
  Li-Be, Na-Mg : Obtained from the ccRepo (grant-hill.group.shef.ac.uk/ccrepo) Feb. 2017
                 B. P. Prascher, D. E. Woon, K. A. Peterson, T. H. Dunning, Jr., A. K. Wilson, Theor. Chem. Acc. 128, 69 (2011)
         Al-Ar : Obtained from the ccRepo (grant-hill.group.shef.ac.uk/ccrepo) Feb. 2017
                 D. E. Woon, T. H. Dunning, Jr., J. Chem. Phys. 98, 1358 (1993)
            Ca : Obtained from the Peterson Research Group Website (tyr0.chem.wsu.edu/~kipeters) Feb. 2017
                 J. Koput, K. A. Peterson, J. Phys. Chem. 106, 9595 (2002)
         Sc-Zn : Obtained from the ccRepo (grant-hill.group.shef.ac.uk/ccrepo) Feb. 2017
                 N. B. Balabanov, K. A. Peterson, J. Chem. Phys. 123, 064107 (2005)
                 N. B. Balabanov, K. A. Peterson, J. Chem. Phys. 125, 074110 (2006)
         Ga-Kr : Obtained from the ccRepo (grant-hill.group.shef.ac.uk/ccrepo) Feb. 2017
                 A. K. Wilson, D. E. Woon, K. A. Peterson, T. H. Dunning, Jr., J. Chem. Phys. 110, 7667 (1999)

================================================================================
                                        WARNINGS
                       Please study these warnings very carefully!
================================================================================


WARNING: No MP2 level density has been requested!
         To caclulate MP2 level properties use
         %mp2 Density relaxed end
         or
         %mp2 Density unrelaxed end

WARNING: Post HF methods need fully converged wavefunctions
  ===> : Setting SCFConvForced true
         You can overwrite this default with %scf ConvForced false 


INFO   : the flag for use of the SHARK integral package has been found!

================================================================================
                                       INPUT FILE
================================================================================
NAME = /scratch/allen/tmpyp4_amber_gaff2/2.Mdgx/conf11/conf11/Conf269.orca
|  1> ! PAL2
|  2> ! mp2 cc-pvdz TightSCF  NoKeepInts
|  3> 
|  4> %scf
|  5>   MaxCore 2000
|  6> end
|  7> %mp2
|  8>   MaxCore 2000
|  9> end
| 10> * xyz 0 1
| 11>    C       -4.05300         5.77500         1.24500
| 12>    C        1.47400         4.04100         0.05700
| 13>    C       -2.80200         4.09300         0.04900
| 14>    C       -3.16300         4.74400        -1.14100
| 15>    C       -3.94600         5.88000        -1.10000
| 16>    C       -5.19000         7.61800         0.09300
| 17>    C        0.13200         4.30700         0.06100
| 18>    C       -0.56900         3.05600         0.04700
| 19>    C        1.64900         2.61800         0.02300
| 20>    C       -3.26600         4.64000         1.25600
| 21>    N       -4.38300         6.37800         0.08100
| 22>    N        0.38800         2.06700         0.02500
| 23>    N       -2.01000         0.39500        -0.07500
| 24>    N       -0.38800        -2.07400        -0.02700
| 25>    N        2.01000        -0.40100         0.06500
| 26>    C       -1.96000         2.86100         0.02400
| 27>    C       -2.62300         1.61500        -0.01800
| 28>    C       -5.57300        -4.32900         1.06600
| 29>    C       -4.07300         1.47100         0.05600
| 30>    C       -4.10600        -2.75600        -0.02600
| 31>    C       -4.99500        -2.75700        -1.11100
| 32>    C       -6.13200        -3.54200        -1.07600
| 33>    C       -7.65100        -5.11300         0.04000
| 34>    C       -4.32400         0.14100         0.03700
| 35>    C       -3.02500        -0.52000        -0.04800
| 36>    C       -4.42200        -3.56600         1.07500
| 37>    N       -6.40700        -4.31300         0.00100
| 38>    C       -2.86700        -1.92200        -0.04000
| 39>    C       -1.65000        -2.62400        -0.02700
| 40>    C        3.56800        -6.14200        -1.04000
| 41>    C       -1.47600        -4.04900        -0.03400
| 42>    C        2.80300        -4.09900        -0.00800
| 43>    C        3.65700        -4.38400         1.06900
| 44>    C        4.42700        -5.53000         1.05900
| 45>    C        5.24500        -7.58800         0.01400
| 46>    C       -0.13400        -4.31500        -0.02200
| 47>    C        0.56800        -3.06400        -0.02700
| 48>    C        2.77500        -5.01200        -1.07400
| 49>    N        4.37600        -6.39100         0.01700
| 50>    C        1.95900        -2.86900        -0.00900
| 51>    C        2.62100        -1.62200         0.00900
| 52>    C        5.54300         4.33900        -1.13000
| 53>    C        4.07000        -1.47900        -0.09400
| 54>    C        4.10400         2.75100        -0.02100
| 55>    C        5.02700         2.72900         1.03600
| 56>    C        6.16600         3.50900         0.97800
| 57>    C        7.61900         5.15300        -0.11500
| 58>    C        4.32100        -0.14800        -0.09200
| 59>    C        3.02500         0.51400         0.01500
| 60>    C        4.38700         3.58200        -1.11500
| 61>    C        2.86600         1.91600         0.01300
| 62>    N        6.41300         4.29600        -0.09500
| 63>    H       -4.44300         6.22400         2.15000
| 64>    H        2.27400         4.76600         0.08100
| 65>    H       -2.82800         4.37600        -2.10300
| 66>    H       -4.24200         6.42100        -1.98900
| 67>    H       -4.51800         8.48000         0.09800
| 68>    H       -5.81800         7.63700        -0.79700
| 69>    H       -5.81000         7.62400         0.98900
| 70>    H       -0.33200         5.28200         0.06900
| 71>    H       -3.03300         4.17500         2.20700
| 72>    H        0.18200         1.07200         0.00500
| 73>    H       -0.18300        -1.08000        -0.02100
| 74>    H       -5.86400        -4.96200         1.89500
| 75>    H       -4.79400         2.27200         0.13900
| 76>    H       -4.80000        -2.16000        -1.99400
| 77>    H       -6.84100        -3.58200        -1.89300
| 78>    H       -8.42800        -4.53600         0.54600
| 79>    H       -7.95600        -5.33700        -0.98100
| 80>    H       -7.45600        -6.03700         0.58400
| 81>    H       -5.28700        -0.34400         0.10000
| 82>    H       -3.78000        -3.60100         1.94700
| 83>    H        3.58700        -6.86800        -1.84300
| 84>    H       -2.27600        -4.77400        -0.05000
| 85>    H        3.71400        -3.72400         1.92600
| 86>    H        5.09200        -5.79500         1.87100
| 87>    H        6.20500        -7.32900        -0.43900
| 88>    H        5.39300        -7.91700         1.04200
| 89>    H        4.75900        -8.37300        -0.56400
| 90>    H        0.32900        -5.29000        -0.00800
| 91>    H        2.14600        -4.84200        -1.94000
| 92>    H        5.80800         4.98600        -1.95600
| 93>    H        4.78800        -2.28100        -0.18500
| 94>    H        4.86000         2.11400         1.91200
| 95>    H        6.90100         3.53100         1.77200
| 96>    H        7.38300         6.10900         0.35600
| 97>    H        8.41400         4.65200         0.43500
| 98>    H        7.92100         5.31000        -1.15000
| 99>    H        5.28300         0.33600        -0.17900
|100>    H        3.72000         3.63200        -1.96700
|101> *
|102> 
|103>                          ****END OF INPUT****
================================================================================

                       ****************************
                       * Single Point Calculation *
                       ****************************

---------------------------------
CARTESIAN COORDINATES (ANGSTROEM)
---------------------------------
  C     -4.053000    5.775000    1.245000
  C      1.474000    4.041000    0.057000
  C     -2.802000    4.093000    0.049000
  C     -3.163000    4.744000   -1.141000
  C     -3.946000    5.880000   -1.100000
  C     -5.190000    7.618000    0.093000
  C      0.132000    4.307000    0.061000
  C     -0.569000    3.056000    0.047000
  C      1.649000    2.618000    0.023000
  C     -3.266000    4.640000    1.256000
  N     -4.383000    6.378000    0.081000
  N      0.388000    2.067000    0.025000
  N     -2.010000    0.395000   -0.075000
  N     -0.388000   -2.074000   -0.027000
  N      2.010000   -0.401000    0.065000
  C     -1.960000    2.861000    0.024000
  C     -2.623000    1.615000   -0.018000
  C     -5.573000   -4.329000    1.066000
  C     -4.073000    1.471000    0.056000
  C     -4.106000   -2.756000   -0.026000
  C     -4.995000   -2.757000   -1.111000
  C     -6.132000   -3.542000   -1.076000
  C     -7.651000   -5.113000    0.040000
  C     -4.324000    0.141000    0.037000
  C     -3.025000   -0.520000   -0.048000
  C     -4.422000   -3.566000    1.075000
  N     -6.407000   -4.313000    0.001000
  C     -2.867000   -1.922000   -0.040000
  C     -1.650000   -2.624000   -0.027000
  C      3.568000   -6.142000   -1.040000
  C     -1.476000   -4.049000   -0.034000
  C      2.803000   -4.099000   -0.008000
  C      3.657000   -4.384000    1.069000
  C      4.427000   -5.530000    1.059000
  C      5.245000   -7.588000    0.014000
  C     -0.134000   -4.315000   -0.022000
  C      0.568000   -3.064000   -0.027000
  C      2.775000   -5.012000   -1.074000
  N      4.376000   -6.391000    0.017000
  C      1.959000   -2.869000   -0.009000
  C      2.621000   -1.622000    0.009000
  C      5.543000    4.339000   -1.130000
  C      4.070000   -1.479000   -0.094000
  C      4.104000    2.751000   -0.021000
  C      5.027000    2.729000    1.036000
  C      6.166000    3.509000    0.978000
  C      7.619000    5.153000   -0.115000
  C      4.321000   -0.148000   -0.092000
  C      3.025000    0.514000    0.015000
  C      4.387000    3.582000   -1.115000
  C      2.866000    1.916000    0.013000
  N      6.413000    4.296000   -0.095000
  H     -4.443000    6.224000    2.150000
  H      2.274000    4.766000    0.081000
  H     -2.828000    4.376000   -2.103000
  H     -4.242000    6.421000   -1.989000
  H     -4.518000    8.480000    0.098000
  H     -5.818000    7.637000   -0.797000
  H     -5.810000    7.624000    0.989000
  H     -0.332000    5.282000    0.069000
  H     -3.033000    4.175000    2.207000
  H      0.182000    1.072000    0.005000
  H     -0.183000   -1.080000   -0.021000
  H     -5.864000   -4.962000    1.895000
  H     -4.794000    2.272000    0.139000
  H     -4.800000   -2.160000   -1.994000
  H     -6.841000   -3.582000   -1.893000
  H     -8.428000   -4.536000    0.546000
  H     -7.956000   -5.337000   -0.981000
  H     -7.456000   -6.037000    0.584000
  H     -5.287000   -0.344000    0.100000
  H     -3.780000   -3.601000    1.947000
  H      3.587000   -6.868000   -1.843000
  H     -2.276000   -4.774000   -0.050000
  H      3.714000   -3.724000    1.926000
  H      5.092000   -5.795000    1.871000
  H      6.205000   -7.329000   -0.439000
  H      5.393000   -7.917000    1.042000
  H      4.759000   -8.373000   -0.564000
  H      0.329000   -5.290000   -0.008000
  H      2.146000   -4.842000   -1.940000
  H      5.808000    4.986000   -1.956000
  H      4.788000   -2.281000   -0.185000
  H      4.860000    2.114000    1.912000
  H      6.901000    3.531000    1.772000
  H      7.383000    6.109000    0.356000
  H      8.414000    4.652000    0.435000
  H      7.921000    5.310000   -1.150000
  H      5.283000    0.336000   -0.179000
  H      3.720000    3.632000   -1.967000

----------------------------
CARTESIAN COORDINATES (A.U.)
----------------------------
  NO LB      ZA    FRAG     MASS         X           Y           Z
   0 C     6.0000    0    12.011   -7.659060   10.913168    2.352709
   1 C     6.0000    0    12.011    2.785456    7.636383    0.107714
   2 C     6.0000    0    12.011   -5.295013    7.734649    0.092597
   3 C     6.0000    0    12.011   -5.977204    8.964861   -2.156178
   4 C     6.0000    0    12.011   -7.456859   11.111590   -2.078699
   5 C     6.0000    0    12.011   -9.807679   14.395934    0.175745
   6 C     6.0000    0    12.011    0.249444    8.139050    0.115273
   7 C     6.0000    0    12.011   -1.075254    5.775003    0.088817
   8 C     6.0000    0    12.011    3.116158    4.947303    0.043464
   9 C     6.0000    0    12.011   -6.171846    8.768329    2.373496
  10 N     7.0000    0    14.007   -8.282670   12.052673    0.153068
  11 N     7.0000    0    14.007    0.733214    3.906064    0.047243
  12 N     7.0000    0    14.007   -3.798350    0.746442   -0.141729
  13 N     7.0000    0    14.007   -0.733214   -3.919292   -0.051023
  14 N     7.0000    0    14.007    3.798350   -0.757780    0.122832
  15 C     6.0000    0    12.011   -3.703863    5.406506    0.045353
  16 C     6.0000    0    12.011   -4.956752    3.051908   -0.034015
  17 C     6.0000    0    12.011  -10.531444   -8.180624    2.014448
  18 C     6.0000    0    12.011   -7.696855    2.779787    0.105825
  19 C     6.0000    0    12.011   -7.759216   -5.208085   -0.049133
  20 C     6.0000    0    12.011   -9.439182   -5.209975   -2.099486
  21 C     6.0000    0    12.011  -11.587801   -6.693410   -2.033345
  22 C     6.0000    0    12.011  -14.458295   -9.662170    0.075589
  23 C     6.0000    0    12.011   -8.171176    0.266451    0.069920
  24 C     6.0000    0    12.011   -5.716422   -0.982658   -0.090707
  25 C     6.0000    0    12.011   -8.356369   -6.738763    2.031456
  26 N     7.0000    0    14.007  -12.107475   -8.150389    0.001890
  27 C     6.0000    0    12.011   -5.417845   -3.632054   -0.075589
  28 C     6.0000    0    12.011   -3.118048   -4.958641   -0.051023
  29 C     6.0000    0    12.011    6.742543  -11.606698   -1.965315
  30 C     6.0000    0    12.011   -2.789236   -7.651501   -0.064251
  31 C     6.0000    0    12.011    5.296902   -7.745987   -0.015118
  32 C     6.0000    0    12.011    6.910728   -8.284559    2.020117
  33 C     6.0000    0    12.011    8.365818  -10.450186    2.001220
  34 C     6.0000    0    12.011    9.911614  -14.339242    0.026456
  35 C     6.0000    0    12.011   -0.253223   -8.154168   -0.041574
  36 C     6.0000    0    12.011    1.073364   -5.790121   -0.051023
  37 C     6.0000    0    12.011    5.243990   -9.471307   -2.029566
  38 N     7.0000    0    14.007    8.269442  -12.077240    0.032125
  39 C     6.0000    0    12.011    3.701973   -5.421624   -0.017008
  40 C     6.0000    0    12.011    4.952972   -3.065136    0.017008
  41 C     6.0000    0    12.011   10.474752    8.199522   -2.135391
  42 C     6.0000    0    12.011    7.691185   -2.794905   -0.177634
  43 C     6.0000    0    12.011    7.755436    5.198637   -0.039684
  44 C     6.0000    0    12.011    9.499653    5.157063    1.957756
  45 C     6.0000    0    12.011   11.652051    6.631049    1.848152
  46 C     6.0000    0    12.011   14.397823    9.737759   -0.217319
  47 C     6.0000    0    12.011    8.165507   -0.279679   -0.173855
  48 C     6.0000    0    12.011    5.716422    0.971319    0.028346
  49 C     6.0000    0    12.011    8.290229    6.768999   -2.107045
  50 C     6.0000    0    12.011    5.415955    3.620715    0.024566
  51 N     7.0000    0    14.007   12.118814    8.118263   -0.179524
  52 H     1.0000    0     1.008   -8.396053   11.761655    4.062911
  53 H     1.0000    0     1.008    4.297237    9.006435    0.153068
  54 H     1.0000    0     1.008   -5.344146    8.269442   -3.974094
  55 H     1.0000    0     1.008   -8.016218   12.133932   -3.758665
  56 H     1.0000    0     1.008   -8.537783   16.024878    0.185193
  57 H     1.0000    0     1.008  -10.994427   14.431838   -1.506112
  58 H     1.0000    0     1.008  -10.979309   14.407272    1.868939
  59 H     1.0000    0     1.008   -0.627389    9.981533    0.130391
  60 H     1.0000    0     1.008   -5.731539    7.889607    4.170626
  61 H     1.0000    0     1.008    0.343930    2.025786    0.009449
  62 H     1.0000    0     1.008   -0.345820   -2.040904   -0.039684
  63 H     1.0000    0     1.008  -11.081354   -9.376821    3.581031
  64 H     1.0000    0     1.008   -9.059347    4.293458    0.262672
  65 H     1.0000    0     1.008   -9.070685   -4.081808   -3.768114
  66 H     1.0000    0     1.008  -12.927616   -6.768999   -3.577252
  67 H     1.0000    0     1.008  -15.926612   -8.571798    1.031790
  68 H     1.0000    0     1.008  -15.034661  -10.085468   -1.853821
  69 H     1.0000    0     1.008  -14.089798  -11.408277    1.103600
  70 H     1.0000    0     1.008   -9.990982   -0.650066    0.188973
  71 H     1.0000    0     1.008   -7.143165   -6.804904    3.679297
  72 H     1.0000    0     1.008    6.778448  -12.978639   -3.482765
  73 H     1.0000    0     1.008   -4.301017   -9.021553   -0.094486
  74 H     1.0000    0     1.008    7.018443   -7.037340    3.639613
  75 H     1.0000    0     1.008    9.622485  -10.950963    3.535678
  76 H     1.0000    0     1.008   11.725751  -13.849803   -0.829590
  77 H     1.0000    0     1.008   10.191293  -14.960962    1.969095
  78 H     1.0000    0     1.008    8.993207  -15.822677   -1.065806
  79 H     1.0000    0     1.008    0.621720   -9.996651   -0.015118
  80 H     1.0000    0     1.008    4.055352   -9.150054   -3.666069
  81 H     1.0000    0     1.008   10.975529    9.422175   -3.696304
  82 H     1.0000    0     1.008    9.048009   -4.310465   -0.349599
  83 H     1.0000    0     1.008    9.184069    3.994881    3.613156
  84 H     1.0000    0     1.008   13.041000    6.672623    3.348595
  85 H     1.0000    0     1.008   13.951848   11.544337    0.672743
  86 H     1.0000    0     1.008   15.900156    8.791006    0.822031
  87 H     1.0000    0     1.008   14.968521   10.034446   -2.173185
  88 H     1.0000    0     1.008    9.983423    0.634948   -0.338261
  89 H     1.0000    0     1.008    7.029781    6.863485   -3.717091

--------------------------------
INTERNAL COORDINATES (ANGSTROEM)
--------------------------------
 C      0   0   0     0.000000000000     0.00000000     0.00000000
 C      1   0   0     5.913191101258     0.00000000     0.00000000
 C      1   2   0     2.413408585383    37.96050350     0.00000000
 C      3   1   2     1.403645966759    87.91320429   253.23051753
 C      4   3   1     1.380313732454   120.15970249     0.18781713
 C      5   4   3     2.447739569480   152.51598534     1.48723884
 C      2   1   3     1.368114030335    12.97938051    27.20026245
 C      7   2   3     1.434084376876   108.05010202     0.84668783
 C      2   1   3     1.434123425651   114.19148838   322.21486685
 C      1   2   3     1.381200564726    39.47044081    49.20313523
 N      1   2   3     1.351815445984   100.71857197   282.99734796
 N      9   2   1     1.376127174356   106.58526707    11.61066956
 N     12   9   2     2.925062050624   168.53581413   171.12065651
 N     13  12   9     2.954513327098    91.55032014    11.12112580
 N     14  13  12     2.925371258490    88.43092389   359.84326247
 C      8   7   2     1.404790019896   127.24786865   181.11170171
 C     13  12   9     1.366535034311    81.72106996   188.00453233
 C     14  13  12     5.758810554272    80.56209567   166.76250791
 C     17  13  12     1.459010623676   111.08861209   183.82872609
 C     18  14  13     2.412235892279    27.27532823    36.33507194
 C     20  18  14     1.402692767501    87.95206320   148.94598259
 C     21  20  18     1.382106725257   120.14573887   359.70382047
 C     18  14  13     2.446510985056   144.15733107    82.80075377
 C     19  17  13     1.353610726908   106.29293361   359.75308708
 C     13  12   9     1.366813447402   172.21332906    33.46711076
 C     18  14  13     1.380960173213    15.08449437   309.23336894
 N     22  21  20     1.352773077792   120.73759875     0.27865223
 C     25  13  17     1.410897586645   125.60330303   182.37774668
 C     14  13  12     1.376642291955    80.24689249   177.85461986
 C     14  13  12     5.764089607215   164.51507311   312.20821879
 C     29  14  13     1.435600919476   106.58649366   178.76395472
 C     30  14  13     2.413316804732    27.10625047    82.12560436
 C     32  30  14     1.403734305344    87.90059683   149.76154742
 C     33  32  30     1.380694028378   120.14881443   359.74174632
 C     34  33  32     2.448777858443   152.49203239     2.45173620
 C     31  29  14     1.368160809262   108.16950133     0.70383075
 C     14  13  12     1.376239804685   169.26375223   353.09862627
 C     30  14  13     1.380907310430    14.68948582   353.70041132
 N     34  33  32     1.352658863128   120.85575621     0.19603406
 C     37  14  29     1.404717053360   126.01551127   180.90772073
 C     15  14  13     1.366491126938    81.61824056   183.09049352
 C      2   1   3     4.249062720177   158.53463296   131.04194593
 C     41  15  14     1.459677704153   111.05201287   175.08990246
 C     42   2   1     2.412953791518    41.78584867   166.55142955
 C     44  42   2     1.403446472082    87.95153797   233.97558675
 C     45  44  42     1.381696421071   120.11137308     0.19721020
 C     42   2   1     2.450019795838   135.97209175    76.86627865
 C     43  41  15     1.354461516618   106.26758155     0.30894352
 C     15  14  13     1.367461151185   171.87382904   332.35056460
 C     42   2   1     1.381886391857    32.59078432   215.40670874
 C      9   2   1     1.404988612053   126.98745415   192.61500709
 N     42   2   1     1.352765315936   113.57249190   104.60286785
 H      1   2   3     1.082924743461   128.76272926   145.68349871
 H      2   1   3     1.079907866440   119.41208254   154.12033371
 H      4   3   1     1.083094178731   121.05605396   179.53832908
 H      5   4   3     1.081951015527   122.84066305   179.41783894
 H      6   5   4     1.093001829825   104.46218571   100.16666571
 H      6   5   4     1.089424159820    84.67414557   209.62770412
 H      6   5   4     1.089610939740   133.93803129   322.55201874
 H      7   2  54     1.079807853278   126.66122480     1.30600390
 H     10   1   2     1.083934961148   118.81565162   113.44790356
 H     12   9   2     1.016297692608   125.29023241   180.00180175
 H     14  13  12     1.014936943854    44.97226959   359.42596618
 H     18  14  13     1.082871645210   128.03556573   234.20482432
 H     19  17  13     1.080893611786   126.41830519   178.11313280
 H     21  20  18     1.083569563987   121.05669627   180.67006309
 H     22  21  20     1.082483256222   122.73097286   180.59748951
 H     23  18  14     1.092105306278   103.92715769   234.93429879
 H     23  18  14     1.088871893291   134.19244188    12.25587044
 H     23  18  14     1.089833473518    84.85857450   125.45241208
 H     24  19  17     1.080075460327   127.28078426   178.44613241
 H     26  18  14     1.083408048706   118.76995697   244.94906660
 H     30  14  13     1.082703098730   127.99711412   279.66882698
 H     31  29  14     1.079759695488   125.22293469   180.92530585
 H     33  32  30     1.083188810873   121.01964473   180.74284758
 H     34  33  32     1.082494341787   122.70821597   180.59516895
 H     35  34  33     1.092652735319   105.73575241    97.19771933
 H     35  34  33     1.089462711615    84.05943581   206.43036958
 H     35  34  33     1.089268102902   133.08365142   318.50306270
 H     36  31  29     1.079439669458   126.61599965   178.98859863
 H     38  30  73     1.083742127999   118.77264435   359.90091293
 H     42   2   1     1.082178358682   119.31790784   321.23439830
 H     43  41  15     1.080281907652   126.36969097   182.06329380
 H     45  44  42     1.083277434455   121.10105945   179.58025624
 H     46  45  44     1.082194529648   122.72144639   179.46906377
 H     47  42   2     1.091546151109   106.65128841   315.16475048
 H     47  42   2     1.088818625851   132.46019523    94.52397119
 H     47  42   2     1.089531091801    83.63838232   206.04504406
 H     48  43  41     1.080402239909   127.23657387   181.62955349
 H     50  42   2     1.083186502870   118.77001737    94.71359229

---------------------------
INTERNAL COORDINATES (A.U.)
---------------------------
 C      0   0   0     0.000000000000     0.00000000     0.00000000
 C      1   0   0    11.174311758918     0.00000000     0.00000000
 C      1   2   0     4.560681275628    37.96050350     0.00000000
 C      3   1   2     2.652506466158    87.91320429   253.23051753
 C      4   3   1     2.608414933228   120.15970249     0.18781713
 C      5   4   3     4.625557433480   152.51598534     1.48723884
 C      2   1   3     2.585360837309    12.97938051    27.20026245
 C      7   2   3     2.710026725231   108.05010202     0.84668783
 C      2   1   3     2.710100516721   114.19148838   322.21486685
 C      1   2   3     2.610090803350    39.47044081    49.20313523
 N      1   2   3     2.554560976514   100.71857197   282.99734796
 N      9   2   1     2.600503484979   106.58526707    11.61066956
 N     12   9   2     5.527566200405   168.53581413   171.12065651
 N     13  12   9     5.583221047236    91.55032014    11.12112580
 N     14  13  12     5.528150518591    88.43092389   359.84326247
 C      8   7   2     2.654668413270   127.24786865   181.11170171
 C     13  12   9     2.582376967257    81.72106996   188.00453233
 C     14  13  12    10.882574804710    80.56209567   166.76250791
 C     17  13  12     2.757130505230   111.08861209   183.82872609
 C     18  14  13     4.558465206823    27.27532823    36.33507194
 C     20  18  14     2.650705180609    87.95206320   148.94598259
 C     21  20  18     2.611803198586   120.14573887   359.70382047
 C     18  14  13     4.623235745386   144.15733107    82.80075377
 C     19  17  13     2.557953565794   106.29293361   359.75308708
 C     13  12   9     2.582903091751   172.21332906    33.46711076
 C     18  14  13     2.609636529225    15.08449437   309.23336894
 N     22  21  20     2.556370638369   120.73759875     0.27865223
 C     25  13  17     2.666210041769   125.60330303   182.37774668
 C     14  13  12     2.601476916169    80.24689249   177.85461986
 C     14  13  12    10.892550769017   164.51507311   312.20821879
 C     29  14  13     2.712892575415   106.58649366   178.76395472
 C     30  14  13     4.560507835333    27.10625047    82.12560436
 C     32  30  14     2.652673401891    87.90059683   149.76154742
 C     33  32  30     2.609133588376   120.14881443   359.74174632
 C     34  33  32     4.627519515267   152.49203239     2.45173620
 C     31  29  14     2.585449236669   108.16950133     0.70383075
 C     14  13  12     2.600716325456   169.26375223   353.09862627
 C     30  14  13     2.609536633043    14.68948582   353.70041132
 N     34  33  32     2.556154803934   120.85575621     0.19603406
 C     37  14  29     2.654530526499   126.01551127   180.90772073
 C     15  14  13     2.582293994346    81.61824056   183.09049352
 C      2   1   3     8.029564866989   158.53463296   131.04194593
 C     41  15  14     2.758391104639   111.05201287   175.08990246
 C     42   2   1     4.559821839776    41.78584867   166.55142955
 C     44  42   2     2.652129475853    87.95153797   233.97558675
 C     45  44  42     2.611027836043   120.11137308     0.19721020
 C     42   2   1     4.629866436820   135.97209175    76.86627865
 C     43  41  15     2.559561325344   106.26758155     0.30894352
 C     15  14  13     2.584127074516   171.87382904   332.35056460
 C     42   2   1     2.611386828803    32.59078432   215.40670874
 C      9   2   1     2.655043698059   126.98745415   192.61500709
 N     42   2   1     2.556355970587   113.57249190   104.60286785
 H      1   2   3     2.046431188788   128.76272926   145.68349871
 H      2   1   3     2.040730117440   119.41208254   154.12033371
 H      4   3   1     2.046751375045   121.05605396   179.53832908
 H      5   4   3     2.044591109664   122.84066305   179.41783894
 H      6   5   4     2.065474122243   104.46218571   100.16666571
 H      6   5   4     2.058713305737    84.67414557   209.62770412
 H      6   5   4     2.059066268632   133.93803129   322.55201874
 H      7   2  54     2.040541119952   126.66122480     1.30600390
 H     10   1   2     2.048340223553   118.81565162   113.44790356
 H     12   9   2     1.920524309565   125.29023241   180.00180175
 H     14  13  12     1.917952867083    44.97226959   359.42596618
 H     18  14  13     2.046330847636   128.03556573   234.20482432
 H     19  17  13     2.042592906181   126.41830519   178.11313280
 H     21  20  18     2.047649722989   121.05669627   180.67006309
 H     22  21  20     2.045596898814   122.73097286   180.59748951
 H     23  18  14     2.063779938267   103.92715769   234.93429879
 H     23  18  14     2.057669673245   134.19244188    12.25587044
 H     23  18  14     2.059486796529    84.85857450   125.45241208
 H     24  19  17     2.041046823986   127.28078426   178.44613241
 H     26  18  14     2.047344503340   118.76995697   244.94906660
 H     30  14  13     2.046012340948   127.99711412   279.66882698
 H     31  29  14     2.040450114918   125.22293469   180.92530585
 H     33  32  30     2.046930203877   121.01964473   180.74284758
 H     34  33  32     2.045617847496   122.70821597   180.59516895
 H     35  34  33     2.064814429233   105.73575241    97.19771933
 H     35  34  33     2.058786158072    84.05943581   206.43036958
 H     35  34  33     2.058418400901   133.08365142   318.50306270
 H     36  31  29     2.039845353366   126.61599965   178.98859863
 H     38  30  73     2.047975821711   118.77264435   359.90091293
 H     42   2   1     2.045020725966   119.31790784   321.23439830
 H     43  41  15     2.041436952892   126.36969097   182.06329380
 H     45  44  42     2.047097678177   121.10105945   179.58025624
 H     46  45  44     2.045051284662   122.72144639   179.46906377
 H     47  42   2     2.062723288131   106.65128841   315.16475048
 H     47  42   2     2.057569012371   132.46019523    94.52397119
 H     47  42   2     2.058915377895    83.63838232   206.04504406
 H     48  43  41     2.041664347903   127.23657387   181.62955349
 H     50  42   2     2.046925842384   118.77001737    94.71359229

---------------------
BASIS SET INFORMATION
---------------------
There are 3 groups of distinct atoms

 Group   1 Type C   : 17s4p1d contracted to 3s2p1d pattern {881/31/1}
 Group   2 Type N   : 17s4p1d contracted to 3s2p1d pattern {881/31/1}
 Group   3 Type H   : 4s1p contracted to 2s1p pattern {31/1}

Atom   0C    basis set group =>   1
Atom   1N    basis set group =>   2
Atom   2C    basis set group =>   1
Atom   3N    basis set group =>   2
Atom   4C    basis set group =>   1
Atom   5N    basis set group =>   2
Atom   6C    basis set group =>   1
Atom   7N    basis set group =>   2
Atom   8C    basis set group =>   1
Atom   9N    basis set group =>   2
Atom  10C    basis set group =>   1
Atom  11N    basis set group =>   2
Atom  12C    basis set group =>   1
Atom  13N    basis set group =>   2
Atom  14C    basis set group =>   1
Atom  15N    basis set group =>   2
Atom  16C    basis set group =>   1
Atom  17C    basis set group =>   1
Atom  18C    basis set group =>   1
Atom  19C    basis set group =>   1
Atom  20C    basis set group =>   1
Atom  21C    basis set group =>   1
Atom  22C    basis set group =>   1
Atom  23C    basis set group =>   1
Atom  24C    basis set group =>   1
Atom  25C    basis set group =>   1
Atom  26C    basis set group =>   1
Atom  27C    basis set group =>   1
Atom  28C    basis set group =>   1
Atom  29C    basis set group =>   1
Atom  30C    basis set group =>   1
Atom  31C    basis set group =>   1
Atom  32C    basis set group =>   1
Atom  33C    basis set group =>   1
Atom  34C    basis set group =>   1
Atom  35C    basis set group =>   1
Atom  36C    basis set group =>   1
Atom  37C    basis set group =>   1
Atom  38C    basis set group =>   1
Atom  39C    basis set group =>   1
Atom  40C    basis set group =>   1
Atom  41C    basis set group =>   1
Atom  42C    basis set group =>   1
Atom  43C    basis set group =>   1
Atom  44C    basis set group =>   1
Atom  45C    basis set group =>   1
Atom  46C    basis set group =>   1
Atom  47C    basis set group =>   1
Atom  48C    basis set group =>   1
Atom  49C    basis set group =>   1
Atom  50C    basis set group =>   1
Atom  51C    basis set group =>   1
Atom  52H    basis set group =>   3
Atom  53H    basis set group =>   3
Atom  54H    basis set group =>   3
Atom  55H    basis set group =>   3
Atom  56H    basis set group =>   3
Atom  57H    basis set group =>   3
Atom  58H    basis set group =>   3
Atom  59H    basis set group =>   3
Atom  60H    basis set group =>   3
Atom  61H    basis set group =>   3
Atom  62H    basis set group =>   3
Atom  63H    basis set group =>   3
Atom  64H    basis set group =>   3
Atom  65H    basis set group =>   3
Atom  66H    basis set group =>   3
Atom  67H    basis set group =>   3
Atom  68H    basis set group =>   3
Atom  69H    basis set group =>   3
Atom  70H    basis set group =>   3
Atom  71H    basis set group =>   3
Atom  72H    basis set group =>   3
Atom  73H    basis set group =>   3
Atom  74H    basis set group =>   3
Atom  75H    basis set group =>   3
Atom  76H    basis set group =>   3
Atom  77H    basis set group =>   3
Atom  78H    basis set group =>   3
Atom  79H    basis set group =>   3
Atom  80H    basis set group =>   3
Atom  81H    basis set group =>   3
Atom  82H    basis set group =>   3
Atom  83H    basis set group =>   3
Atom  84H    basis set group =>   3
Atom  85H    basis set group =>   3
Atom  86H    basis set group =>   3
Atom  87H    basis set group =>   3
Atom  88H    basis set group =>   3
Atom  89H    basis set group =>   3


           ************************************************************
           *        Program running with 16 parallel MPI-processes    *
           *              working on a common directory               *
           ************************************************************
------------------------------------------------------------------------------
                           ORCA GTO INTEGRAL CALCULATION
------------------------------------------------------------------------------
------------------------------------------------------------------------------
                   ___                                                        
                  /   \      - P O W E R E D   B Y -                         
                 /     \                                                     
                 |  |  |   _    _      __       _____    __    __             
                 |  |  |  | |  | |    /  \     |  _  \  |  |  /  |          
                  \  \/   | |  | |   /    \    | | | |  |  | /  /          
                 / \  \   | |__| |  /  /\  \   | |_| |  |  |/  /          
                |  |  |   |  __  | /  /__\  \  |    /   |      \           
                |  |  |   | |  | | |   __   |  |    \   |  |\   \          
                \     /   | |  | | |  |  |  |  | |\  \  |  | \   \       
                 \___/    |_|  |_| |__|  |__|  |_| \__\ |__|  \__/        
                                                                              
                      - O R C A' S   B I G   F R I E N D -                    
                                      &                                       
                       - I N T E G R A L  F E E D E R -                       
                                                                              
 v1 FN, 2020, v2 2021                                                         
------------------------------------------------------------------------------


Reading SHARK input file /scratch/allen/tmpyp4_amber_gaff2/conf1/conf1/Conf269.orca.SHARKINP.tmp ... ok
----------------------
SHARK INTEGRAL PACKAGE
----------------------

Number of atoms                             ...     90
Number of basis functions                   ...   1230
Number of shells                            ...    738
Maximum angular momentum                    ...      2
Integral batch strategy                     ... SHARK/LIBINT Hybrid
RI-J (if used) integral strategy            ... SPLIT-RIJ (Revised 2003 algorithm where possible)
Printlevel                                  ...      1
Contraction scheme used                     ... PARTIAL GENERAL contraction
Coulomb Range Separation                    ... NOT USED
Exchange Range Separation                   ... NOT USED
Finite Nucleus Model                        ... NOT USED
Auxiliary Coulomb fitting basis             ... NOT available
Auxiliary J/K fitting basis                 ... NOT available
Auxiliary Correlation fitting basis         ... NOT available
Auxiliary 'external' fitting basis          ... NOT available
Integral threshold                          ...     2.500000e-11
Primitive cut-off                           ...     2.500000e-12
Primitive pair pre-selection threshold      ...     2.500000e-12

Calculating pre-screening integrals         ... done (  0.1 sec) Dimension = 738
Calculating pre-screening integrals (ORCA)  ... done (  0.3 sec) Dimension = 426
Organizing shell pair data                  ... done (  0.7 sec)
Shell pair information
Total number of shell pairs                 ...    272691
Shell pairs after pre-screening             ...     71617
Total number of primitive shell pairs       ...    422091
Primitive shell pairs kept                  ...     92360
          la=0 lb=0:  29422 shell pairs
          la=1 lb=0:  25969 shell pairs
          la=1 lb=1:   4685 shell pairs
          la=2 lb=0:   7896 shell pairs
          la=2 lb=1:   3115 shell pairs
          la=2 lb=2:    530 shell pairs

Calculating one electron integrals          ... done (  0.2 sec)
Calculating Nuclear repulsion               ... done (  0.0 sec) ENN=   6221.858388897999 Eh

SHARK setup successfully completed in   2.5 seconds

Maximum memory used throughout the entire GTOINT-calculation: 98.9 MB


           ************************************************************
           *        Program running with 16 parallel MPI-processes    *
           *              working on a common directory               *
           ************************************************************
-------------------------------------------------------------------------------
                                 ORCA SCF
-------------------------------------------------------------------------------

------------
SCF SETTINGS
------------
Hamiltonian:
 Ab initio Hamiltonian  Method          .... Hartree-Fock(GTOs)


General Settings:
 Integral files         IntName         .... /scratch/allen/tmpyp4_amber_gaff2/conf1/conf1/Conf269.orca
 Hartree-Fock type      HFTyp           .... RHF
 Total Charge           Charge          ....    0
 Multiplicity           Mult            ....    1
 Number of Electrons    NEL             ....  358
 Basis Dimension        Dim             ....  918
 Nuclear Repulsion      ENuc            ....   6221.8583888980 Eh

Convergence Acceleration:
 DIIS                   CNVDIIS         .... on
   Start iteration      DIISMaxIt       ....    12
   Startup error        DIISStart       ....  0.200000
   # of expansion vecs  DIISMaxEq       ....     5
   Bias factor          DIISBfac        ....   1.050
   Max. coefficient     DIISMaxC        ....  10.000
 Trust-Rad. Augm. Hess. CNVTRAH         .... auto
   Auto Start mean grad. ratio tolernc. ....  1.125000
   Auto Start start iteration           ....    20
   Auto Start num. interpolation iter.  ....    10
   Max. Number of Micro iterations      ....    16
   Max. Number of Macro iterations      .... Maxiter - #DIIS iter
   Number of Davidson start vectors     ....     2
   Converg. threshold I  (grad. norm)   ....   1.000e-05
   Converg. threshold II (energy diff.) ....   1.000e-08
   Grad. Scal. Fac. for Micro threshold ....   0.100
   Minimum threshold for Micro iter.    ....   0.010
   NR start threshold (gradient norm)   ....   0.001
   Initial trust radius                 ....   0.400
   Minimum AH scaling param. (alpha)    ....   1.000
   Maximum AH scaling param. (alpha)    .... 1000.000
   Orbital update algorithm             .... Taylor
   White noise on init. David. guess    .... on
   Maximum white noise                  ....   0.010
   Quad. conv. algorithm                .... NR
 SOSCF                  CNVSOSCF        .... on
   Start iteration      SOSCFMaxIt      ....   150
   Startup grad/error   SOSCFStart      ....  0.003300
 Level Shifting         CNVShift        .... on
   Level shift para.    LevelShift      ....    0.2500
   Turn off err/grad.   ShiftErr        ....    0.0010
 Zerner damping         CNVZerner       .... off
 Static damping         CNVDamp         .... on
   Fraction old density DampFac         ....    0.7000
   Max. Damping (<1)    DampMax         ....    0.9800
   Min. Damping (>=0)   DampMin         ....    0.0000
   Turn off err/grad.   DampErr         ....    0.1000
 Fernandez-Rico         CNVRico         .... off

SCF Procedure:
 Maximum # iterations   MaxIter         ....   125
 SCF integral mode      SCFMode         .... Direct
   Integral package                     .... SHARK and LIBINT hybrid scheme
 Reset frequency        DirectResetFreq ....    20
 Integral Threshold     Thresh          ....  2.500e-11 Eh
 Primitive CutOff       TCut            ....  2.500e-12 Eh

Convergence Tolerance:
 Convergence Check Mode ConvCheckMode   .... Total+1el-Energy
 Convergence forced     ConvForced      .... 1
 Energy Change          TolE            ....  1.000e-08 Eh
 1-El. energy change                    ....  1.000e-05 Eh
 Orbital Gradient       TolG            ....  1.000e-05
 Orbital Rotation angle TolX            ....  1.000e-05
 DIIS Error             TolErr          ....  5.000e-07


Diagonalization of the overlap matrix:
Smallest eigenvalue                        ... 2.263e-04
Time for diagonalization                   ...    0.429 sec
Threshold for overlap eigenvalues          ... 1.000e-08
Number of eigenvalues below threshold      ... 0
Time for construction of square roots      ...    0.273 sec
Total time needed                          ...    0.708 sec

Time for model grid setup =    1.294 sec

------------------------------
INITIAL GUESS: MODEL POTENTIAL
------------------------------
Loading Hartree-Fock densities                     ... done
Calculating cut-offs                               ... done
Initializing the effective Hamiltonian             ... done
Setting up the integral package (SHARK)            ... done
Starting the Coulomb interaction                   ... done (   1.4 sec)
Reading the grid                                   ... done
Mapping shells                                     ... done
Starting the XC term evaluation                    ... done (   0.2 sec)
Transforming the Hamiltonian                       ... done (   0.3 sec)
Diagonalizing the Hamiltonian                      ... done (   0.4 sec)
Back transforming the eigenvectors                 ... done (   0.1 sec)
Now organizing SCF variables                       ... done
                      ------------------
                      INITIAL GUESS DONE (   3.8 sec)
                      ------------------
--------------
SCF ITERATIONS
--------------
ITER       Energy         Delta-E        Max-DP      RMS-DP      [F,P]     Damp
               ***  Starting incremental Fock matrix formation  ***
  0  -2121.6408607516   0.000000000000 0.06934388  0.00121202  0.2351393 0.7000
  1  -2122.3098196974  -0.668958945862 0.05272042  0.00098196  0.1454671 0.7000
                               ***Turning on DIIS***
  2  -2122.7259900910  -0.416170393566 0.11744938  0.00221904  0.0807650 0.0000
  3  -2117.7752311824   4.950758908562 0.03417050  0.00068524  0.0442511 0.0000
  4  -2123.4150999256  -5.639868743190 0.00936501  0.00023058  0.0074142 0.0000
  5  -2123.5810197526  -0.165919826992 0.00558470  0.00013896  0.0051680 0.0000
  6  -2123.5594332188   0.021586533807 0.00474184  0.00009552  0.0024946 0.0000
  7  -2123.6636727650  -0.104239546217 0.00426472  0.00008096  0.0019700 0.0000
  8  -2123.6917674464  -0.028094681424 0.00416506  0.00008285  0.0018568 0.0000
  9  -2123.6503514320   0.041416014457 0.00302155  0.00006132  0.0015057 0.0000
 10  -2123.6736706278  -0.023319195810 0.00305950  0.00006017  0.0011517 0.0000
 11  -2123.6698640683   0.003806559516 0.00918690  0.00014198  0.0009901 0.0000
                      *** Initiating the SOSCF procedure ***
                           *** Shutting down DIIS ***
                      *** Re-Reading the Fockian *** 
                      *** Removing any level shift *** 
ITER      Energy       Delta-E        Grad      Rot      Max-DP    RMS-DP
 12  -2123.50977379   0.1600902783  0.000390  0.000390  0.000448  0.000010
               *** Restarting incremental Fock matrix formation ***
 13  -2123.60871620  -0.0989424064  0.001451  0.014439  0.002482  0.000059
 14  -2123.60901298  -0.0002967798  0.002019  0.079281  0.015867  0.000263
 15  -2123.60979624  -0.0007832610  0.000894  0.036596  0.008936  0.000120
 16  -2123.60997256  -0.0001763244  0.000777  0.011069  0.003777  0.000038
 17  -2123.61003359  -0.0000610252  0.000393  0.003618  0.001396  0.000027
 18  -2123.61006324  -0.0000296504  0.000239  0.002263  0.001064  0.000016
 19  -2123.61007311  -0.0000098748  0.000101  0.001748  0.000671  0.000011
 20  -2123.61007718  -0.0000040688  0.000097  0.000771  0.000239  0.000004
 21  -2123.61007844  -0.0000012599  0.000049  0.000531  0.000190  0.000004
 22  -2123.61007891  -0.0000004652  0.000037  0.000513  0.000097  0.000002
 23  -2123.61007913  -0.0000002218  0.000018  0.000370  0.000093  0.000002
 24  -2123.61007926  -0.0000001285  0.000014  0.000387  0.000093  0.000002
 25  -2123.61007932  -0.0000000629  0.000011  0.000220  0.000057  0.000001
 26  -2123.61007935  -0.0000000290  0.000007  0.000152  0.000031  0.000001
 27  -2123.61007936  -0.0000000138  0.000004  0.000079  0.000021  0.000000
 28  -2123.61007937  -0.0000000046  0.000003  0.000069  0.000020  0.000000
                 **** Energy Check signals convergence ****
              ***Rediagonalizing the Fockian in SOSCF/NRSCF***

               *****************************************************
               *                     SUCCESS                       *
               *           SCF CONVERGED AFTER  29 CYCLES          *
               *****************************************************


----------------
TOTAL SCF ENERGY
----------------

Total Energy       :        -2123.61007937 Eh          -57786.36806 eV

Components:
Nuclear Repulsion  :         6221.85838890 Eh          169305.37408 eV
Electronic Energy  :        -8345.46846827 Eh         -227091.74214 eV
One Electron Energy:       -15285.20531356 Eh         -415931.58214 eV
Two Electron Energy:         6939.73684529 Eh          188839.83999 eV

Virial components:
Potential Energy   :        -4245.59416317 Eh         -115528.49053 eV
Kinetic Energy     :         2121.98408379 Eh           57742.12247 eV
Virial Ratio       :            2.00076626


---------------
SCF CONVERGENCE
---------------

  Last Energy change         ...   -6.8922e-09  Tolerance :   1.0000e-08
  Last MAX-Density change    ...    3.3289e-05  Tolerance :   1.0000e-07
  Last RMS-Density change    ...    4.4614e-07  Tolerance :   5.0000e-09
  Last Orbital Gradient      ...    2.8030e-06  Tolerance :   1.0000e-05
  Last Orbital Rotation      ...    1.2112e-04  Tolerance :   1.0000e-05

             **** THE GBW FILE WAS UPDATED (/scratch/allen/tmpyp4_amber_gaff2/conf1/conf1/Conf269.orca.gbw) ****
             **** DENSITY /scratch/allen/tmpyp4_amber_gaff2/conf1/conf1/Conf269.orca.scfp WAS UPDATED ****
             **** ENERGY FILE WAS UPDATED (/scratch/allen/tmpyp4_amber_gaff2/conf1/conf1/Conf269.orca.en.tmp) ****
             **** THE GBW FILE WAS UPDATED (/scratch/allen/tmpyp4_amber_gaff2/conf1/conf1/Conf269.orca.gbw) ****
             **** DENSITY /scratch/allen/tmpyp4_amber_gaff2/conf1/conf1/Conf269.orca.scfp WAS UPDATED ****
----------------
ORBITAL ENERGIES
----------------

  NO   OCC          E(Eh)            E(eV) 
   0   2.0000     -15.721120      -427.7934 
   1   2.0000     -15.628207      -425.2651 
   2   2.0000     -15.618251      -424.9942 
   3   2.0000     -15.575753      -423.8378 
   4   2.0000     -15.520845      -422.3437 
   5   2.0000     -15.503934      -421.8835 
   6   2.0000     -15.451415      -420.4544 
   7   2.0000     -15.426569      -419.7783 
   8   2.0000     -11.358290      -309.0748 
   9   2.0000     -11.357600      -309.0560 
  10   2.0000     -11.350907      -308.8739 
  11   2.0000     -11.314979      -307.8962 
  12   2.0000     -11.296220      -307.3858 
  13   2.0000     -11.290483      -307.2297 
  14   2.0000     -11.289412      -307.2005 
  15   2.0000     -11.287323      -307.1437 
  16   2.0000     -11.287226      -307.1410 
  17   2.0000     -11.281288      -306.9795 
  18   2.0000     -11.280133      -306.9480 
  19   2.0000     -11.270918      -306.6973 
  20   2.0000     -11.262649      -306.4723 
  21   2.0000     -11.242416      -305.9217 
  22   2.0000     -11.238733      -305.8215 
  23   2.0000     -11.231971      -305.6375 
  24   2.0000     -11.226575      -305.4906 
  25   2.0000     -11.225681      -305.4663 
  26   2.0000     -11.222568      -305.3816 
  27   2.0000     -11.218724      -305.2770 
  28   2.0000     -11.218399      -305.2681 
  29   2.0000     -11.211539      -305.0815 
  30   2.0000     -11.209648      -305.0300 
  31   2.0000     -11.195855      -304.6547 
  32   2.0000     -11.194756      -304.6248 
  33   2.0000     -11.193377      -304.5873 
  34   2.0000     -11.187622      -304.4307 
  35   2.0000     -11.186864      -304.4101 
  36   2.0000     -11.182371      -304.2878 
  37   2.0000     -11.179495      -304.2095 
  38   2.0000     -11.179457      -304.2085 
  39   2.0000     -11.178266      -304.1761 
  40   2.0000     -11.170587      -303.9671 
  41   2.0000     -11.165472      -303.8279 
  42   2.0000     -11.164449      -303.8001 
  43   2.0000     -11.162141      -303.7373 
  44   2.0000     -11.160513      -303.6930 
  45   2.0000     -11.144242      -303.2502 
  46   2.0000     -11.143641      -303.2339 
  47   2.0000     -11.140331      -303.1438 
  48   2.0000     -11.136873      -303.0497 
  49   2.0000     -11.130393      -302.8734 
  50   2.0000     -11.116330      -302.4907 
  51   2.0000     -11.110554      -302.3335 
  52   2.0000      -1.392583       -37.8941 
  53   2.0000      -1.316496       -35.8237 
  54   2.0000      -1.307305       -35.5736 
  55   2.0000      -1.271150       -34.5897 
  56   2.0000      -1.224686       -33.3254 
  57   2.0000      -1.199947       -32.6522 
  58   2.0000      -1.178646       -32.0726 
  59   2.0000      -1.165679       -31.7197 
  60   2.0000      -1.136560       -30.9274 
  61   2.0000      -1.110372       -30.2148 
  62   2.0000      -1.105841       -30.0915 
  63   2.0000      -1.097107       -29.8538 
  64   2.0000      -1.065445       -28.9922 
  65   2.0000      -1.058170       -28.7943 
  66   2.0000      -1.040966       -28.3261 
  67   2.0000      -1.032271       -28.0895 
  68   2.0000      -1.015332       -27.6286 
  69   2.0000      -1.003860       -27.3164 
  70   2.0000      -0.998414       -27.1682 
  71   2.0000      -0.995337       -27.0845 
  72   2.0000      -0.985663       -26.8213 
  73   2.0000      -0.975779       -26.5523 
  74   2.0000      -0.964503       -26.2455 
  75   2.0000      -0.961136       -26.1538 
  76   2.0000      -0.950687       -25.8695 
  77   2.0000      -0.940296       -25.5867 
  78   2.0000      -0.936172       -25.4745 
  79   2.0000      -0.919485       -25.0205 
  80   2.0000      -0.911996       -24.8167 
  81   2.0000      -0.891487       -24.2586 
  82   2.0000      -0.886925       -24.1345 
  83   2.0000      -0.868101       -23.6222 
  84   2.0000      -0.859804       -23.3965 
  85   2.0000      -0.846164       -23.0253 
  86   2.0000      -0.828925       -22.5562 
  87   2.0000      -0.825982       -22.4761 
  88   2.0000      -0.820006       -22.3135 
  89   2.0000      -0.794238       -21.6123 
  90   2.0000      -0.785628       -21.3780 
  91   2.0000      -0.772826       -21.0297 
  92   2.0000      -0.741138       -20.1674 
  93   2.0000      -0.733559       -19.9612 
  94   2.0000      -0.728987       -19.8368 
  95   2.0000      -0.724349       -19.7105 
  96   2.0000      -0.716029       -19.4841 
  97   2.0000      -0.711122       -19.3506 
  98   2.0000      -0.706475       -19.2242 
  99   2.0000      -0.705387       -19.1946 
 100   2.0000      -0.695812       -18.9340 
 101   2.0000      -0.687999       -18.7214 
 102   2.0000      -0.683913       -18.6102 
 103   2.0000      -0.675742       -18.3879 
 104   2.0000      -0.672245       -18.2927 
 105   2.0000      -0.672130       -18.2896 
 106   2.0000      -0.666582       -18.1386 
 107   2.0000      -0.661435       -17.9986 
 108   2.0000      -0.652008       -17.7421 
 109   2.0000      -0.648788       -17.6544 
 110   2.0000      -0.648386       -17.6435 
 111   2.0000      -0.641822       -17.4649 
 112   2.0000      -0.640440       -17.4273 
 113   2.0000      -0.635571       -17.2948 
 114   2.0000      -0.633641       -17.2423 
 115   2.0000      -0.629018       -17.1165 
 116   2.0000      -0.627048       -17.0629 
 117   2.0000      -0.614422       -16.7193 
 118   2.0000      -0.610690       -16.6177 
 119   2.0000      -0.608708       -16.5638 
 120   2.0000      -0.608197       -16.5499 
 121   2.0000      -0.600464       -16.3395 
 122   2.0000      -0.593247       -16.1431 
 123   2.0000      -0.589150       -16.0316 
 124   2.0000      -0.584098       -15.8941 
 125   2.0000      -0.578051       -15.7296 
 126   2.0000      -0.574543       -15.6341 
 127   2.0000      -0.571669       -15.5559 
 128   2.0000      -0.570492       -15.5239 
 129   2.0000      -0.569217       -15.4892 
 130   2.0000      -0.556232       -15.1358 
 131   2.0000      -0.542650       -14.7663 
 132   2.0000      -0.542026       -14.7493 
 133   2.0000      -0.538139       -14.6435 
 134   2.0000      -0.533488       -14.5169 
 135   2.0000      -0.529096       -14.3974 
 136   2.0000      -0.519554       -14.1378 
 137   2.0000      -0.515596       -14.0301 
 138   2.0000      -0.513774       -13.9805 
 139   2.0000      -0.511811       -13.9271 
 140   2.0000      -0.509665       -13.8687 
 141   2.0000      -0.503343       -13.6967 
 142   2.0000      -0.501013       -13.6332 
 143   2.0000      -0.497418       -13.5354 
 144   2.0000      -0.495300       -13.4778 
 145   2.0000      -0.492498       -13.4016 
 146   2.0000      -0.488219       -13.2851 
 147   2.0000      -0.472954       -12.8697 
 148   2.0000      -0.469810       -12.7842 
 149   2.0000      -0.465920       -12.6783 
 150   2.0000      -0.462784       -12.5930 
 151   2.0000      -0.459965       -12.5163 
 152   2.0000      -0.451930       -12.2976 
 153   2.0000      -0.440712       -11.9924 
 154   2.0000      -0.432561       -11.7706 
 155   2.0000      -0.430804       -11.7228 
 156   2.0000      -0.418639       -11.3918 
 157   2.0000      -0.416565       -11.3353 
 158   2.0000      -0.410880       -11.1806 
 159   2.0000      -0.410716       -11.1762 
 160   2.0000      -0.381347       -10.3770 
 161   2.0000      -0.369263       -10.0482 
 162   2.0000      -0.353159        -9.6100 
 163   2.0000      -0.351555        -9.5663 
 164   2.0000      -0.345404        -9.3989 
 165   2.0000      -0.341733        -9.2990 
 166   2.0000      -0.337805        -9.1921 
 167   2.0000      -0.316406        -8.6098 
 168   2.0000      -0.311650        -8.4804 
 169   2.0000      -0.305204        -8.3050 
 170   2.0000      -0.298043        -8.1102 
 171   2.0000      -0.282364        -7.6835 
 172   2.0000      -0.275208        -7.4888 
 173   2.0000      -0.266627        -7.2553 
 174   2.0000      -0.228662        -6.2222 
 175   2.0000      -0.182888        -4.9766 
 176   2.0000      -0.173108        -4.7105 
 177   2.0000      -0.062708        -1.7064 
 178   2.0000      -0.050707        -1.3798 
 179   0.0000       0.036239         0.9861 
 180   0.0000       0.053978         1.4688 
 181   0.0000       0.072830         1.9818 
 182   0.0000       0.098636         2.6840 
 183   0.0000       0.102373         2.7857 
 184   0.0000       0.122593         3.3359 
 185   0.0000       0.141642         3.8543 
 186   0.0000       0.149311         4.0630 
 187   0.0000       0.160284         4.3615 
 188   0.0000       0.164900         4.4872 
 189   0.0000       0.166761         4.5378 
 190   0.0000       0.167454         4.5567 
 191   0.0000       0.173343         4.7169 
 192   0.0000       0.180925         4.9232 
 193   0.0000       0.196234         5.3398 
 194   0.0000       0.199310         5.4235 
 195   0.0000       0.206115         5.6087 
 196   0.0000       0.212381         5.7792 
 197   0.0000       0.212552         5.7838 
 198   0.0000       0.216563         5.8930 
 199   0.0000       0.218195         5.9374 
 200   0.0000       0.229351         6.2410 
 201   0.0000       0.237173         6.4538 
 202   0.0000       0.237360         6.4589 
 203   0.0000       0.240367         6.5407 
 204   0.0000       0.241528         6.5723 
 205   0.0000       0.245601         6.6831 
 206   0.0000       0.246539         6.7087 
 207   0.0000       0.248734         6.7684 
 208   0.0000       0.251190         6.8352 
 209   0.0000       0.258382         7.0309 
 210   0.0000       0.263619         7.1734 
 211   0.0000       0.267218         7.2714 
 212   0.0000       0.268735         7.3127 
 213   0.0000       0.274125         7.4593 
 214   0.0000       0.279234         7.5983 
 215   0.0000       0.280385         7.6297 
 216   0.0000       0.283653         7.7186 
 217   0.0000       0.284910         7.7528 
 218   0.0000       0.287685         7.8283 
 219   0.0000       0.289753         7.8846 
 220   0.0000       0.290239         7.8978 
 221   0.0000       0.294596         8.0164 
 222   0.0000       0.299327         8.1451 
 223   0.0000       0.300041         8.1645 
 224   0.0000       0.300544         8.1782 
 225   0.0000       0.305421         8.3109 
 226   0.0000       0.306949         8.3525 
 227   0.0000       0.307614         8.3706 
 228   0.0000       0.318179         8.6581 
 229   0.0000       0.320902         8.7322 
 230   0.0000       0.327697         8.9171 
 231   0.0000       0.330717         8.9993 
 232   0.0000       0.333566         9.0768 
 233   0.0000       0.336964         9.1693 
 234   0.0000       0.340607         9.2684 
 235   0.0000       0.356324         9.6961 
 236   0.0000       0.358442         9.7537 
 237   0.0000       0.361823         9.8457 
 238   0.0000       0.373454        10.1622 
 239   0.0000       0.386207        10.5092 
 240   0.0000       0.393998        10.7212 
 241   0.0000       0.398719        10.8497 
 242   0.0000       0.408520        11.1164 
 243   0.0000       0.416797        11.3416 
 244   0.0000       0.423603        11.5268 
 245   0.0000       0.430977        11.7275 
 246   0.0000       0.436524        11.8784 
 247   0.0000       0.438657        11.9365 
 248   0.0000       0.443659        12.0726 
 249   0.0000       0.444811        12.1039 
 250   0.0000       0.452066        12.3014 
 251   0.0000       0.455969        12.4075 
 252   0.0000       0.457179        12.4405 
 253   0.0000       0.469226        12.7683 
 254   0.0000       0.471679        12.8350 
 255   0.0000       0.476797        12.9743 
 256   0.0000       0.480292        13.0694 
 257   0.0000       0.483375        13.1533 
 258   0.0000       0.483811        13.1652 
 259   0.0000       0.492949        13.4138 
 260   0.0000       0.501415        13.6442 
 261   0.0000       0.504709        13.7338 
 262   0.0000       0.506205        13.7745 
 263   0.0000       0.509792        13.8721 
 264   0.0000       0.512403        13.9432 
 265   0.0000       0.517374        14.0785 
 266   0.0000       0.521239        14.1836 
 267   0.0000       0.525587        14.3020 
 268   0.0000       0.531992        14.4762 
 269   0.0000       0.537571        14.6280 
 270   0.0000       0.543187        14.7809 
 271   0.0000       0.544779        14.8242 
 272   0.0000       0.546689        14.8762 
 273   0.0000       0.548667        14.9300 
 274   0.0000       0.553176        15.0527 
 275   0.0000       0.560745        15.2587 
 276   0.0000       0.568518        15.4702 
 277   0.0000       0.571872        15.5614 
 278   0.0000       0.578401        15.7391 
 279   0.0000       0.586153        15.9500 
 280   0.0000       0.588026        16.0010 
 281   0.0000       0.594051        16.1650 
 282   0.0000       0.596978        16.2446 
 283   0.0000       0.598481        16.2855 
 284   0.0000       0.599251        16.3065 
 285   0.0000       0.601914        16.3789 
 286   0.0000       0.605056        16.4644 
 287   0.0000       0.608201        16.5500 
 288   0.0000       0.613046        16.6818 
 289   0.0000       0.620202        16.8765 
 290   0.0000       0.626487        17.0476 
 291   0.0000       0.629821        17.1383 
 292   0.0000       0.633017        17.2253 
 293   0.0000       0.638458        17.3733 
 294   0.0000       0.642261        17.4768 
 295   0.0000       0.646693        17.5974 
 296   0.0000       0.648040        17.6341 
 297   0.0000       0.655249        17.8302 
 298   0.0000       0.660076        17.9616 
 299   0.0000       0.661910        18.0115 
 300   0.0000       0.662995        18.0410 
 301   0.0000       0.669050        18.2058 
 302   0.0000       0.669388        18.2150 
 303   0.0000       0.673592        18.3294 
 304   0.0000       0.677958        18.4482 
 305   0.0000       0.679879        18.5004 
 306   0.0000       0.683007        18.5856 
 307   0.0000       0.686608        18.6836 
 308   0.0000       0.690405        18.7869 
 309   0.0000       0.693642        18.8750 
 310   0.0000       0.699370        19.0308 
 311   0.0000       0.701193        19.0804 
 312   0.0000       0.704824        19.1792 
 313   0.0000       0.707622        19.2554 
 314   0.0000       0.712030        19.3753 
 315   0.0000       0.715121        19.4594 
 316   0.0000       0.715874        19.4799 
 317   0.0000       0.717986        19.5374 
 318   0.0000       0.719347        19.5744 
 319   0.0000       0.723157        19.6781 
 320   0.0000       0.726112        19.7585 
 321   0.0000       0.729410        19.8483 
 322   0.0000       0.731829        19.9141 
 323   0.0000       0.737235        20.0612 
 324   0.0000       0.739468        20.1219 
 325   0.0000       0.743932        20.2434 
 326   0.0000       0.744712        20.2647 
 327   0.0000       0.748348        20.3636 
 328   0.0000       0.753413        20.5014 
 329   0.0000       0.755735        20.5646 
 330   0.0000       0.759161        20.6578 
 331   0.0000       0.761097        20.7105 
 332   0.0000       0.762965        20.7613 
 333   0.0000       0.765332        20.8257 
 334   0.0000       0.765496        20.8302 
 335   0.0000       0.767794        20.8927 
 336   0.0000       0.770553        20.9678 
 337   0.0000       0.775636        21.1061 
 338   0.0000       0.783783        21.3278 
 339   0.0000       0.785850        21.3841 
 340   0.0000       0.788970        21.4690 
 341   0.0000       0.790959        21.5231 
 342   0.0000       0.792606        21.5679 
 343   0.0000       0.794264        21.6130 
 344   0.0000       0.796404        21.6712 
 345   0.0000       0.797915        21.7124 
 346   0.0000       0.804871        21.9016 
 347   0.0000       0.805765        21.9260 
 348   0.0000       0.812621        22.1125 
 349   0.0000       0.814687        22.1688 
 350   0.0000       0.817574        22.2473 
 351   0.0000       0.821979        22.3672 
 352   0.0000       0.825043        22.4506 
 353   0.0000       0.825896        22.4738 
 354   0.0000       0.828358        22.5408 
 355   0.0000       0.830341        22.5947 
 356   0.0000       0.830526        22.5998 
 357   0.0000       0.836903        22.7733 
 358   0.0000       0.840282        22.8652 
 359   0.0000       0.840738        22.8777 
 360   0.0000       0.844840        22.9893 
 361   0.0000       0.846290        23.0287 
 362   0.0000       0.848849        23.0984 
 363   0.0000       0.851242        23.1635 
 364   0.0000       0.851798        23.1786 
 365   0.0000       0.856468        23.3057 
 366   0.0000       0.859014        23.3750 
 367   0.0000       0.859645        23.3921 
 368   0.0000       0.861679        23.4475 
 369   0.0000       0.864459        23.5231 
 370   0.0000       0.866138        23.5688 
 371   0.0000       0.867850        23.6154 
 372   0.0000       0.869653        23.6645 
 373   0.0000       0.871919        23.7261 
 374   0.0000       0.875480        23.8230 
 375   0.0000       0.877626        23.8814 
 376   0.0000       0.878111        23.8946 
 377   0.0000       0.879162        23.9232 
 378   0.0000       0.883540        24.0423 
 379   0.0000       0.889160        24.1953 
 380   0.0000       0.889810        24.2130 
 381   0.0000       0.891523        24.2596 
 382   0.0000       0.902633        24.5619 
 383   0.0000       0.903395        24.5826 
 384   0.0000       0.904253        24.6060 
 385   0.0000       0.908253        24.7148 
 386   0.0000       0.910017        24.7628 
 387   0.0000       0.916387        24.9362 
 388   0.0000       0.918232        24.9864 
 389   0.0000       0.918821        25.0024 
 390   0.0000       0.920577        25.0502 
 391   0.0000       0.924428        25.1550 
 392   0.0000       0.928863        25.2757 
 393   0.0000       0.933598        25.4045 
 394   0.0000       0.933870        25.4119 
 395   0.0000       0.935526        25.4569 
 396   0.0000       0.937200        25.5025 
 397   0.0000       0.939508        25.5653 
 398   0.0000       0.941616        25.6227 
 399   0.0000       0.942950        25.6590 
 400   0.0000       0.945121        25.7181 
 401   0.0000       0.948972        25.8229 
 402   0.0000       0.952364        25.9151 
 403   0.0000       0.956586        26.0300 
 404   0.0000       0.958324        26.0773 
 405   0.0000       0.960828        26.1454 
 406   0.0000       0.963038        26.2056 
 407   0.0000       0.968022        26.3412 
 408   0.0000       0.969526        26.3822 
 409   0.0000       0.975671        26.5493 
 410   0.0000       0.981123        26.6977 
 411   0.0000       0.984385        26.7865 
 412   0.0000       0.988658        26.9028 
 413   0.0000       0.996643        27.1200 
 414   0.0000       0.997224        27.1359 
 415   0.0000       1.000168        27.2159 
 416   0.0000       1.003990        27.3200 
 417   0.0000       1.006849        27.3977 
 418   0.0000       1.008731        27.4490 
 419   0.0000       1.012832        27.5606 
 420   0.0000       1.018568        27.7167 
 421   0.0000       1.026594        27.9350 
 422   0.0000       1.033058        28.1109 
 423   0.0000       1.037679        28.2367 
 424   0.0000       1.040071        28.3018 
 425   0.0000       1.046122        28.4664 
 426   0.0000       1.057244        28.7691 
 427   0.0000       1.062524        28.9127 
 428   0.0000       1.066232        29.0136 
 429   0.0000       1.071259        29.1504 
 430   0.0000       1.073524        29.2121 
 431   0.0000       1.082128        29.4462 
 432   0.0000       1.085334        29.5334 
 433   0.0000       1.088626        29.6230 
 434   0.0000       1.094469        29.7820 
 435   0.0000       1.095763        29.8172 
 436   0.0000       1.101985        29.9865 
 437   0.0000       1.110052        30.2061 
 438   0.0000       1.113433        30.2981 
 439   0.0000       1.115030        30.3415 
 440   0.0000       1.117582        30.4110 
 441   0.0000       1.118841        30.4452 
 442   0.0000       1.124471        30.5984 
 443   0.0000       1.128708        30.7137 
 444   0.0000       1.132737        30.8233 
 445   0.0000       1.134330        30.8667 
 446   0.0000       1.142033        31.0763 
 447   0.0000       1.143586        31.1186 
 448   0.0000       1.145327        31.1659 
 449   0.0000       1.148962        31.2648 
 450   0.0000       1.155332        31.4382 
 451   0.0000       1.156185        31.4614 
 452   0.0000       1.159127        31.5414 
 453   0.0000       1.161043        31.5936 
 454   0.0000       1.165914        31.7261 
 455   0.0000       1.167310        31.7641 
 456   0.0000       1.176106        32.0035 
 457   0.0000       1.178336        32.0641 
 458   0.0000       1.182424        32.1754 
 459   0.0000       1.186710        32.2920 
 460   0.0000       1.189398        32.3652 
 461   0.0000       1.191558        32.4239 
 462   0.0000       1.200286        32.6614 
 463   0.0000       1.200668        32.6718 
 464   0.0000       1.204737        32.7826 
 465   0.0000       1.208253        32.8782 
 466   0.0000       1.209774        32.9196 
 467   0.0000       1.212907        33.0049 
 468   0.0000       1.216903        33.1136 
 469   0.0000       1.220241        33.2045 
 470   0.0000       1.226782        33.3824 
 471   0.0000       1.229369        33.4528 
 472   0.0000       1.233688        33.5704 
 473   0.0000       1.236790        33.6548 
 474   0.0000       1.238800        33.7095 
 475   0.0000       1.243149        33.8278 
 476   0.0000       1.246747        33.9257 
 477   0.0000       1.250234        34.0206 
 478   0.0000       1.255752        34.1707 
 479   0.0000       1.258006        34.2321 
 480   0.0000       1.259055        34.2606 
 481   0.0000       1.264618        34.4120 
 482   0.0000       1.265831        34.4450 
 483   0.0000       1.269672        34.5495 
 484   0.0000       1.274895        34.6917 
 485   0.0000       1.282172        34.8897 
 486   0.0000       1.283790        34.9337 
 487   0.0000       1.286759        35.0145 
 488   0.0000       1.289962        35.1017 
 489   0.0000       1.292031        35.1579 
 490   0.0000       1.295356        35.2484 
 491   0.0000       1.299799        35.3693 
 492   0.0000       1.302926        35.4544 
 493   0.0000       1.306561        35.5533 
 494   0.0000       1.309855        35.6430 
 495   0.0000       1.314892        35.7800 
 496   0.0000       1.320318        35.9277 
 497   0.0000       1.323355        36.0103 
 498   0.0000       1.324650        36.0456 
 499   0.0000       1.330696        36.2101 
 500   0.0000       1.332468        36.2583 
 501   0.0000       1.336673        36.3727 
 502   0.0000       1.340661        36.4813 
 503   0.0000       1.343331        36.5539 
 504   0.0000       1.346263        36.6337 
 505   0.0000       1.348151        36.6851 
 506   0.0000       1.350327        36.7443 
 507   0.0000       1.356585        36.9146 
[...]
      pz      :     0.021739  p :     0.079232
      px      :     0.042793
      py      :     0.014701
 77 H s       :     0.896418  s :     0.896418
      pz      :     0.047056  p :     0.078270
      px      :     0.015002
      py      :     0.016212
 78 H s       :     0.896814  s :     0.896814
      pz      :     0.025412  p :     0.078179
      px      :     0.020727
      py      :     0.032041
 79 H s       :     0.906976  s :     0.906976
      pz      :     0.022674  p :     0.087344
      px      :     0.021915
      py      :     0.042755
 80 H s       :     0.880921  s :     0.880921
      pz      :     0.038063  p :     0.083071
      px      :     0.029429
      py      :     0.015578
 81 H s       :     0.889071  s :     0.889071
      pz      :     0.037515  p :     0.083224
      px      :     0.016072
      py      :     0.029638
 82 H s       :     0.914114  s :     0.914114
      pz      :     0.022553  p :     0.087192
      px      :     0.030858
      py      :     0.033782
 83 H s       :     0.872347  s :     0.872347
      pz      :     0.039152  p :     0.083580
      px      :     0.015248
      py      :     0.029180
 84 H s       :     0.889113  s :     0.889113
      pz      :     0.035804  p :     0.084543
      px      :     0.031812
      py      :     0.016926
 85 H s       :     0.896532  s :     0.896532
      pz      :     0.022507  p :     0.079581
      px      :     0.014169
      py      :     0.042905
 86 H s       :     0.890859  s :     0.890859
      pz      :     0.024692  p :     0.078886
      px      :     0.032985
      py      :     0.021209
 87 H s       :     0.891575  s :     0.891575
      pz      :     0.047774  p :     0.078560
      px      :     0.015665
      py      :     0.015121
 88 H s       :     0.918817  s :     0.918817
      pz      :     0.022592  p :     0.086818
      px      :     0.041907
      py      :     0.022319
 89 H s       :     0.875968  s :     0.875968
      pz      :     0.037776  p :     0.084038
      px      :     0.030447
      py      :     0.015814


                      *****************************
                      * MAYER POPULATION ANALYSIS *
                      *****************************

  NA   - Mulliken gross atomic population
  ZA   - Total nuclear charge
  QA   - Mulliken gross atomic charge
  VA   - Mayer's total valence
  BVA  - Mayer's bonded valence
  FA   - Mayer's free valence

  ATOM       NA         ZA         QA         VA         BVA        FA
  0 C      5.7611     6.0000     0.2389     3.7978     3.7978     0.0000
  1 N      7.4099     7.0000    -0.4099     3.4875     3.4875    -0.0000
  2 C      6.0663     6.0000    -0.0663     3.9210     3.9210    -0.0000
  3 N      7.3443     7.0000    -0.3443     3.4188     3.4188    -0.0000
  4 C      6.0656     6.0000    -0.0656     3.9509     3.9509    -0.0000
  5 N      7.5664     7.0000    -0.5664     3.0650     3.0650    -0.0000
  6 C      6.0269     6.0000    -0.0269     3.9577     3.9577    -0.0000
  7 N      7.3367     7.0000    -0.3367     3.4460     3.4460    -0.0000
  8 C      5.7633     6.0000     0.2367     3.7984     3.7984    -0.0000
  9 N      7.5665     7.0000    -0.5665     3.0928     3.0928     0.0000
 10 C      5.8975     6.0000     0.1025     3.8565     3.8565    -0.0000
 11 N      7.4402     7.0000    -0.4402     3.3704     3.3704    -0.0000
 12 C      6.0581     6.0000    -0.0581     3.9081     3.9081    -0.0000
 13 N      7.4521     7.0000    -0.4521     3.3115     3.3115     0.0000
 14 C      5.7808     6.0000     0.2192     3.8121     3.8121    -0.0000
 15 N      7.4419     7.0000    -0.4419     3.3615     3.3615    -0.0000
 16 C      5.7417     6.0000     0.2583     3.8069     3.8069     0.0000
 17 C      6.0307     6.0000    -0.0307     3.9586     3.9586     0.0000
 18 C      6.1754     6.0000    -0.1754     3.6693     3.6693    -0.0000
 19 C      5.7691     6.0000     0.2309     3.9028     3.9028    -0.0000
 20 C      5.8144     6.0000     0.1856     3.8206     3.8206    -0.0000
 21 C      6.0676     6.0000    -0.0676     3.8896     3.8896    -0.0000
 22 C      6.0924     6.0000    -0.0924     3.9850     3.9850    -0.0000
 23 C      6.0695     6.0000    -0.0695     3.9884     3.9884    -0.0000
 24 C      5.7823     6.0000     0.2177     3.8312     3.8312    -0.0000
 25 C      5.8848     6.0000     0.1152     3.8945     3.8945     0.0000
 26 C      6.0646     6.0000    -0.0646     3.9104     3.9104    -0.0000
 27 C      5.7496     6.0000     0.2504     3.9041     3.9041    -0.0000
 28 C      6.0387     6.0000    -0.0387     3.9911     3.9911    -0.0000
 29 C      6.1981     6.0000    -0.1981     3.7278     3.7278    -0.0000
 30 C      5.7807     6.0000     0.2193     3.7769     3.7769    -0.0000
 31 C      5.8144     6.0000     0.1856     3.8341     3.8341     0.0000
 32 C      6.0644     6.0000    -0.0644     3.9127     3.9127    -0.0000
 33 C      6.1046     6.0000    -0.1046     3.9837     3.9837     0.0000
 34 C      6.0505     6.0000    -0.0505     4.0003     4.0003     0.0000
 35 C      5.8241     6.0000     0.1759     3.8302     3.8302     0.0000
 36 C      5.8783     6.0000     0.1217     3.9124     3.9124     0.0000
 37 C      6.0710     6.0000    -0.0710     3.9130     3.9130    -0.0000
 38 C      5.7548     6.0000     0.2452     3.7936     3.7936    -0.0000
 39 C      6.0657     6.0000    -0.0657     3.9997     3.9997    -0.0000
 40 C      6.2060     6.0000    -0.2060     3.7538     3.7538     0.0000
 41 C      5.7841     6.0000     0.2159     3.8730     3.8730     0.0000
 42 C      5.7872     6.0000     0.2128     3.8335     3.8335    -0.0000
 43 C      6.0778     6.0000    -0.0778     3.9050     3.9050    -0.0000
 44 C      6.0931     6.0000    -0.0931     3.9826     3.9826     0.0000
 45 C      6.0368     6.0000    -0.0368     3.9968     3.9968     0.0000
 46 C      5.8184     6.0000     0.1816     3.8194     3.8194    -0.0000
 47 C      5.8830     6.0000     0.1170     3.8978     3.8978     0.0000
 48 C      6.0827     6.0000    -0.0827     3.8970     3.8970    -0.0000
 49 C      5.7942     6.0000     0.2058     3.8598     3.8598    -0.0000
 50 C      6.0693     6.0000    -0.0693     3.9904     3.9904     0.0000
 51 C      6.1885     6.0000    -0.1885     3.7435     3.7435     0.0000
 52 H      0.9153     1.0000     0.0847     0.9817     0.9817    -0.0000
 53 H      1.0059     1.0000    -0.0059     1.0028     1.0028    -0.0000
 54 H      0.9311     1.0000     0.0689     1.0045     1.0045    -0.0000
 55 H      0.9172     1.0000     0.0828     0.9826     0.9826    -0.0000
 56 H      0.9123     1.0000     0.0877     0.9726     0.9726    -0.0000
 57 H      0.9219     1.0000     0.0781     0.9849     0.9849    -0.0000
 58 H      0.9235     1.0000     0.0765     0.9871     0.9871     0.0000
 59 H      1.0305     1.0000    -0.0305     0.9961     0.9961    -0.0000
 60 H      0.9300     1.0000     0.0700     1.0048     1.0048    -0.0000
 61 H      0.8223     1.0000     0.1777     1.0439     1.0439     0.0000
 62 H      0.8328     1.0000     0.1672     1.0433     1.0433    -0.0000
 63 H      0.9483     1.0000     0.0517     0.9864     0.9864    -0.0000
 64 H      1.0356     1.0000    -0.0356     0.9927     0.9927    -0.0000
 65 H      0.9605     1.0000     0.0395     1.0076     1.0076    -0.0000
 66 H      0.9460     1.0000     0.0540     0.9847     0.9847    -0.0000
 67 H      0.9428     1.0000     0.0572     0.9715     0.9715     0.0000
 68 H      0.9446     1.0000     0.0554     0.9863     0.9863     0.0000
 69 H      0.9414     1.0000     0.0586     0.9830     0.9830    -0.0000
 70 H      1.0119     1.0000    -0.0119     0.9987     0.9987     0.0000
 71 H      0.9541     1.0000     0.0459     1.0077     1.0077     0.0000
 72 H      0.9646     1.0000     0.0354     0.9861     0.9861     0.0000
 73 H      1.0197     1.0000    -0.0197     0.9960     0.9960     0.0000
 74 H      0.9725     1.0000     0.0275     1.0089     1.0089     0.0000
 75 H      0.9659     1.0000     0.0341     0.9868     0.9868     0.0000
 76 H      0.9555     1.0000     0.0445     0.9700     0.9700     0.0000
 77 H      0.9552     1.0000     0.0448     0.9841     0.9841    -0.0000
 78 H      0.9560     1.0000     0.0440     0.9834     0.9834     0.0000
 79 H      1.0115     1.0000    -0.0115     1.0021     1.0021    -0.0000
 80 H      0.9728     1.0000     0.0272     1.0061     1.0061    -0.0000
 81 H      0.9503     1.0000     0.0497     0.9852     0.9852     0.0000
 82 H      1.0230     1.0000    -0.0230     0.9953     0.9953     0.0000
 83 H      0.9576     1.0000     0.0424     1.0109     1.0109     0.0000
 84 H      0.9514     1.0000     0.0486     0.9865     0.9865     0.0000
 85 H      0.9465     1.0000     0.0535     0.9713     0.9713    -0.0000
 86 H      0.9438     1.0000     0.0562     0.9841     0.9841     0.0000
 87 H      0.9460     1.0000     0.0540     0.9852     0.9852     0.0000
 88 H      1.0313     1.0000    -0.0313     0.9907     0.9907    -0.0000
 89 H      0.9622     1.0000     0.0378     1.0058     1.0058     0.0000

  Mayer bond orders larger than 0.100000
B(  0-C ,  1-N ) :   1.2151 B(  0-C , 17-C ) :   1.5045 B(  0-C , 52-H ) :   0.9665 
B(  1-N ,  8-C ) :   1.2099 B(  1-N , 10-C ) :   0.9231 B(  2-C , 12-C ) :   1.5837 
B(  2-C , 16-C ) :   1.2693 B(  2-C , 53-H ) :   0.9794 B(  3-N , 14-C ) :   1.1737 
B(  3-N , 16-C ) :   1.2021 B(  3-N , 61-H ) :   0.8950 B(  4-C ,  6-C ) :   1.3620 
B(  4-C , 17-C ) :   1.3685 B(  4-C , 18-C ) :   1.0435 B(  5-N , 19-C ) :   1.3625 
B(  5-N , 27-C ) :   1.4498 B(  6-C ,  8-C ) :   1.5096 B(  6-C , 54-H ) :   0.9706 
B(  7-N , 30-C ) :   1.1835 B(  7-N , 38-C ) :   1.2163 B(  7-N , 62-H ) :   0.9016 
B(  8-C , 55-H ) :   0.9674 B(  9-N , 41-C ) :   1.4363 B(  9-N , 49-C ) :   1.3914 
B( 10-C , 56-H ) :   0.9767 B( 10-C , 57-H ) :   0.9806 B( 10-C , 58-H ) :   0.9814 
B( 11-N , 20-C ) :   1.0947 B( 11-N , 24-C ) :   1.1344 B( 11-N , 25-C ) :   0.9629 
B( 12-C , 14-C ) :   1.2698 B( 12-C , 59-H ) :   0.9766 B( 13-N , 31-C ) :   1.0800 
B( 13-N , 35-C ) :   1.0696 B( 13-N , 36-C ) :   0.9836 B( 14-C , 18-C ) :   1.2660 
B( 15-N , 42-C ) :   1.1265 B( 15-N , 46-C ) :   1.0873 B( 15-N , 47-C ) :   0.9668 
B( 16-C , 51-C ) :   1.2514 B( 17-C , 60-H ) :   0.9706 B( 18-C , 19-C ) :   1.3160 
B( 19-C , 21-C ) :   1.1589 B( 20-C , 28-C ) :   1.6301 B( 20-C , 63-H ) :   0.9710 
B( 21-C , 26-C ) :   1.6857 B( 21-C , 64-H ) :   0.9715 B( 22-C , 23-C ) :   1.2536 
B( 22-C , 28-C ) :   1.2796 B( 22-C , 29-C ) :   1.2584 B( 23-C , 24-C ) :   1.6363 
B( 23-C , 65-H ) :   0.9723 B( 24-C , 66-H ) :   0.9691 B( 25-C , 67-H ) :   0.9762 
B( 25-C , 68-H ) :   0.9834 B( 25-C , 69-H ) :   0.9819 B( 26-C , 27-C ) :   1.1692 
B( 26-C , 70-H ) :   0.9759 B( 27-C , 29-C ) :   1.2447 B( 28-C , 71-H ) :   0.9709 
B( 29-C , 30-C ) :   1.1723 B( 30-C , 32-C ) :   1.3536 B( 31-C , 39-C ) :   1.6879 
B( 31-C , 72-H ) :   0.9709 B( 32-C , 37-C ) :   1.5066 B( 32-C , 73-H ) :   0.9771 
B( 33-C , 34-C ) :   1.2301 B( 33-C , 39-C ) :   1.2225 B( 33-C , 40-C ) :   1.3645 
B( 34-C , 35-C ) :   1.6865 B( 34-C , 74-H ) :   0.9710 B( 35-C , 75-H ) :   0.9709 
B( 36-C , 76-H ) :   0.9754 B( 36-C , 77-H ) :   0.9826 B( 36-C , 78-H ) :   0.9838 
B( 37-C , 38-C ) :   1.3467 B( 37-C , 79-H ) :   0.9794 B( 38-C , 40-C ) :   1.1765 
B( 39-C , 80-H ) :   0.9721 B( 40-C , 41-C ) :   1.1657 B( 41-C , 43-C ) :   1.2586 
B( 42-C , 50-C ) :   1.6430 B( 42-C , 81-H ) :   0.9697 B( 43-C , 48-C ) :   1.5925 
B( 43-C , 82-H ) :   0.9757 B( 44-C , 45-C ) :   1.2813 B( 44-C , 50-C ) :   1.2475 
B( 44-C , 51-C ) :   1.2464 B( 45-C , 46-C ) :   1.6334 B( 45-C , 83-H ) :   0.9702 
B( 46-C , 84-H ) :   0.9710 B( 47-C , 85-H ) :   0.9759 B( 47-C , 86-H ) :   0.9825 
B( 47-C , 87-H ) :   0.9830 B( 48-C , 49-C ) :   1.2527 B( 48-C , 88-H ) :   0.9725 
B( 49-C , 51-C ) :   1.1878 B( 50-C , 89-H ) :   0.9723 

-------
TIMINGS
-------

Total SCF time: 0 days 0 hours 30 min 0 sec 

Total time                  ....    1800.206 sec
Sum of individual times     ....    1795.451 sec  ( 99.7%)

Fock matrix formation       ....    1766.649 sec  ( 98.1%)
Diagonalization             ....       9.534 sec  (  0.5%)
Density matrix formation    ....       0.541 sec  (  0.0%)
Population analysis         ....       0.636 sec  (  0.0%)
Initial guess               ....       2.513 sec  (  0.1%)
Orbital Transformation      ....       0.000 sec  (  0.0%)
Orbital Orthonormalization  ....       0.000 sec  (  0.0%)
DIIS solution               ....       4.344 sec  (  0.2%)
SOSCF solution              ....       9.941 sec  (  0.6%)

Maximum memory used throughout the entire SCF-calculation: 302.6 MB


           ************************************************************
           *        Program running with 16 parallel MPI-processes    *
           *              working on a common directory               *
           ************************************************************

------------------------------------------------------------------------------
                                ORCA  MP2 
------------------------------------------------------------------------------

Freezing NCore=104 chemical core electrons

----------
MP2 ENERGY (disk based algorithm)
----------

Dimension of the basis                    ...  918
Memory devoted to MP2                     ... 2000 MB   
Data format for buffers                   ... DOUBLE
Compression type for matrix containers    ... UNCOMPRESSED

-------------------------------
PARTIAL EXCHANGE TRANSFORMATION
-------------------------------

Transformation type                        ... one-operator
Generation of integrals (i,mue|j,nue)      ... ON
Generation of integrals (mue,kappa|nue,tau)... OFF
Generation of integrals (i,mue|a,nue)      ... OFF
Dimension of the basis                     ...  918
Number of internal MOs                     ...  127 (  52- 178)
Pair cutoff                                ... 2.500e-12 Eh
Number of AO pairs in the trafo            ... 421821
Total Number of distinct AO pairs          ... 421821
Memory devoted for trafo                   ... 2000.0 MB 
Max. Number of MO pairs treated together   ...  311      
Number Format for Storage                  ... Double (8 Byte)
Integral package used                      ... LIBINT

Starting integral evaluation:
    ... done with AO integral generation
Closing buffer AOK     (37.66 GB; CompressionRatio= 1.35)
Collecting buffer AOK 
Number of MO pairs included in the trafo   ... 8128
------------------------
SORTING OF (i,mue|j,nue)
------------------------

IBATCH = 1 of  2
IBATCH = 2 of  2
Closing buffer KAO     (51.03 GB; CompressionRatio= 1.00)
Collecting buffer KAO 
N(AO-Batches) Done                         ...  85479188 
N(AO-Batches) Skipped                      ...  82025248 
N(IJ)-pairs Skipped                        ...         0 
TOTAL TIME for half transformation         ...  2704.438 sec
AO-integral generation                     ...   210.683 sec
Half transformation                        ...   424.574 sec
K-integral sorting                         ...  1847.071 sec
Process 10:   Internal MO 132
Process 13:   Internal MO 156

Finished integral transformation - now doing MP2 part

OPERATOR COMBINATION   0   0: ij=( 52..178, 52..178)
Process  7:   Internal MO 108
Process  1:   Internal MO  60
Process  4:   Internal MO  84
Process  0:   Internal MO  54
Process  0:   Internal MO  57
Process  2:   Internal MO  69
Process  1:   Internal MO  63
Process  3:   Internal MO  78
Process  1:   Internal MO  66
Process  8:   Internal MO 117
Process  2:   Internal MO  72
Process 11:   Internal MO 141
Process  5:   Internal MO  93
Process  6:   Internal MO 102
Process  4:   Internal MO  87
Process 14:   Internal MO 165
Process  3:   Internal MO  81
Process  2:   Internal MO  75
Process  9:   Internal MO 126
Process  7:   Internal MO 111
Process 12:   Internal MO 150
Process  5:   Internal MO  96
Process  4:   Internal MO  90
Process 15:   Internal MO 174
Process 10:   Internal MO 135
Process  6:   Internal MO 105
Process  8:   Internal MO 120
Process  5:   Internal MO  99
Process 13:   Internal MO 159
Process 11:   Internal MO 144
Process  9:   Internal MO 129
Process  7:   Internal MO 114
Process 14:   Internal MO 168
Process  8:   Internal MO 123
Process 10:   Internal MO 138
Process 12:   Internal MO 153
Process 15:   Internal MO 177
Process 11:   Internal MO 147
Process 13:   Internal MO 162
Process 14:   Internal MO 171
-----------------------------------------------
 MP2 CORRELATION ENERGY   :     -7.258664655 Eh
-----------------------------------------------


-------
TIMINGS
-------
Total time                : 2950.840 sec
Integral trafo            : 2707.756 sec ( 91.8%)
K(i,j)                    :    6.201 sec (  0.2%)
T(i,j)                    :    0.137 sec (  0.0%)

---------------------------------------
MP2 TOTAL ENERGY:    -2130.868744028 Eh
---------------------------------------

Maximum memory used throughout the entire MP2-calculation: 2275.2 MB

-------------------------   --------------------
FINAL SINGLE POINT ENERGY     -2130.868744027912
-------------------------   --------------------


                            ***************************************
                            *     ORCA property calculations      *
                            ***************************************


  WARNING: The energy has been calculated at the MP2 level but the densities
           used in the property calculations are still SCF densities
           MP2 response densities have not been calculated 
           use %mp2 Density relaxed end
           or  %mp2 Density unrelaxed end

                                    ---------------------
                                    Active property flags
                                    ---------------------
   (+) Dipole Moment


------------------------------------------------------------------------------
                       ORCA ELECTRIC PROPERTIES CALCULATION
------------------------------------------------------------------------------

Dipole Moment Calculation                       ... on
Quadrupole Moment Calculation                   ... off
Polarizability Calculation                      ... off
GBWName                                         ... /scratch/allen/tmpyp4_amber_gaff2/conf1/conf1/Conf269.orca.gbw
Electron density                                ... /scratch/allen/tmpyp4_amber_gaff2/conf1/conf1/Conf269.orca.scfp
The origin for moment calculation is the CENTER OF MASS  = ( 0.000358, -0.003783 -0.001668)

-------------
DIPOLE MOMENT
-------------
                                X             Y             Z
Electronic contribution:     -4.83061       5.57021      -0.06531
Nuclear contribution   :      0.05890       0.22789       0.09244
                        -----------------------------------------
Total Dipole Moment    :     -4.77171       5.79809       0.02712
                        -----------------------------------------
Magnitude (a.u.)       :      7.50918
Magnitude (Debye)      :     19.08682



--------------------
Rotational spectrum 
--------------------
 
Rotational constants in cm-1:     0.001498     0.001472     0.000763 
Rotational constants in MHz :    44.912613    44.127688    22.867986 

 Dipole components along the rotational axes: 
x,y,z [a.u.] :    -6.625269     3.534513     0.029023 
x,y,z [Debye]:   -16.840095     8.984018     0.073769 

 

Timings for individual modules:

Sum of individual times         ...     4777.596 sec (=  79.627 min)
GTO integral calculation        ...        3.677 sec (=   0.061 min)   0.1 %
SCF iterations                  ...     1801.395 sec (=  30.023 min)  37.7 %
MP2 module                      ...     2972.524 sec (=  49.542 min)  62.2 %
                             ****ORCA TERMINATED NORMALLY****
TOTAL RUN TIME: 0 days 1 hours 19 minutes 40 seconds 866 msec
# of primitive gaussian functions

