
                                 *****************
                                 * O   R   C   A *
                                 *****************

                                            #,                                       
                                            ###                                      
                                            ####                                     
                                            #####                                    
                                            ######                                   
                                           ########,                                 
                                     ,,################,,,,,                         
                               ,,#################################,,                 
                          ,,##########################################,,             
                       ,#########################################, ''#####,          
                    ,#############################################,,   '####,        
                  ,##################################################,,,,####,       
                ,###########''''           ''''###############################       
              ,#####''   ,,,,##########,,,,          '''####'''          '####       
            ,##' ,,,,###########################,,,                        '##       
           ' ,,###''''                  '''############,,,                           
         ,,##''                                '''############,,,,        ,,,,,,###''
      ,#''                                            '''#######################'''  
     '                                                          ''''####''''         
             ,#######,   #######,   ,#######,      ##                                
            ,#'     '#,  ##    ##  ,#'     '#,    #''#        ######   ,####,        
            ##       ##  ##   ,#'  ##            #'  '#       #        #'  '#        
            ##       ##  #######   ##           ,######,      #####,   #    #        
            '#,     ,#'  ##    ##  '#,     ,#' ,#      #,         ##   #,  ,#        
             '#######'   ##     ##  '#######'  #'      '#     #####' # '####'        



                  #######################################################
                  #                        -***-                        #
                  #          Department of theory and spectroscopy      #
                  #    Directorship and core code : Frank Neese         #
                  #        Max Planck Institute fuer Kohlenforschung    #
                  #                Kaiser Wilhelm Platz 1               #
                  #                 D-45470 Muelheim/Ruhr               #
                  #                      Germany                        #
                  #                                                     #
                  #                  All rights reserved                #
                  #                        -***-                        #
                  #######################################################


                         Program Version 5.0.4 -  RELEASE  -


 With contributions from (in alphabetic order):
   Daniel Aravena         : Magnetic Suceptibility
   Michael Atanasov       : Ab Initio Ligand Field Theory (pilot matlab implementation)
   Alexander A. Auer      : GIAO ZORA, VPT2 properties, NMR spectrum
   Ute Becker             : Parallelization
   Giovanni Bistoni       : ED, misc. LED, open-shell LED, HFLD
   Martin Brehm           : Molecular dynamics
   Dmytro Bykov           : SCF Hessian
   Vijay G. Chilkuri      : MRCI spin determinant printing, contributions to CSF-ICE
   Dipayan Datta          : RHF DLPNO-CCSD density
   Achintya Kumar Dutta   : EOM-CC, STEOM-CC
   Dmitry Ganyushin       : Spin-Orbit,Spin-Spin,Magnetic field MRCI
   Miquel Garcia          : C-PCM and meta-GGA Hessian, CC/C-PCM, Gaussian charge scheme
   Yang Guo               : DLPNO-NEVPT2, F12-NEVPT2, CIM, IAO-localization
   Andreas Hansen         : Spin unrestricted coupled pair/coupled cluster methods
   Benjamin Helmich-Paris : MC-RPA, TRAH-SCF, COSX integrals
   Lee Huntington         : MR-EOM, pCC
   Robert Izsak           : Overlap fitted RIJCOSX, COSX-SCS-MP3, EOM
   Marcus Kettner         : VPT2
   Christian Kollmar      : KDIIS, OOCD, Brueckner-CCSD(T), CCSD density, CASPT2, CASPT2-K
   Simone Kossmann        : Meta GGA functionals, TD-DFT gradient, OOMP2, MP2 Hessian
   Martin Krupicka        : Initial AUTO-CI
   Lucas Lang             : DCDCAS
   Marvin Lechner         : AUTO-CI (C++ implementation), FIC-MRCC
   Dagmar Lenk            : GEPOL surface, SMD
   Dimitrios Liakos       : Extrapolation schemes; Compound Job, initial MDCI parallelization
   Dimitrios Manganas     : Further ROCIS development; embedding schemes
   Dimitrios Pantazis     : SARC Basis sets
   Anastasios Papadopoulos: AUTO-CI, single reference methods and gradients
   Taras Petrenko         : DFT Hessian,TD-DFT gradient, ASA, ECA, R-Raman, ABS, FL, XAS/XES, NRVS
   Peter Pinski           : DLPNO-MP2, DLPNO-MP2 Gradient
   Christoph Reimann      : Effective Core Potentials
   Marius Retegan         : Local ZFS, SOC
   Christoph Riplinger    : Optimizer, TS searches, QM/MM, DLPNO-CCSD(T), (RO)-DLPNO pert. Triples
   Tobias Risthaus        : Range-separated hybrids, TD-DFT gradient, RPA, STAB
   Michael Roemelt        : Original ROCIS implementation
   Masaaki Saitow         : Open-shell DLPNO-CCSD energy and density
   Barbara Sandhoefer     : DKH picture change effects
   Avijit Sen             : IP-ROCIS
   Kantharuban Sivalingam : CASSCF convergence, NEVPT2, FIC-MRCI
   Bernardo de Souza      : ESD, SOC TD-DFT
   Georgi Stoychev        : AutoAux, RI-MP2 NMR, DLPNO-MP2 response
   Willem Van den Heuvel  : Paramagnetic NMR
   Boris Wezisla          : Elementary symmetry handling
   Frank Wennmohs         : Technical directorship


 We gratefully acknowledge several colleagues who have allowed us to
 interface, adapt or use parts of their codes:
   Stefan Grimme, W. Hujo, H. Kruse, P. Pracht,  : VdW corrections, initial TS optimization,
                  C. Bannwarth, S. Ehlert          DFT functionals, gCP, sTDA/sTD-DF
   Ed Valeev, F. Pavosevic, A. Kumar             : LibInt (2-el integral package), F12 methods
   Garnet Chan, S. Sharma, J. Yang, R. Olivares  : DMRG
   Ulf Ekstrom                                   : XCFun DFT Library
   Mihaly Kallay                                 : mrcc  (arbitrary order and MRCC methods)
   Jiri Pittner, Ondrej Demel                    : Mk-CCSD
   Frank Weinhold                                : gennbo (NPA and NBO analysis)
   Christopher J. Cramer and Donald G. Truhlar   : smd solvation model
   Lars Goerigk                                  : TD-DFT with DH, B97 family of functionals
   V. Asgeirsson, H. Jonsson                     : NEB implementation
   FAccTs GmbH                                   : IRC, NEB, NEB-TS, DLPNO-Multilevel, CI-OPT
                                                   MM, QMMM, 2- and 3-layer-ONIOM, Crystal-QMMM,
                                                   LR-CPCM, SF, NACMEs, symmetry and pop. for TD-DFT,
                                                   nearIR, NL-DFT gradient (VV10), updates on ESD,
                                                   ML-optimized integration grids
   S Lehtola, MJT Oliveira, MAL Marques          : LibXC Library
   Liviu Ungur et al                             : ANISO software


 Your calculation uses the libint2 library for the computation of 2-el integrals
 For citations please refer to: http://libint.valeyev.net

 Your ORCA version has been built with support for libXC version: 5.1.0
 For citations please refer to: https://tddft.org/programs/libxc/

 This ORCA versions uses:
   CBLAS   interface :  Fast vector & matrix operations
   LAPACKE interface :  Fast linear algebra routines
   SCALAPACK package :  Parallel linear algebra routines
   Shared memory     :  Shared parallel matrices
   BLAS/LAPACK       :  OpenBLAS 0.3.15  USE64BITINT DYNAMIC_ARCH NO_AFFINITY Sandybridge SINGLE_THREADED
        Core in use  :  Sandybridge
   Copyright (c) 2011-2014, The OpenBLAS Project


================================================================================

----- Orbital basis set information -----
Your calculation utilizes the basis: cc-pVDZ 
       H, B-Ne : Obtained from the ccRepo (grant-hill.group.shef.ac.uk/ccrepo) Feb. 2017
                 T. H. Dunning, Jr., J. Chem. Phys. 90, 1007 (1989)
            He : Obtained from the ccRepo (grant-hill.group.shef.ac.uk/ccrepo) Feb. 2017
                 D. E. Woon, T. H. Dunning, Jr., J. Chem. Phys. 100, 2975 (1994)
  Li-Be, Na-Mg : Obtained from the ccRepo (grant-hill.group.shef.ac.uk/ccrepo) Feb. 2017
                 B. P. Prascher, D. E. Woon, K. A. Peterson, T. H. Dunning, Jr., A. K. Wilson, Theor. Chem. Acc. 128, 69 (2011)
         Al-Ar : Obtained from the ccRepo (grant-hill.group.shef.ac.uk/ccrepo) Feb. 2017
                 D. E. Woon, T. H. Dunning, Jr., J. Chem. Phys. 98, 1358 (1993)
            Ca : Obtained from the Peterson Research Group Website (tyr0.chem.wsu.edu/~kipeters) Feb. 2017
                 J. Koput, K. A. Peterson, J. Phys. Chem. 106, 9595 (2002)
         Sc-Zn : Obtained from the ccRepo (grant-hill.group.shef.ac.uk/ccrepo) Feb. 2017
                 N. B. Balabanov, K. A. Peterson, J. Chem. Phys. 123, 064107 (2005)
                 N. B. Balabanov, K. A. Peterson, J. Chem. Phys. 125, 074110 (2006)
         Ga-Kr : Obtained from the ccRepo (grant-hill.group.shef.ac.uk/ccrepo) Feb. 2017
                 A. K. Wilson, D. E. Woon, K. A. Peterson, T. H. Dunning, Jr., J. Chem. Phys. 110, 7667 (1999)

================================================================================
                                        WARNINGS
                       Please study these warnings very carefully!
================================================================================


WARNING: No MP2 level density has been requested!
         To caclulate MP2 level properties use
         %mp2 Density relaxed end
         or
         %mp2 Density unrelaxed end

WARNING: Post HF methods need fully converged wavefunctions
  ===> : Setting SCFConvForced true
         You can overwrite this default with %scf ConvForced false 


INFO   : the flag for use of the SHARK integral package has been found!

================================================================================
                                       INPUT FILE
================================================================================
NAME = /scratch/allen/tmpyp4_amber_gaff2/2.Mdgx/conf11/conf11/Conf142.orca
|  1> ! PAL2
|  2> ! mp2 cc-pvdz TightSCF  NoKeepInts
|  3> 
|  4> %scf
|  5>   MaxCore 2000
|  6> end
|  7> %mp2
|  8>   MaxCore 2000
|  9> end
| 10> * xyz 0 1
| 11>    C       -4.73500         5.34700        -0.66800
| 12>    C        1.47400         4.04100         0.05700
| 13>    C       -2.80200         4.09300         0.04900
| 14>    C       -2.43400         5.20200         0.82600
| 15>    C       -3.22200         6.33600         0.83400
| 16>    C       -5.19500         7.61400         0.15100
| 17>    C        0.13200         4.30700         0.06100
| 18>    C       -0.56900         3.05600         0.04700
| 19>    C        1.64900         2.61800         0.02300
| 20>    C       -3.98300         4.18900        -0.70300
| 21>    N       -4.35200         6.39900         0.09200
| 22>    N        0.38800         2.06700         0.02500
| 23>    N       -2.01000         0.39500        -0.07500
| 24>    N       -0.38800        -2.07400        -0.02700
| 25>    N        2.01000        -0.40100         0.06500
| 26>    C       -1.96000         2.86100         0.02400
| 27>    C       -2.62300         1.61500        -0.01800
| 28>    C       -5.57300        -4.32900         1.06600
| 29>    C       -4.07300         1.47100         0.05600
| 30>    C       -4.10600        -2.75600        -0.02600
| 31>    C       -4.99500        -2.75700        -1.11100
| 32>    C       -6.13200        -3.54200        -1.07600
| 33>    C       -7.65100        -5.11300         0.04000
| 34>    C       -4.32400         0.14100         0.03700
| 35>    C       -3.02500        -0.52000        -0.04800
| 36>    C       -4.42200        -3.56600         1.07500
| 37>    N       -6.40700        -4.31300         0.00100
| 38>    C       -2.86700        -1.92200        -0.04000
| 39>    C       -1.65000        -2.62400        -0.02700
| 40>    C        3.56800        -6.14200        -1.04000
| 41>    C       -1.47600        -4.04900        -0.03400
| 42>    C        2.80300        -4.09900        -0.00800
| 43>    C        3.65700        -4.38400         1.06900
| 44>    C        4.42700        -5.53000         1.05900
| 45>    C        5.24500        -7.58800         0.01400
| 46>    C       -0.13400        -4.31500        -0.02200
| 47>    C        0.56800        -3.06400        -0.02700
| 48>    C        2.77500        -5.01200        -1.07400
| 49>    N        4.37600        -6.39100         0.01700
| 50>    C        1.95900        -2.86900        -0.00900
| 51>    C        2.62100        -1.62200         0.00900
| 52>    C        5.54300         4.33900        -1.13000
| 53>    C        4.07000        -1.47900        -0.09400
| 54>    C        4.10400         2.75100        -0.02100
| 55>    C        5.02700         2.72900         1.03600
| 56>    C        6.16600         3.50900         0.97800
| 57>    C        7.61900         5.15300        -0.11500
| 58>    C        4.32100        -0.14800        -0.09200
| 59>    C        3.02500         0.51400         0.01500
| 60>    C        4.38700         3.58200        -1.11500
| 61>    C        2.86600         1.91600         0.01300
| 62>    N        6.41300         4.29600        -0.09500
| 63>    H       -5.64600         5.47000        -1.24100
| 64>    H        2.27400         4.76600         0.08100
| 65>    H       -1.53900         5.18500         1.43600
| 66>    H       -2.98400         7.21200         1.42300
| 67>    H       -5.88000         7.53000         0.99700
| 68>    H       -4.54900         8.48300         0.27500
| 69>    H       -5.75700         7.69600        -0.77900
| 70>    H       -0.33200         5.28200         0.06900
| 71>    H       -4.31300         3.37200        -1.33400
| 72>    H        0.18200         1.07200         0.00500
| 73>    H       -0.18300        -1.08000        -0.02100
| 74>    H       -5.86400        -4.96200         1.89500
| 75>    H       -4.79400         2.27200         0.13900
| 76>    H       -4.80000        -2.16000        -1.99400
| 77>    H       -6.84100        -3.58200        -1.89300
| 78>    H       -8.42800        -4.53600         0.54600
| 79>    H       -7.95600        -5.33700        -0.98100
| 80>    H       -7.45600        -6.03700         0.58400
| 81>    H       -5.28700        -0.34400         0.10000
| 82>    H       -3.78000        -3.60100         1.94700
| 83>    H        3.58700        -6.86800        -1.84300
| 84>    H       -2.27600        -4.77400        -0.05000
| 85>    H        3.71400        -3.72400         1.92600
| 86>    H        5.09200        -5.79500         1.87100
| 87>    H        6.20500        -7.32900        -0.43900
| 88>    H        5.39300        -7.91700         1.04200
| 89>    H        4.75900        -8.37300        -0.56400
| 90>    H        0.32900        -5.29000        -0.00800
| 91>    H        2.14600        -4.84200        -1.94000
| 92>    H        5.80800         4.98600        -1.95600
| 93>    H        4.78800        -2.28100        -0.18500
| 94>    H        4.86000         2.11400         1.91200
| 95>    H        6.90100         3.53100         1.77200
| 96>    H        7.38300         6.10900         0.35600
| 97>    H        8.41400         4.65200         0.43500
| 98>    H        7.92100         5.31000        -1.15000
| 99>    H        5.28300         0.33600        -0.17900
|100>    H        3.72000         3.63200        -1.96700
|101> *
|102> 
|103>                          ****END OF INPUT****
================================================================================

                       ****************************
                       * Single Point Calculation *
                       ****************************

---------------------------------
CARTESIAN COORDINATES (ANGSTROEM)
---------------------------------
  C     -4.735000    5.347000   -0.668000
  C      1.474000    4.041000    0.057000
  C     -2.802000    4.093000    0.049000
  C     -2.434000    5.202000    0.826000
  C     -3.222000    6.336000    0.834000
  C     -5.195000    7.614000    0.151000
  C      0.132000    4.307000    0.061000
  C     -0.569000    3.056000    0.047000
  C      1.649000    2.618000    0.023000
  C     -3.983000    4.189000   -0.703000
  N     -4.352000    6.399000    0.092000
  N      0.388000    2.067000    0.025000
  N     -2.010000    0.395000   -0.075000
  N     -0.388000   -2.074000   -0.027000
  N      2.010000   -0.401000    0.065000
  C     -1.960000    2.861000    0.024000
  C     -2.623000    1.615000   -0.018000
  C     -5.573000   -4.329000    1.066000
  C     -4.073000    1.471000    0.056000
  C     -4.106000   -2.756000   -0.026000
  C     -4.995000   -2.757000   -1.111000
  C     -6.132000   -3.542000   -1.076000
  C     -7.651000   -5.113000    0.040000
  C     -4.324000    0.141000    0.037000
  C     -3.025000   -0.520000   -0.048000
  C     -4.422000   -3.566000    1.075000
  N     -6.407000   -4.313000    0.001000
  C     -2.867000   -1.922000   -0.040000
  C     -1.650000   -2.624000   -0.027000
  C      3.568000   -6.142000   -1.040000
  C     -1.476000   -4.049000   -0.034000
  C      2.803000   -4.099000   -0.008000
  C      3.657000   -4.384000    1.069000
  C      4.427000   -5.530000    1.059000
  C      5.245000   -7.588000    0.014000
  C     -0.134000   -4.315000   -0.022000
  C      0.568000   -3.064000   -0.027000
  C      2.775000   -5.012000   -1.074000
  N      4.376000   -6.391000    0.017000
  C      1.959000   -2.869000   -0.009000
  C      2.621000   -1.622000    0.009000
  C      5.543000    4.339000   -1.130000
  C      4.070000   -1.479000   -0.094000
  C      4.104000    2.751000   -0.021000
  C      5.027000    2.729000    1.036000
  C      6.166000    3.509000    0.978000
  C      7.619000    5.153000   -0.115000
  C      4.321000   -0.148000   -0.092000
  C      3.025000    0.514000    0.015000
  C      4.387000    3.582000   -1.115000
  C      2.866000    1.916000    0.013000
  N      6.413000    4.296000   -0.095000
  H     -5.646000    5.470000   -1.241000
  H      2.274000    4.766000    0.081000
  H     -1.539000    5.185000    1.436000
  H     -2.984000    7.212000    1.423000
  H     -5.880000    7.530000    0.997000
  H     -4.549000    8.483000    0.275000
  H     -5.757000    7.696000   -0.779000
  H     -0.332000    5.282000    0.069000
  H     -4.313000    3.372000   -1.334000
  H      0.182000    1.072000    0.005000
  H     -0.183000   -1.080000   -0.021000
  H     -5.864000   -4.962000    1.895000
  H     -4.794000    2.272000    0.139000
  H     -4.800000   -2.160000   -1.994000
  H     -6.841000   -3.582000   -1.893000
  H     -8.428000   -4.536000    0.546000
  H     -7.956000   -5.337000   -0.981000
  H     -7.456000   -6.037000    0.584000
  H     -5.287000   -0.344000    0.100000
  H     -3.780000   -3.601000    1.947000
  H      3.587000   -6.868000   -1.843000
  H     -2.276000   -4.774000   -0.050000
  H      3.714000   -3.724000    1.926000
  H      5.092000   -5.795000    1.871000
  H      6.205000   -7.329000   -0.439000
  H      5.393000   -7.917000    1.042000
  H      4.759000   -8.373000   -0.564000
  H      0.329000   -5.290000   -0.008000
  H      2.146000   -4.842000   -1.940000
  H      5.808000    4.986000   -1.956000
  H      4.788000   -2.281000   -0.185000
  H      4.860000    2.114000    1.912000
  H      6.901000    3.531000    1.772000
  H      7.383000    6.109000    0.356000
  H      8.414000    4.652000    0.435000
  H      7.921000    5.310000   -1.150000
  H      5.283000    0.336000   -0.179000
  H      3.720000    3.632000   -1.967000

----------------------------
CARTESIAN COORDINATES (A.U.)
----------------------------
  NO LB      ZA    FRAG     MASS         X           Y           Z
   0 C     6.0000    0    12.011   -8.947853   10.104366   -1.262337
   1 C     6.0000    0    12.011    2.785456    7.636383    0.107714
   2 C     6.0000    0    12.011   -5.295013    7.734649    0.092597
   3 C     6.0000    0    12.011   -4.599593    9.830355    1.560914
   4 C     6.0000    0    12.011   -6.088698   11.973305    1.576032
   5 C     6.0000    0    12.011   -9.817127   14.388375    0.285349
   6 C     6.0000    0    12.011    0.249444    8.139050    0.115273
   7 C     6.0000    0    12.011   -1.075254    5.775003    0.088817
   8 C     6.0000    0    12.011    3.116158    4.947303    0.043464
   9 C     6.0000    0    12.011   -7.526779    7.916063   -1.328477
  10 N     7.0000    0    14.007   -8.224088   12.092358    0.173855
  11 N     7.0000    0    14.007    0.733214    3.906064    0.047243
  12 N     7.0000    0    14.007   -3.798350    0.746442   -0.141729
  13 N     7.0000    0    14.007   -0.733214   -3.919292   -0.051023
  14 N     7.0000    0    14.007    3.798350   -0.757780    0.122832
  15 C     6.0000    0    12.011   -3.703863    5.406506    0.045353
  16 C     6.0000    0    12.011   -4.956752    3.051908   -0.034015
  17 C     6.0000    0    12.011  -10.531444   -8.180624    2.014448
  18 C     6.0000    0    12.011   -7.696855    2.779787    0.105825
  19 C     6.0000    0    12.011   -7.759216   -5.208085   -0.049133
  20 C     6.0000    0    12.011   -9.439182   -5.209975   -2.099486
  21 C     6.0000    0    12.011  -11.587801   -6.693410   -2.033345
  22 C     6.0000    0    12.011  -14.458295   -9.662170    0.075589
  23 C     6.0000    0    12.011   -8.171176    0.266451    0.069920
  24 C     6.0000    0    12.011   -5.716422   -0.982658   -0.090707
  25 C     6.0000    0    12.011   -8.356369   -6.738763    2.031456
  26 N     7.0000    0    14.007  -12.107475   -8.150389    0.001890
  27 C     6.0000    0    12.011   -5.417845   -3.632054   -0.075589
  28 C     6.0000    0    12.011   -3.118048   -4.958641   -0.051023
  29 C     6.0000    0    12.011    6.742543  -11.606698   -1.965315
  30 C     6.0000    0    12.011   -2.789236   -7.651501   -0.064251
  31 C     6.0000    0    12.011    5.296902   -7.745987   -0.015118
  32 C     6.0000    0    12.011    6.910728   -8.284559    2.020117
  33 C     6.0000    0    12.011    8.365818  -10.450186    2.001220
  34 C     6.0000    0    12.011    9.911614  -14.339242    0.026456
  35 C     6.0000    0    12.011   -0.253223   -8.154168   -0.041574
  36 C     6.0000    0    12.011    1.073364   -5.790121   -0.051023
  37 C     6.0000    0    12.011    5.243990   -9.471307   -2.029566
  38 N     7.0000    0    14.007    8.269442  -12.077240    0.032125
  39 C     6.0000    0    12.011    3.701973   -5.421624   -0.017008
  40 C     6.0000    0    12.011    4.952972   -3.065136    0.017008
  41 C     6.0000    0    12.011   10.474752    8.199522   -2.135391
  42 C     6.0000    0    12.011    7.691185   -2.794905   -0.177634
  43 C     6.0000    0    12.011    7.755436    5.198637   -0.039684
  44 C     6.0000    0    12.011    9.499653    5.157063    1.957756
  45 C     6.0000    0    12.011   11.652051    6.631049    1.848152
  46 C     6.0000    0    12.011   14.397823    9.737759   -0.217319
  47 C     6.0000    0    12.011    8.165507   -0.279679   -0.173855
  48 C     6.0000    0    12.011    5.716422    0.971319    0.028346
  49 C     6.0000    0    12.011    8.290229    6.768999   -2.107045
  50 C     6.0000    0    12.011    5.415955    3.620715    0.024566
  51 N     7.0000    0    14.007   12.118814    8.118263   -0.179524
  52 H     1.0000    0     1.008  -10.669394   10.336802   -2.345150
  53 H     1.0000    0     1.008    4.297237    9.006435    0.153068
  54 H     1.0000    0     1.008   -2.908289    9.798230    2.713647
  55 H     1.0000    0     1.008   -5.638943   13.628705    2.689080
  56 H     1.0000    0     1.008  -11.111590   14.229638    1.884057
  57 H     1.0000    0     1.008   -8.596364   16.030547    0.519675
  58 H     1.0000    0     1.008  -10.879153   14.543332   -1.472097
  59 H     1.0000    0     1.008   -0.627389    9.981533    0.130391
  60 H     1.0000    0     1.008   -8.150389    6.372157   -2.520895
  61 H     1.0000    0     1.008    0.343930    2.025786    0.009449
  62 H     1.0000    0     1.008   -0.345820   -2.040904   -0.039684
  63 H     1.0000    0     1.008  -11.081354   -9.376821    3.581031
  64 H     1.0000    0     1.008   -9.059347    4.293458    0.262672
  65 H     1.0000    0     1.008   -9.070685   -4.081808   -3.768114
  66 H     1.0000    0     1.008  -12.927616   -6.768999   -3.577252
  67 H     1.0000    0     1.008  -15.926612   -8.571798    1.031790
  68 H     1.0000    0     1.008  -15.034661  -10.085468   -1.853821
  69 H     1.0000    0     1.008  -14.089798  -11.408277    1.103600
  70 H     1.0000    0     1.008   -9.990982   -0.650066    0.188973
  71 H     1.0000    0     1.008   -7.143165   -6.804904    3.679297
  72 H     1.0000    0     1.008    6.778448  -12.978639   -3.482765
  73 H     1.0000    0     1.008   -4.301017   -9.021553   -0.094486
  74 H     1.0000    0     1.008    7.018443   -7.037340    3.639613
  75 H     1.0000    0     1.008    9.622485  -10.950963    3.535678
  76 H     1.0000    0     1.008   11.725751  -13.849803   -0.829590
  77 H     1.0000    0     1.008   10.191293  -14.960962    1.969095
  78 H     1.0000    0     1.008    8.993207  -15.822677   -1.065806
  79 H     1.0000    0     1.008    0.621720   -9.996651   -0.015118
  80 H     1.0000    0     1.008    4.055352   -9.150054   -3.666069
  81 H     1.0000    0     1.008   10.975529    9.422175   -3.696304
  82 H     1.0000    0     1.008    9.048009   -4.310465   -0.349599
  83 H     1.0000    0     1.008    9.184069    3.994881    3.613156
  84 H     1.0000    0     1.008   13.041000    6.672623    3.348595
  85 H     1.0000    0     1.008   13.951848   11.544337    0.672743
  86 H     1.0000    0     1.008   15.900156    8.791006    0.822031
  87 H     1.0000    0     1.008   14.968521   10.034446   -2.173185
  88 H     1.0000    0     1.008    9.983423    0.634948   -0.338261
  89 H     1.0000    0     1.008    7.029781    6.863485   -3.717091

--------------------------------
INTERNAL COORDINATES (ANGSTROEM)
--------------------------------
 C      0   0   0     0.000000000000     0.00000000     0.00000000
 C      1   0   0     6.386152362730     0.00000000     0.00000000
 C      1   2   0     2.413108783292    23.24498777     0.00000000
 C      3   1   2     1.403222719314    87.93127882    61.30316625
 C      4   3   1     1.380928673031   120.16958559     0.15923324
 C      5   4   3     2.447958741482   152.50038679     1.59774486
 C      2   1   3     1.368114030335     6.71923600   305.16516530
 C      7   2   4     1.434084376876   108.05010202   242.76475544
 C      2   1   3     1.434123425651   108.59448431    33.10231455
 C      1   2   7     1.381192600617    45.73842942   267.25893504
 N      1   2   7     1.353141899433    79.63234094    62.08309120
 N      9   2   1     1.376127174356   106.58526707   352.16641890
 N     12   9   2     2.925062050624   168.53581413   171.12065651
 N     13  12   9     2.954513327098    91.55032014    11.12112580
 N     14  13  12     2.925371258490    88.43092389   359.84326247
 C      8   7   2     1.404790019896   127.24786865   181.11170171
 C     13  12   9     1.366535034311    81.72106996   188.00453233
 C     14  13  12     5.758810554272    80.56209567   166.76250791
 C     17  13  12     1.459010623676   111.08861209   183.82872609
 C     18  14  13     2.412235892279    27.27532823    36.33507194
 C     20  18  14     1.402692767501    87.95206320   148.94598259
 C     21  20  18     1.382106725257   120.14573887   359.70382047
 C     18  14  13     2.446510985056   144.15733107    82.80075377
 C     19  17  13     1.353610726908   106.29293361   359.75308708
 C     13  12   9     1.366813447402   172.21332906    33.46711076
 C     18  14  13     1.380960173213    15.08449437   309.23336894
 N     22  21  20     1.352773077792   120.73759875     0.27865223
 C     25  13  17     1.410897586645   125.60330303   182.37774668
 C     14  13  12     1.376642291955    80.24689249   177.85461986
 C     14  13  12     5.764089607215   164.51507311   312.20821879
 C     29  14  13     1.435600919476   106.58649366   178.76395472
 C     30  14  13     2.413316804732    27.10625047    82.12560436
 C     32  30  14     1.403734305344    87.90059683   149.76154742
 C     33  32  30     1.380694028378   120.14881443   359.74174632
 C     34  33  32     2.448777858443   152.49203239     2.45173620
 C     31  29  14     1.368160809262   108.16950133     0.70383075
 C     14  13  12     1.376239804685   169.26375223   353.09862627
 C     30  14  13     1.380907310430    14.68948582   353.70041132
 N     34  33  32     1.352658863128   120.85575621     0.19603406
 C     37  14  29     1.404717053360   126.01551127   180.90772073
 C     15  14  13     1.366491126938    81.61824056   183.09049352
 C      2   1   3     4.249062720177   152.25170131   154.25878443
 C     41  15  14     1.459677704153   111.05201287   175.08990246
 C     42   2   1     2.412953791518    41.78584867   210.67368495
 C     44  42   2     1.403446472082    87.95153797   233.97558675
 C     45  44  42     1.381696421071   120.11137308     0.19721020
 C     42   2   1     2.450019795838   135.97209175   120.98853405
 C     43  41  15     1.354461516618   106.26758155     0.30894352
 C     15  14  13     1.367461151185   171.87382904   332.35056460
 C     42   2   1     1.381886391857    32.59078432   259.52896414
 C      9   2   1     1.404988612053   126.98745415   173.17075643
 N     42   2   1     1.352765315936   113.57249190   148.72512325
 H      1   2   7     1.083226199831   154.28336475   193.92391244
 H      2   1   3     1.079907866440   125.83703864   206.30586968
 H      4   3   1     1.083242355154   121.07054113   179.51661831
 H      5   4   3     1.082100272618   122.84907920   179.47359307
 H      6   5   4     1.091786151222   104.43706747   100.06935641
 H      6   5   4     1.089886691358    84.65204323   209.56746011
 H      6   5   4     1.089710053179   133.87369602   322.37243255
 H      7   2  54     1.079807853278   126.66122480     1.30600390
 H     10   1   2     1.083766580035   118.75102765   210.01161207
 H     12   9   2     1.016297692608   125.29023241   180.00180175
 H     14  13  12     1.014936943854    44.97226959   359.42596618
 H     18  14  13     1.082871645210   128.03556573   234.20482432
 H     19  17  13     1.080893611786   126.41830519   178.11313280
 H     21  20  18     1.083569563987   121.05669627   180.67006309
 H     22  21  20     1.082483256222   122.73097286   180.59748951
 H     23  18  14     1.092105306278   103.92715769   234.93429879
 H     23  18  14     1.088871893291   134.19244188    12.25587044
 H     23  18  14     1.089833473518    84.85857450   125.45241208
 H     24  19  17     1.080075460327   127.28078426   178.44613241
 H     26  18  14     1.083408048706   118.76995697   244.94906660
 H     30  14  13     1.082703098730   127.99711412   279.66882698
 H     31  29  14     1.079759695488   125.22293469   180.92530585
 H     33  32  30     1.083188810873   121.01964473   180.74284758
 H     34  33  32     1.082494341787   122.70821597   180.59516895
 H     35  34  33     1.092652735319   105.73575241    97.19771933
 H     35  34  33     1.089462711615    84.05943581   206.43036958
 H     35  34  33     1.089268102902   133.08365142   318.50306270
 H     36  31  29     1.079439669458   126.61599965   178.98859863
 H     38  30  73     1.083742127999   118.77264435   359.90091293
 H     42   2   1     1.082178358682   119.31790784     5.35665370
 H     43  41  15     1.080281907652   126.36969097   182.06329380
 H     45  44  42     1.083277434455   121.10105945   179.58025624
 H     46  45  44     1.082194529648   122.72144639   179.46906377
 H     47  42   2     1.091546151109   106.65128841   315.16475048
 H     47  42   2     1.088818625851   132.46019523    94.52397119
 H     47  42   2     1.089531091801    83.63838232   206.04504406
 H     48  43  41     1.080402239909   127.23657387   181.62955349
 H     50  42   2     1.083186502870   118.77001737    94.71359229

---------------------------
INTERNAL COORDINATES (A.U.)
---------------------------
 C      0   0   0     0.000000000000     0.00000000     0.00000000
 C      1   0   0    12.068079015054     0.00000000     0.00000000
 C      1   2   0     4.560114731781    23.24498777     0.00000000
 C      3   1   2     2.651706644400    87.93127882    61.30316625
 C      4   3   1     2.609577002508   120.16958559     0.15923324
 C      5   4   3     4.625971608540   152.50038679     1.59774486
 C      2   1   3     2.585360837309     6.71923600   305.16516530
 C      7   2   4     2.710026725231   108.05010202   242.76475544
 C      2   1   3     2.710100516721   108.59448431    33.10231455
 C      1   2   7     2.610075753365    45.73842942   267.25893504
 N      1   2   7     2.557067610262    79.63234094    62.08309120
 N      9   2   1     2.600503484979   106.58526707   352.16641890
 N     12   9   2     5.527566200405   168.53581413   171.12065651
 N     13  12   9     5.583221047236    91.55032014    11.12112580
 N     14  13  12     5.528150518591    88.43092389   359.84326247
 C      8   7   2     2.654668413270   127.24786865   181.11170171
 C     13  12   9     2.582376967257    81.72106996   188.00453233
 C     14  13  12    10.882574804710    80.56209567   166.76250791
 C     17  13  12     2.757130505230   111.08861209   183.82872609
 C     18  14  13     4.558465206823    27.27532823    36.33507194
 C     20  18  14     2.650705180609    87.95206320   148.94598259
 C     21  20  18     2.611803198586   120.14573887   359.70382047
 C     18  14  13     4.623235745386   144.15733107    82.80075377
 C     19  17  13     2.557953565794   106.29293361   359.75308708
 C     13  12   9     2.582903091751   172.21332906    33.46711076
 C     18  14  13     2.609636529225    15.08449437   309.23336894
 N     22  21  20     2.556370638369   120.73759875     0.27865223
 C     25  13  17     2.666210041769   125.60330303   182.37774668
 C     14  13  12     2.601476916169    80.24689249   177.85461986
 C     14  13  12    10.892550769017   164.51507311   312.20821879
 C     29  14  13     2.712892575415   106.58649366   178.76395472
 C     30  14  13     4.560507835333    27.10625047    82.12560436
 C     32  30  14     2.652673401891    87.90059683   149.76154742
 C     33  32  30     2.609133588376   120.14881443   359.74174632
 C     34  33  32     4.627519515267   152.49203239     2.45173620
 C     31  29  14     2.585449236669   108.16950133     0.70383075
 C     14  13  12     2.600716325456   169.26375223   353.09862627
 C     30  14  13     2.609536633043    14.68948582   353.70041132
 N     34  33  32     2.556154803934   120.85575621     0.19603406
 C     37  14  29     2.654530526499   126.01551127   180.90772073
 C     15  14  13     2.582293994346    81.61824056   183.09049352
 C      2   1   3     8.029564866989   152.25170131   154.25878443
 C     41  15  14     2.758391104639   111.05201287   175.08990246
 C     42   2   1     4.559821839776    41.78584867   210.67368495
 C     44  42   2     2.652129475853    87.95153797   233.97558675
 C     45  44  42     2.611027836043   120.11137308     0.19721020
 C     42   2   1     4.629866436820   135.97209175   120.98853405
 C     43  41  15     2.559561325344   106.26758155     0.30894352
 C     15  14  13     2.584127074516   171.87382904   332.35056460
 C     42   2   1     2.611386828803    32.59078432   259.52896414
 C      9   2   1     2.655043698059   126.98745415   173.17075643
 N     42   2   1     2.556355970587   113.57249190   148.72512325
 H      1   2   7     2.047000858769   154.28336475   193.92391244
 H      2   1   3     2.040730117440   125.83703864   206.30586968
 H      4   3   1     2.047031387905   121.07054113   179.51661831
 H      5   4   3     2.044873164690   122.84907920   179.47359307
 H      6   5   4     2.063176822617   104.43706747   100.06935641
 H      6   5   4     2.059587363673    84.65204323   209.56746011
 H      6   5   4     2.059253565890   133.87369602   322.37243255
 H      7   2  54     2.040541119952   126.66122480     1.30600390
 H     10   1   2     2.048022029362   118.75102765   210.01161207
 H     12   9   2     1.920524309565   125.29023241   180.00180175
 H     14  13  12     1.917952867083    44.97226959   359.42596618
 H     18  14  13     2.046330847636   128.03556573   234.20482432
 H     19  17  13     2.042592906181   126.41830519   178.11313280
 H     21  20  18     2.047649722989   121.05669627   180.67006309
 H     22  21  20     2.045596898814   122.73097286   180.59748951
 H     23  18  14     2.063779938267   103.92715769   234.93429879
 H     23  18  14     2.057669673245   134.19244188    12.25587044
 H     23  18  14     2.059486796529    84.85857450   125.45241208
 H     24  19  17     2.041046823986   127.28078426   178.44613241
 H     26  18  14     2.047344503340   118.76995697   244.94906660
 H     30  14  13     2.046012340948   127.99711412   279.66882698
 H     31  29  14     2.040450114918   125.22293469   180.92530585
 H     33  32  30     2.046930203877   121.01964473   180.74284758
 H     34  33  32     2.045617847496   122.70821597   180.59516895
 H     35  34  33     2.064814429233   105.73575241    97.19771933
 H     35  34  33     2.058786158072    84.05943581   206.43036958
 H     35  34  33     2.058418400901   133.08365142   318.50306270
 H     36  31  29     2.039845353366   126.61599965   178.98859863
 H     38  30  73     2.047975821711   118.77264435   359.90091293
 H     42   2   1     2.045020725966   119.31790784     5.35665370
 H     43  41  15     2.041436952892   126.36969097   182.06329380
 H     45  44  42     2.047097678177   121.10105945   179.58025624
 H     46  45  44     2.045051284662   122.72144639   179.46906377
 H     47  42   2     2.062723288131   106.65128841   315.16475048
 H     47  42   2     2.057569012371   132.46019523    94.52397119
 H     47  42   2     2.058915377895    83.63838232   206.04504406
 H     48  43  41     2.041664347903   127.23657387   181.62955349
 H     50  42   2     2.046925842384   118.77001737    94.71359229

---------------------
BASIS SET INFORMATION
---------------------
There are 3 groups of distinct atoms

 Group   1 Type C   : 17s4p1d contracted to 3s2p1d pattern {881/31/1}
 Group   2 Type N   : 17s4p1d contracted to 3s2p1d pattern {881/31/1}
 Group   3 Type H   : 4s1p contracted to 2s1p pattern {31/1}

Atom   0C    basis set group =>   1
Atom   1N    basis set group =>   2
Atom   2C    basis set group =>   1
Atom   3N    basis set group =>   2
Atom   4C    basis set group =>   1
Atom   5N    basis set group =>   2
Atom   6C    basis set group =>   1
Atom   7N    basis set group =>   2
Atom   8C    basis set group =>   1
Atom   9N    basis set group =>   2
Atom  10C    basis set group =>   1
Atom  11N    basis set group =>   2
Atom  12C    basis set group =>   1
Atom  13N    basis set group =>   2
Atom  14C    basis set group =>   1
Atom  15N    basis set group =>   2
Atom  16C    basis set group =>   1
Atom  17C    basis set group =>   1
Atom  18C    basis set group =>   1
Atom  19C    basis set group =>   1
Atom  20C    basis set group =>   1
Atom  21C    basis set group =>   1
Atom  22C    basis set group =>   1
Atom  23C    basis set group =>   1
Atom  24C    basis set group =>   1
Atom  25C    basis set group =>   1
Atom  26C    basis set group =>   1
Atom  27C    basis set group =>   1
Atom  28C    basis set group =>   1
Atom  29C    basis set group =>   1
Atom  30C    basis set group =>   1
Atom  31C    basis set group =>   1
Atom  32C    basis set group =>   1
Atom  33C    basis set group =>   1
Atom  34C    basis set group =>   1
Atom  35C    basis set group =>   1
Atom  36C    basis set group =>   1
Atom  37C    basis set group =>   1
Atom  38C    basis set group =>   1
Atom  39C    basis set group =>   1
Atom  40C    basis set group =>   1
Atom  41C    basis set group =>   1
Atom  42C    basis set group =>   1
Atom  43C    basis set group =>   1
Atom  44C    basis set group =>   1
Atom  45C    basis set group =>   1
Atom  46C    basis set group =>   1
Atom  47C    basis set group =>   1
Atom  48C    basis set group =>   1
Atom  49C    basis set group =>   1
Atom  50C    basis set group =>   1
Atom  51C    basis set group =>   1
Atom  52H    basis set group =>   3
Atom  53H    basis set group =>   3
Atom  54H    basis set group =>   3
Atom  55H    basis set group =>   3
Atom  56H    basis set group =>   3
Atom  57H    basis set group =>   3
Atom  58H    basis set group =>   3
Atom  59H    basis set group =>   3
Atom  60H    basis set group =>   3
Atom  61H    basis set group =>   3
Atom  62H    basis set group =>   3
Atom  63H    basis set group =>   3
Atom  64H    basis set group =>   3
Atom  65H    basis set group =>   3
Atom  66H    basis set group =>   3
Atom  67H    basis set group =>   3
Atom  68H    basis set group =>   3
Atom  69H    basis set group =>   3
Atom  70H    basis set group =>   3
Atom  71H    basis set group =>   3
Atom  72H    basis set group =>   3
Atom  73H    basis set group =>   3
Atom  74H    basis set group =>   3
Atom  75H    basis set group =>   3
Atom  76H    basis set group =>   3
Atom  77H    basis set group =>   3
Atom  78H    basis set group =>   3
Atom  79H    basis set group =>   3
Atom  80H    basis set group =>   3
Atom  81H    basis set group =>   3
Atom  82H    basis set group =>   3
Atom  83H    basis set group =>   3
Atom  84H    basis set group =>   3
Atom  85H    basis set group =>   3
Atom  86H    basis set group =>   3
Atom  87H    basis set group =>   3
Atom  88H    basis set group =>   3
Atom  89H    basis set group =>   3


           ************************************************************
           *        Program running with 16 parallel MPI-processes    *
           *              working on a common directory               *
           ************************************************************
------------------------------------------------------------------------------
                           ORCA GTO INTEGRAL CALCULATION
------------------------------------------------------------------------------
------------------------------------------------------------------------------
                   ___                                                        
                  /   \      - P O W E R E D   B Y -                         
                 /     \                                                     
                 |  |  |   _    _      __       _____    __    __             
                 |  |  |  | |  | |    /  \     |  _  \  |  |  /  |          
                  \  \/   | |  | |   /    \    | | | |  |  | /  /          
                 / \  \   | |__| |  /  /\  \   | |_| |  |  |/  /          
                |  |  |   |  __  | /  /__\  \  |    /   |      \           
                |  |  |   | |  | | |   __   |  |    \   |  |\   \          
                \     /   | |  | | |  |  |  |  | |\  \  |  | \   \       
                 \___/    |_|  |_| |__|  |__|  |_| \__\ |__|  \__/        
                                                                              
                      - O R C A' S   B I G   F R I E N D -                    
                                      &                                       
                       - I N T E G R A L  F E E D E R -                       
                                                                              
 v1 FN, 2020, v2 2021                                                         
------------------------------------------------------------------------------


Reading SHARK input file /scratch/allen/tmpyp4_amber_gaff2/conf1/conf1/Conf142.orca.SHARKINP.tmp ... ok
----------------------
SHARK INTEGRAL PACKAGE
----------------------

Number of atoms                             ...     90
Number of basis functions                   ...   1230
Number of shells                            ...    738
Maximum angular momentum                    ...      2
Integral batch strategy                     ... SHARK/LIBINT Hybrid
RI-J (if used) integral strategy            ... SPLIT-RIJ (Revised 2003 algorithm where possible)
Printlevel                                  ...      1
Contraction scheme used                     ... PARTIAL GENERAL contraction
Coulomb Range Separation                    ... NOT USED
Exchange Range Separation                   ... NOT USED
Finite Nucleus Model                        ... NOT USED
Auxiliary Coulomb fitting basis             ... NOT available
Auxiliary J/K fitting basis                 ... NOT available
Auxiliary Correlation fitting basis         ... NOT available
Auxiliary 'external' fitting basis          ... NOT available
Integral threshold                          ...     2.500000e-11
Primitive cut-off                           ...     2.500000e-12
Primitive pair pre-selection threshold      ...     2.500000e-12

Calculating pre-screening integrals         ... done (  0.1 sec) Dimension = 738
Calculating pre-screening integrals (ORCA)  ... done (  0.3 sec) Dimension = 426
Organizing shell pair data                  ... done (  0.7 sec)
Shell pair information
Total number of shell pairs                 ...    272691
Shell pairs after pre-screening             ...     71638
Total number of primitive shell pairs       ...    422091
Primitive shell pairs kept                  ...     92441
          la=0 lb=0:  29409 shell pairs
          la=1 lb=0:  25993 shell pairs
          la=1 lb=1:   4705 shell pairs
          la=2 lb=0:   7879 shell pairs
          la=2 lb=1:   3122 shell pairs
          la=2 lb=2:    530 shell pairs

Calculating one electron integrals          ... done (  0.2 sec)
Calculating Nuclear repulsion               ... done (  0.0 sec) ENN=   6229.185970841824 Eh

SHARK setup successfully completed in   2.7 seconds

Maximum memory used throughout the entire GTOINT-calculation: 99.0 MB


           ************************************************************
           *        Program running with 16 parallel MPI-processes    *
           *              working on a common directory               *
           ************************************************************
-------------------------------------------------------------------------------
                                 ORCA SCF
-------------------------------------------------------------------------------

------------
SCF SETTINGS
------------
Hamiltonian:
 Ab initio Hamiltonian  Method          .... Hartree-Fock(GTOs)


General Settings:
 Integral files         IntName         .... /scratch/allen/tmpyp4_amber_gaff2/conf1/conf1/Conf142.orca
 Hartree-Fock type      HFTyp           .... RHF
 Total Charge           Charge          ....    0
 Multiplicity           Mult            ....    1
 Number of Electrons    NEL             ....  358
 Basis Dimension        Dim             ....  918
 Nuclear Repulsion      ENuc            ....   6229.1859708418 Eh

Convergence Acceleration:
 DIIS                   CNVDIIS         .... on
   Start iteration      DIISMaxIt       ....    12
   Startup error        DIISStart       ....  0.200000
   # of expansion vecs  DIISMaxEq       ....     5
   Bias factor          DIISBfac        ....   1.050
   Max. coefficient     DIISMaxC        ....  10.000
 Trust-Rad. Augm. Hess. CNVTRAH         .... auto
   Auto Start mean grad. ratio tolernc. ....  1.125000
   Auto Start start iteration           ....    20
   Auto Start num. interpolation iter.  ....    10
   Max. Number of Micro iterations      ....    16
   Max. Number of Macro iterations      .... Maxiter - #DIIS iter
   Number of Davidson start vectors     ....     2
   Converg. threshold I  (grad. norm)   ....   1.000e-05
   Converg. threshold II (energy diff.) ....   1.000e-08
   Grad. Scal. Fac. for Micro threshold ....   0.100
   Minimum threshold for Micro iter.    ....   0.010
   NR start threshold (gradient norm)   ....   0.001
   Initial trust radius                 ....   0.400
   Minimum AH scaling param. (alpha)    ....   1.000
   Maximum AH scaling param. (alpha)    .... 1000.000
   Orbital update algorithm             .... Taylor
   White noise on init. David. guess    .... on
   Maximum white noise                  ....   0.010
   Quad. conv. algorithm                .... NR
 SOSCF                  CNVSOSCF        .... on
   Start iteration      SOSCFMaxIt      ....   150
   Startup grad/error   SOSCFStart      ....  0.003300
 Level Shifting         CNVShift        .... on
   Level shift para.    LevelShift      ....    0.2500
   Turn off err/grad.   ShiftErr        ....    0.0010
 Zerner damping         CNVZerner       .... off
 Static damping         CNVDamp         .... on
   Fraction old density DampFac         ....    0.7000
   Max. Damping (<1)    DampMax         ....    0.9800
   Min. Damping (>=0)   DampMin         ....    0.0000
   Turn off err/grad.   DampErr         ....    0.1000
 Fernandez-Rico         CNVRico         .... off

SCF Procedure:
 Maximum # iterations   MaxIter         ....   125
 SCF integral mode      SCFMode         .... Direct
   Integral package                     .... SHARK and LIBINT hybrid scheme
 Reset frequency        DirectResetFreq ....    20
 Integral Threshold     Thresh          ....  2.500e-11 Eh
 Primitive CutOff       TCut            ....  2.500e-12 Eh

Convergence Tolerance:
 Convergence Check Mode ConvCheckMode   .... Total+1el-Energy
 Convergence forced     ConvForced      .... 1
 Energy Change          TolE            ....  1.000e-08 Eh
 1-El. energy change                    ....  1.000e-05 Eh
 Orbital Gradient       TolG            ....  1.000e-05
 Orbital Rotation angle TolX            ....  1.000e-05
 DIIS Error             TolErr          ....  5.000e-07


Diagonalization of the overlap matrix:
Smallest eigenvalue                        ... 2.228e-04
Time for diagonalization                   ...    0.633 sec
Threshold for overlap eigenvalues          ... 1.000e-08
Number of eigenvalues below threshold      ... 0
Time for construction of square roots      ...    0.271 sec
Total time needed                          ...    0.911 sec

Time for model grid setup =    1.316 sec

------------------------------
INITIAL GUESS: MODEL POTENTIAL
------------------------------
Loading Hartree-Fock densities                     ... done
Calculating cut-offs                               ... done
Initializing the effective Hamiltonian             ... done
Setting up the integral package (SHARK)            ... done
Starting the Coulomb interaction                   ... done (   1.4 sec)
Reading the grid                                   ... done
Mapping shells                                     ... done
Starting the XC term evaluation                    ... done (   0.2 sec)
Transforming the Hamiltonian                       ... done (   0.3 sec)
Diagonalizing the Hamiltonian                      ... done (   0.4 sec)
Back transforming the eigenvectors                 ... done (   0.1 sec)
Now organizing SCF variables                       ... done
                      ------------------
                      INITIAL GUESS DONE (   3.8 sec)
                      ------------------
--------------
SCF ITERATIONS
--------------
ITER       Energy         Delta-E        Max-DP      RMS-DP      [F,P]     Damp
               ***  Starting incremental Fock matrix formation  ***
  0  -2121.6959918368   0.000000000000 0.07103274  0.00120895  0.2323126 0.7000
  1  -2122.3529805595  -0.656988722778 0.05351242  0.00098250  0.1438794 0.7000
                               ***Turning on DIIS***
  2  -2122.7613219470  -0.408341387503 0.12472449  0.00223079  0.0802425 0.0000
  3  -2117.8985786254   4.862743321644 0.03017588  0.00066924  0.0439812 0.0000
  4  -2123.4344948197  -5.535916194312 0.00934631  0.00022499  0.0073361 0.0000
  5  -2123.5966873268  -0.162192507081 0.00518192  0.00013243  0.0049973 0.0000
  6  -2123.5799032811   0.016784045698 0.00355140  0.00008523  0.0019633 0.0000
  7  -2123.6792590187  -0.099355737651 0.00302173  0.00006695  0.0015597 0.0000
  8  -2123.6913075747  -0.012048555996 0.00318089  0.00006285  0.0014489 0.0000
  9  -2123.6598468129   0.031460761847 0.00254502  0.00004362  0.0011543 0.0000
 10  -2123.6699318115  -0.010084998587 0.00515460  0.00008955  0.0008891 0.0000
                      *** Initiating the SOSCF procedure ***
                           *** Shutting down DIIS ***
                      *** Re-Reading the Fockian *** 
                      *** Removing any level shift *** 
ITER      Energy       Delta-E        Grad      Rot      Max-DP    RMS-DP
 11  -2123.55999987   0.1099319383  0.000204  0.000204  0.000249  0.000005
               *** Restarting incremental Fock matrix formation ***
 12  -2123.62553301  -0.0655331380  0.000843  0.005658  0.001318  0.000032
 13  -2123.62562570  -0.0000926897  0.001019  0.028214  0.006310  0.000127
 14  -2123.62578467  -0.0001589672  0.000355  0.002040  0.000570  0.000012
 15  -2123.62580050  -0.0000158278  0.000169  0.003640  0.000867  0.000019
 16  -2123.62581066  -0.0000101616  0.000167  0.003440  0.000548  0.000011
 17  -2123.62581406  -0.0000034048  0.000135  0.002247  0.000343  0.000008
 18  -2123.62581590  -0.0000018360  0.000075  0.000921  0.000314  0.000004
 19  -2123.62581671  -0.0000008166  0.000045  0.000547  0.000140  0.000003
 20  -2123.62581696  -0.0000002488  0.000023  0.000439  0.000096  0.000002
 21  -2123.62581709  -0.0000001282  0.000024  0.000282  0.000094  0.000002
 22  -2123.62581717  -0.0000000764  0.000014  0.000279  0.000084  0.000001
 23  -2123.62581721  -0.0000000460  0.000007  0.000175  0.000042  0.000001
 24  -2123.62581724  -0.0000000246  0.000004  0.000122  0.000028  0.000000
 25  -2123.62581725  -0.0000000091  0.000004  0.000092  0.000016  0.000000
 26  -2123.62581725  -0.0000000046  0.000003  0.000115  0.000017  0.000000
 27  -2123.62581726  -0.0000000033  0.000003  0.000126  0.000017  0.000000
                  ***Gradient check signals convergence***
              ***Rediagonalizing the Fockian in SOSCF/NRSCF***

               *****************************************************
               *                     SUCCESS                       *
               *           SCF CONVERGED AFTER  28 CYCLES          *
               *****************************************************


----------------
TOTAL SCF ENERGY
----------------

Total Energy       :        -2123.62581726 Eh          -57786.79631 eV

Components:
Nuclear Repulsion  :         6229.18597084 Eh          169504.76772 eV
Electronic Energy  :        -8352.81178810 Eh         -227291.56403 eV
One Electron Energy:       -15299.25272011 Eh         -416313.83150 eV
Two Electron Energy:         6946.44093201 Eh          189022.26747 eV

Virial components:
Potential Energy   :        -4245.70823946 Eh         -115531.59471 eV
Kinetic Energy     :         2122.08242220 Eh           57744.79840 eV
Virial Ratio       :            2.00072730


---------------
SCF CONVERGENCE
---------------

  Last Energy change         ...   -1.1078e-09  Tolerance :   1.0000e-08
  Last MAX-Density change    ...    1.3319e-05  Tolerance :   1.0000e-07
  Last RMS-Density change    ...    3.4821e-07  Tolerance :   5.0000e-09
  Last Orbital Gradient      ...    2.2394e-06  Tolerance :   1.0000e-05
  Last Orbital Rotation      ...    1.1546e-04  Tolerance :   1.0000e-05

             **** THE GBW FILE WAS UPDATED (/scratch/allen/tmpyp4_amber_gaff2/conf1/conf1/Conf142.orca.gbw) ****
             **** DENSITY /scratch/allen/tmpyp4_amber_gaff2/conf1/conf1/Conf142.orca.scfp WAS UPDATED ****
             **** ENERGY FILE WAS UPDATED (/scratch/allen/tmpyp4_amber_gaff2/conf1/conf1/Conf142.orca.en.tmp) ****
             **** THE GBW FILE WAS UPDATED (/scratch/allen/tmpyp4_amber_gaff2/conf1/conf1/Conf142.orca.gbw) ****
             **** DENSITY /scratch/allen/tmpyp4_amber_gaff2/conf1/conf1/Conf142.orca.scfp WAS UPDATED ****
----------------
ORBITAL ENERGIES
----------------

  NO   OCC          E(Eh)            E(eV) 
   0   2.0000     -15.666920      -426.3186 
   1   2.0000     -15.638131      -425.5352 
   2   2.0000     -15.628529      -425.2739 
   3   2.0000     -15.594822      -424.3567 
   4   2.0000     -15.524293      -422.4375 
   5   2.0000     -15.515899      -422.2091 
   6   2.0000     -15.450459      -420.4284 
   7   2.0000     -15.443291      -420.2333 
   8   2.0000     -11.319977      -308.0322 
   9   2.0000     -11.319219      -308.0116 
  10   2.0000     -11.316960      -307.9501 
  11   2.0000     -11.301894      -307.5402 
  12   2.0000     -11.296185      -307.3848 
  13   2.0000     -11.295736      -307.3726 
  14   2.0000     -11.291030      -307.2445 
  15   2.0000     -11.287628      -307.1520 
  16   2.0000     -11.284229      -307.0595 
  17   2.0000     -11.275957      -306.8344 
  18   2.0000     -11.269957      -306.6711 
  19   2.0000     -11.259636      -306.3903 
  20   2.0000     -11.259121      -306.3763 
  21   2.0000     -11.254334      -306.2460 
  22   2.0000     -11.253407      -306.2208 
  23   2.0000     -11.241724      -305.9029 
  24   2.0000     -11.234219      -305.6986 
  25   2.0000     -11.233647      -305.6831 
  26   2.0000     -11.233273      -305.6729 
  27   2.0000     -11.227143      -305.5061 
  28   2.0000     -11.226873      -305.4987 
  29   2.0000     -11.209100      -305.0151 
  30   2.0000     -11.207799      -304.9797 
  31   2.0000     -11.205005      -304.9037 
  32   2.0000     -11.199812      -304.7624 
  33   2.0000     -11.199300      -304.7485 
  34   2.0000     -11.190037      -304.4964 
  35   2.0000     -11.189609      -304.4847 
  36   2.0000     -11.185739      -304.3794 
  37   2.0000     -11.182127      -304.2812 
  38   2.0000     -11.181304      -304.2587 
  39   2.0000     -11.174451      -304.0723 
  40   2.0000     -11.170895      -303.9755 
  41   2.0000     -11.168213      -303.9025 
  42   2.0000     -11.167192      -303.8748 
  43   2.0000     -11.163285      -303.7684 
  44   2.0000     -11.162156      -303.7377 
  45   2.0000     -11.160162      -303.6834 
  46   2.0000     -11.155186      -303.5480 
  47   2.0000     -11.150732      -303.4268 
  48   2.0000     -11.148426      -303.3641 
  49   2.0000     -11.142842      -303.2121 
  50   2.0000     -11.135568      -303.0142 
  51   2.0000     -11.129025      -302.8362 
  52   2.0000      -1.349424       -36.7197 
  53   2.0000      -1.324805       -36.0498 
  54   2.0000      -1.316693       -35.8290 
  55   2.0000      -1.288504       -35.0620 
  56   2.0000      -1.224625       -33.3237 
  57   2.0000      -1.210574       -32.9414 
  58   2.0000      -1.168637       -31.8002 
  59   2.0000      -1.154211       -31.4077 
  60   2.0000      -1.134387       -30.8682 
  61   2.0000      -1.113183       -30.2912 
  62   2.0000      -1.106396       -30.1066 
  63   2.0000      -1.084101       -29.4999 
  64   2.0000      -1.071903       -29.1680 
  65   2.0000      -1.048822       -28.5399 
  66   2.0000      -1.041452       -28.3393 
  67   2.0000      -1.035231       -28.1701 
  68   2.0000      -1.016560       -27.6620 
  69   2.0000      -1.014424       -27.6039 
  70   2.0000      -1.009412       -27.4675 
  71   2.0000      -0.992657       -27.0116 
  72   2.0000      -0.987510       -26.8715 
  73   2.0000      -0.977945       -26.6112 
  74   2.0000      -0.972411       -26.4607 
  75   2.0000      -0.959373       -26.1059 
  76   2.0000      -0.951336       -25.8872 
  77   2.0000      -0.947274       -25.7766 
  78   2.0000      -0.935943       -25.4683 
  79   2.0000      -0.920631       -25.0516 
  80   2.0000      -0.901889       -24.5416 
  81   2.0000      -0.891705       -24.2645 
  82   2.0000      -0.875927       -23.8352 
  83   2.0000      -0.870610       -23.6905 
  84   2.0000      -0.866152       -23.5692 
  85   2.0000      -0.855221       -23.2718 
  86   2.0000      -0.842100       -22.9147 
  87   2.0000      -0.837840       -22.7988 
  88   2.0000      -0.822593       -22.3839 
  89   2.0000      -0.798534       -21.7292 
  90   2.0000      -0.793579       -21.5944 
  91   2.0000      -0.746519       -20.3138 
  92   2.0000      -0.738293       -20.0900 
  93   2.0000      -0.732477       -19.9317 
  94   2.0000      -0.723730       -19.6937 
  95   2.0000      -0.719960       -19.5911 
  96   2.0000      -0.714244       -19.4356 
  97   2.0000      -0.707057       -19.2400 
  98   2.0000      -0.703074       -19.1316 
  99   2.0000      -0.696333       -18.9482 
 100   2.0000      -0.694964       -18.9109 
 101   2.0000      -0.682259       -18.5652 
 102   2.0000      -0.679569       -18.4920 
 103   2.0000      -0.675828       -18.3902 
 104   2.0000      -0.674772       -18.3615 
 105   2.0000      -0.670883       -18.2557 
 106   2.0000      -0.665931       -18.1209 
 107   2.0000      -0.662549       -18.0289 
 108   2.0000      -0.656180       -17.8556 
 109   2.0000      -0.653473       -17.7819 
 110   2.0000      -0.649215       -17.6661 
 111   2.0000      -0.644519       -17.5383 
 112   2.0000      -0.642305       -17.4780 
 113   2.0000      -0.636898       -17.3309 
 114   2.0000      -0.636712       -17.3258 
 115   2.0000      -0.627681       -17.0801 
 116   2.0000      -0.624325       -16.9887 
 117   2.0000      -0.615788       -16.7564 
 118   2.0000      -0.614937       -16.7333 
 119   2.0000      -0.612634       -16.6706 
 120   2.0000      -0.608822       -16.5669 
 121   2.0000      -0.603337       -16.4176 
 122   2.0000      -0.600193       -16.3321 
 123   2.0000      -0.587585       -15.9890 
 124   2.0000      -0.584950       -15.9173 
 125   2.0000      -0.583395       -15.8750 
 126   2.0000      -0.578682       -15.7467 
 127   2.0000      -0.577736       -15.7210 
 128   2.0000      -0.563956       -15.3460 
 129   2.0000      -0.558431       -15.1957 
 130   2.0000      -0.552914       -15.0455 
 131   2.0000      -0.548503       -14.9255 
 132   2.0000      -0.542855       -14.7718 
 133   2.0000      -0.539286       -14.6747 
 134   2.0000      -0.537028       -14.6133 
 135   2.0000      -0.534107       -14.5338 
 136   2.0000      -0.525156       -14.2902 
 137   2.0000      -0.524066       -14.2606 
 138   2.0000      -0.518010       -14.0958 
 139   2.0000      -0.514030       -13.9875 
 140   2.0000      -0.511407       -13.9161 
 141   2.0000      -0.510050       -13.8792 
 142   2.0000      -0.509560       -13.8658 
 143   2.0000      -0.502875       -13.6839 
 144   2.0000      -0.500612       -13.6223 
 145   2.0000      -0.496900       -13.5213 
 146   2.0000      -0.494247       -13.4491 
 147   2.0000      -0.485395       -13.2083 
 148   2.0000      -0.482181       -13.1208 
 149   2.0000      -0.468244       -12.7416 
 150   2.0000      -0.464614       -12.6428 
 151   2.0000      -0.456646       -12.4260 
 152   2.0000      -0.448943       -12.2164 
 153   2.0000      -0.446539       -12.1509 
 154   2.0000      -0.444380       -12.0922 
 155   2.0000      -0.440124       -11.9764 
 156   2.0000      -0.431247       -11.7348 
 157   2.0000      -0.426862       -11.6155 
 158   2.0000      -0.402034       -10.9399 
 159   2.0000      -0.385964       -10.5026 
 160   2.0000      -0.379501       -10.3267 
 161   2.0000      -0.378347       -10.2954 
 162   2.0000      -0.370823       -10.0906 
 163   2.0000      -0.359456        -9.7813 
 164   2.0000      -0.353387        -9.6161 
 165   2.0000      -0.338214        -9.2033 
 166   2.0000      -0.337450        -9.1825 
 167   2.0000      -0.329376        -8.9628 
 168   2.0000      -0.327885        -8.9222 
 169   2.0000      -0.303326        -8.2539 
 170   2.0000      -0.299683        -8.1548 
 171   2.0000      -0.286606        -7.7989 
 172   2.0000      -0.283698        -7.7198 
 173   2.0000      -0.260356        -7.0847 
 174   2.0000      -0.244948        -6.6654 
 175   2.0000      -0.189633        -5.1602 
 176   2.0000      -0.179886        -4.8950 
 177   2.0000      -0.073250        -1.9932 
 178   2.0000      -0.057567        -1.5665 
 179   0.0000       0.028837         0.7847 
 180   0.0000       0.067338         1.8324 
 181   0.0000       0.092014         2.5038 
 182   0.0000       0.106617         2.9012 
 183   0.0000       0.114740         3.1222 
 184   0.0000       0.134410         3.6575 
 185   0.0000       0.141510         3.8507 
 186   0.0000       0.147638         4.0174 
 187   0.0000       0.162732         4.4282 
 188   0.0000       0.163233         4.4418 
 189   0.0000       0.166549         4.5320 
 190   0.0000       0.167598         4.5606 
 191   0.0000       0.184358         5.0166 
 192   0.0000       0.187152         5.0927 
 193   0.0000       0.190576         5.1858 
 194   0.0000       0.202576         5.5124 
 195   0.0000       0.205973         5.6048 
 196   0.0000       0.207619         5.6496 
 197   0.0000       0.210652         5.7321 
 198   0.0000       0.222784         6.0623 
 199   0.0000       0.224199         6.1008 
 200   0.0000       0.229247         6.2381 
 201   0.0000       0.237167         6.4537 
 202   0.0000       0.240383         6.5412 
 203   0.0000       0.241493         6.5714 
 204   0.0000       0.250114         6.8059 
 205   0.0000       0.254853         6.9349 
 206   0.0000       0.256908         6.9908 
 207   0.0000       0.259735         7.0677 
 208   0.0000       0.260321         7.0837 
 209   0.0000       0.261749         7.1225 
 210   0.0000       0.264623         7.2008 
 211   0.0000       0.270851         7.3702 
 212   0.0000       0.271530         7.3887 
 213   0.0000       0.271781         7.3955 
 214   0.0000       0.275492         7.4965 
 215   0.0000       0.276749         7.5307 
 216   0.0000       0.278730         7.5846 
 217   0.0000       0.281091         7.6489 
 218   0.0000       0.284558         7.7432 
 219   0.0000       0.289075         7.8661 
 220   0.0000       0.289223         7.8701 
 221   0.0000       0.293539         7.9876 
 222   0.0000       0.293863         7.9964 
 223   0.0000       0.296100         8.0573 
 224   0.0000       0.298620         8.1259 
 225   0.0000       0.299810         8.1582 
 226   0.0000       0.307024         8.3545 
 227   0.0000       0.308235         8.3875 
 228   0.0000       0.309568         8.4238 
 229   0.0000       0.320475         8.7206 
 230   0.0000       0.323261         8.7964 
 231   0.0000       0.327407         8.9092 
 232   0.0000       0.330448         8.9919 
 233   0.0000       0.331070         9.0089 
 234   0.0000       0.342202         9.3118 
 235   0.0000       0.350053         9.5254 
 236   0.0000       0.355811         9.6821 
 237   0.0000       0.379950        10.3390 
 238   0.0000       0.394502        10.7349 
 239   0.0000       0.397285        10.8107 
 240   0.0000       0.401457        10.9242 
 241   0.0000       0.413189        11.2434 
 242   0.0000       0.418399        11.3852 
 243   0.0000       0.419866        11.4251 
 244   0.0000       0.427299        11.6274 
 245   0.0000       0.434499        11.8233 
 246   0.0000       0.435994        11.8640 
 247   0.0000       0.438520        11.9327 
 248   0.0000       0.443616        12.0714 
 249   0.0000       0.445539        12.1237 
 250   0.0000       0.451155        12.2765 
 251   0.0000       0.459272        12.4974 
 252   0.0000       0.462607        12.5882 
 253   0.0000       0.467792        12.7293 
 254   0.0000       0.469606        12.7786 
 255   0.0000       0.474158        12.9025 
 256   0.0000       0.480912        13.0863 
 257   0.0000       0.482544        13.1307 
 258   0.0000       0.487776        13.2731 
 259   0.0000       0.498670        13.5695 
 260   0.0000       0.502020        13.6607 
 261   0.0000       0.504884        13.7386 
 262   0.0000       0.506121        13.7723 
 263   0.0000       0.509058        13.8522 
 264   0.0000       0.513953        13.9854 
 265   0.0000       0.518656        14.1133 
 266   0.0000       0.522658        14.2223 
 267   0.0000       0.524177        14.2636 
 268   0.0000       0.533535        14.5182 
 269   0.0000       0.537231        14.6188 
 270   0.0000       0.540288        14.7020 
 271   0.0000       0.547438        14.8966 
 272   0.0000       0.549933        14.9644 
 273   0.0000       0.556426        15.1411 
 274   0.0000       0.560274        15.2458 
 275   0.0000       0.564366        15.3572 
 276   0.0000       0.569888        15.5074 
 277   0.0000       0.573577        15.6078 
 278   0.0000       0.578694        15.7471 
 279   0.0000       0.586374        15.9560 
 280   0.0000       0.588730        16.0202 
 281   0.0000       0.590557        16.0699 
 282   0.0000       0.591909        16.1067 
 283   0.0000       0.596261        16.2251 
 284   0.0000       0.597978        16.2718 
 285   0.0000       0.598688        16.2911 
 286   0.0000       0.608207        16.5502 
 287   0.0000       0.612216        16.6593 
 288   0.0000       0.616361        16.7720 
 289   0.0000       0.620818        16.8933 
 290   0.0000       0.627577        17.0773 
 291   0.0000       0.629987        17.1428 
 292   0.0000       0.633296        17.2329 
 293   0.0000       0.635139        17.2830 
 294   0.0000       0.646179        17.5834 
 295   0.0000       0.649852        17.6834 
 296   0.0000       0.653769        17.7900 
 297   0.0000       0.657053        17.8793 
 298   0.0000       0.665661        18.1136 
 299   0.0000       0.666458        18.1352 
 300   0.0000       0.670587        18.2476 
 301   0.0000       0.671623        18.2758 
 302   0.0000       0.678333        18.4584 
 303   0.0000       0.680136        18.5074 
 304   0.0000       0.682346        18.5676 
 305   0.0000       0.686344        18.6764 
 306   0.0000       0.690393        18.7865 
 307   0.0000       0.691479        18.8161 
 308   0.0000       0.695629        18.9290 
 309   0.0000       0.697957        18.9924 
 310   0.0000       0.701201        19.0807 
 311   0.0000       0.702980        19.1291 
 312   0.0000       0.706235        19.2176 
 313   0.0000       0.709669        19.3111 
 314   0.0000       0.711633        19.3645 
 315   0.0000       0.714187        19.4340 
 316   0.0000       0.716890        19.5076 
 317   0.0000       0.718240        19.5443 
 318   0.0000       0.721366        19.6294 
 319   0.0000       0.725693        19.7471 
 320   0.0000       0.726037        19.7565 
 321   0.0000       0.729692        19.8559 
 322   0.0000       0.733605        19.9624 
 323   0.0000       0.736213        20.0334 
 324   0.0000       0.737927        20.0800 
 325   0.0000       0.740372        20.1465 
 326   0.0000       0.742617        20.2076 
 327   0.0000       0.745023        20.2731 
 328   0.0000       0.748407        20.3652 
 329   0.0000       0.751404        20.4467 
 330   0.0000       0.752371        20.4731 
 331   0.0000       0.755423        20.5561 
 332   0.0000       0.759199        20.6589 
 333   0.0000       0.762203        20.7406 
 334   0.0000       0.768415        20.9096 
 335   0.0000       0.774771        21.0826 
 336   0.0000       0.776184        21.1210 
 337   0.0000       0.781259        21.2591 
 338   0.0000       0.784521        21.3479 
 339   0.0000       0.789573        21.4854 
 340   0.0000       0.792131        21.5550 
 341   0.0000       0.795343        21.6424 
 342   0.0000       0.796883        21.6843 
 343   0.0000       0.800001        21.7691 
 344   0.0000       0.804054        21.8794 
 345   0.0000       0.806339        21.9416 
 346   0.0000       0.807594        21.9758 
 347   0.0000       0.809700        22.0331 
 348   0.0000       0.814451        22.1623 
 349   0.0000       0.817539        22.2464 
 350   0.0000       0.820321        22.3221 
 351   0.0000       0.822583        22.3836 
 352   0.0000       0.822916        22.3927 
 353   0.0000       0.824984        22.4490 
 354   0.0000       0.830985        22.6122 
 355   0.0000       0.832362        22.6497 
 356   0.0000       0.833809        22.6891 
 357   0.0000       0.836086        22.7511 
 358   0.0000       0.836665        22.7668 
 359   0.0000       0.838580        22.8189 
 360   0.0000       0.841894        22.9091 
 361   0.0000       0.843146        22.9432 
 362   0.0000       0.844036        22.9674 
 363   0.0000       0.844266        22.9736 
 364   0.0000       0.849464        23.1151 
 365   0.0000       0.854757        23.2591 
 366   0.0000       0.855539        23.2804 
 367   0.0000       0.858858        23.3707 
 368   0.0000       0.861831        23.4516 
 369   0.0000       0.865130        23.5414 
 370   0.0000       0.869229        23.6529 
 371   0.0000       0.872388        23.7389 
 372   0.0000       0.874616        23.7995 
 373   0.0000       0.878805        23.9135 
 374   0.0000       0.881435        23.9851 
 375   0.0000       0.882129        24.0040 
 376   0.0000       0.884848        24.0779 
 377   0.0000       0.888507        24.1775 
 378   0.0000       0.890341        24.2274 
 379   0.0000       0.894147        24.3310 
 380   0.0000       0.896869        24.4051 
 381   0.0000       0.899618        24.4798 
 382   0.0000       0.902336        24.5538 
 383   0.0000       0.902965        24.5709 
 384   0.0000       0.903503        24.5856 
 385   0.0000       0.905158        24.6306 
 386   0.0000       0.907060        24.6824 
 387   0.0000       0.909067        24.7370 
 388   0.0000       0.911034        24.7905 
 389   0.0000       0.916219        24.9316 
 390   0.0000       0.917330        24.9618 
 391   0.0000       0.922784        25.1102 
 392   0.0000       0.924865        25.1669 
 393   0.0000       0.925126        25.1740 
 394   0.0000       0.927325        25.2338 
 395   0.0000       0.929953        25.3053 
 396   0.0000       0.931298        25.3419 
 397   0.0000       0.932281        25.3687 
 398   0.0000       0.941307        25.6143 
 399   0.0000       0.942826        25.6556 
 400   0.0000       0.943331        25.6693 
 401   0.0000       0.949198        25.8290 
 402   0.0000       0.953498        25.9460 
 403   0.0000       0.955133        25.9905 
 404   0.0000       0.959072        26.0977 
 405   0.0000       0.960463        26.1355 
 406   0.0000       0.962885        26.2014 
 407   0.0000       0.965647        26.2766 
 408   0.0000       0.969436        26.3797 
 409   0.0000       0.975793        26.5527 
 410   0.0000       0.979073        26.6419 
 411   0.0000       0.982280        26.7292 
 412   0.0000       0.987604        26.8741 
 413   0.0000       0.988362        26.8947 
 414   0.0000       0.992206        26.9993 
 415   0.0000       1.002264        27.2730 
 416   0.0000       1.003569        27.3085 
 417   0.0000       1.006243        27.3813 
 418   0.0000       1.007890        27.4261 
 419   0.0000       1.019120        27.7317 
 420   0.0000       1.022576        27.8257 
 421   0.0000       1.028721        27.9929 
 422   0.0000       1.036584        28.2069 
 423   0.0000       1.042774        28.3753 
 424   0.0000       1.043826        28.4040 
 425   0.0000       1.054124        28.6842 
 426   0.0000       1.059240        28.8234 
 427   0.0000       1.060551        28.8591 
 428   0.0000       1.066239        29.0138 
 429   0.0000       1.073195        29.2031 
 430   0.0000       1.077654        29.3245 
 431   0.0000       1.083609        29.4865 
 432   0.0000       1.085207        29.5300 
 433   0.0000       1.088887        29.6301 
 434   0.0000       1.098044        29.8793 
 435   0.0000       1.104876        30.0652 
 436   0.0000       1.105819        30.0909 
 437   0.0000       1.110796        30.2263 
 438   0.0000       1.115401        30.3516 
 439   0.0000       1.116621        30.3848 
 440   0.0000       1.121217        30.5099 
 441   0.0000       1.123861        30.5818 
 442   0.0000       1.125731        30.6327 
 443   0.0000       1.128443        30.7065 
 444   0.0000       1.131118        30.7793 
 445   0.0000       1.133383        30.8409 
 446   0.0000       1.139610        31.0104 
 447   0.0000       1.142090        31.0779 
 448   0.0000       1.146586        31.2002 
 449   0.0000       1.150395        31.3038 
 450   0.0000       1.151271        31.3277 
 451   0.0000       1.151938        31.3458 
 452   0.0000       1.157807        31.5055 
 453   0.0000       1.159779        31.5592 
 454   0.0000       1.163657        31.6647 
 455   0.0000       1.170876        31.8612 
 456   0.0000       1.171832        31.8872 
 457   0.0000       1.177741        32.0480 
 458   0.0000       1.179193        32.0875 
 459   0.0000       1.186173        32.2774 
 460   0.0000       1.188574        32.3427 
 461   0.0000       1.195781        32.5389 
 462   0.0000       1.201353        32.6905 
 463   0.0000       1.202550        32.7230 
 464   0.0000       1.206022        32.8175 
 465   0.0000       1.208888        32.8955 
 466   0.0000       1.212053        32.9816 
 467   0.0000       1.214528        33.0490 
 468   0.0000       1.221752        33.2456 
 469   0.0000       1.226183        33.3661 
 470   0.0000       1.229121        33.4461 
 471   0.0000       1.232191        33.5296 
 472   0.0000       1.234134        33.5825 
 473   0.0000       1.235223        33.6121 
 474   0.0000       1.242148        33.8006 
 475   0.0000       1.245416        33.8895 
 476   0.0000       1.250194        34.0195 
 477   0.0000       1.251525        34.0557 
 478   0.0000       1.254092        34.1256 
 479   0.0000       1.255059        34.1519 
 480   0.0000       1.258461        34.2445 
 481   0.0000       1.262950        34.3666 
 482   0.0000       1.269540        34.5459 
 483   0.0000       1.271658        34.6036 
 484   0.0000       1.274725        34.6870 
 485   0.0000       1.276029        34.7225 
 486   0.0000       1.279825        34.8258 
 487   0.0000       1.283445        34.9243 
 488   0.0000       1.287904        35.0456 
 489   0.0000       1.290328        35.1116 
 490   0.0000       1.294689        35.2303 
 491   0.0000       1.295717        35.2582 
 492   0.0000       1.299184        35.3526 
 493   0.0000       1.302920        35.4543 
 494   0.0000       1.310518        35.6610 
 495   0.0000       1.314044        35.7570 
 496   0.0000       1.317476        35.8504 
 497   0.0000       1.323025        36.0013 
 498   0.0000       1.325320        36.0638 
 499   0.0000       1.328801        36.1585 
 500   0.0000       1.334556        36.3151 
 501   0.0000       1.335357        36.3369 
 502   0.0000       1.337732        36.4015 
 503   0.0000       1.347214        36.6596 
 504   0.0000       1.348775        36.7020 
 505   0.0000       1.350415        36.7467 
 506   0.0000       1.351174        36.7673 
 507   0.0000       1.357676        36.9442 
 508   0.0000       1.362134        37.0656 
 509   0.0000       1.364469        37.1291 
[...]
      pz      :     0.022070  p :     0.079720
      px      :     0.043523
      py      :     0.014127
 77 H s       :     0.885960  s :     0.885960
      pz      :     0.047874  p :     0.079167
      px      :     0.015019
      py      :     0.016274
 78 H s       :     0.886380  s :     0.886380
      pz      :     0.025826  p :     0.079117
      px      :     0.020485
      py      :     0.032806
 79 H s       :     0.909930  s :     0.909930
      pz      :     0.021898  p :     0.086463
      px      :     0.021694
      py      :     0.042871
 80 H s       :     0.866523  s :     0.866523
      pz      :     0.039226  p :     0.084614
      px      :     0.030180
      py      :     0.015208
 81 H s       :     0.887180  s :     0.887180
      pz      :     0.037788  p :     0.084051
      px      :     0.016188
      py      :     0.030075
 82 H s       :     0.915978  s :     0.915978
      pz      :     0.022024  p :     0.086755
      px      :     0.031550
      py      :     0.033181
 83 H s       :     0.873648  s :     0.873648
      pz      :     0.039227  p :     0.084023
      px      :     0.015279
      py      :     0.029517
 84 H s       :     0.887217  s :     0.887217
      pz      :     0.035748  p :     0.083520
      px      :     0.031689
      py      :     0.016083
 85 H s       :     0.893456  s :     0.893456
      pz      :     0.022483  p :     0.079756
      px      :     0.014089
      py      :     0.043184
 86 H s       :     0.891193  s :     0.891193
      pz      :     0.024719  p :     0.078815
      px      :     0.032966
      py      :     0.021130
 87 H s       :     0.890147  s :     0.890147
      pz      :     0.047986  p :     0.078711
      px      :     0.015591
      py      :     0.015134
 88 H s       :     0.911524  s :     0.911524
      pz      :     0.021790  p :     0.087022
      px      :     0.042797
      py      :     0.022435
 89 H s       :     0.871599  s :     0.871599
      pz      :     0.037933  p :     0.083836
      px      :     0.030467
      py      :     0.015435


                      *****************************
                      * MAYER POPULATION ANALYSIS *
                      *****************************

  NA   - Mulliken gross atomic population
  ZA   - Total nuclear charge
  QA   - Mulliken gross atomic charge
  VA   - Mayer's total valence
  BVA  - Mayer's bonded valence
  FA   - Mayer's free valence

  ATOM       NA         ZA         QA         VA         BVA        FA
  0 C      5.7946     6.0000     0.2054     3.8392     3.8392     0.0000
  1 N      7.4542     7.0000    -0.4542     3.3308     3.3308     0.0000
  2 C      6.0644     6.0000    -0.0644     3.9212     3.9212    -0.0000
  3 N      7.3361     7.0000    -0.3361     3.4582     3.4582    -0.0000
  4 C      6.0538     6.0000    -0.0538     4.0016     4.0016     0.0000
  5 N      7.5609     7.0000    -0.5609     3.0946     3.0946    -0.0000
  6 C      6.1113     6.0000    -0.1113     4.0074     4.0074    -0.0000
  7 N      7.3399     7.0000    -0.3399     3.4353     3.4353    -0.0000
  8 C      5.7939     6.0000     0.2061     3.8409     3.8409    -0.0000
  9 N      7.5627     7.0000    -0.5627     3.0796     3.0796    -0.0000
 10 C      5.8812     6.0000     0.1188     3.9073     3.9073     0.0000
 11 N      7.4376     7.0000    -0.4376     3.3827     3.3827    -0.0000
 12 C      6.0812     6.0000    -0.0812     3.9090     3.9090     0.0000
 13 N      7.4325     7.0000    -0.4325     3.4142     3.4142     0.0000
 14 C      5.7723     6.0000     0.2277     3.7814     3.7814     0.0000
 15 N      7.4414     7.0000    -0.4414     3.3695     3.3695     0.0000
 16 C      5.7702     6.0000     0.2298     3.7810     3.7810     0.0000
 17 C      6.1080     6.0000    -0.1080     4.0079     4.0079     0.0000
 18 C      6.1754     6.0000    -0.1754     3.7648     3.7648     0.0000
 19 C      5.7856     6.0000     0.2144     3.8628     3.8628     0.0000
 20 C      5.7866     6.0000     0.2134     3.8277     3.8277    -0.0000
 21 C      6.0913     6.0000    -0.0913     3.9043     3.9043    -0.0000
 22 C      6.0883     6.0000    -0.0883     3.9820     3.9820     0.0000
 23 C      6.0421     6.0000    -0.0421     3.9918     3.9918    -0.0000
 24 C      5.8019     6.0000     0.1981     3.8217     3.8217     0.0000
 25 C      5.8860     6.0000     0.1140     3.8900     3.8900     0.0000
 26 C      6.0747     6.0000    -0.0747     3.9067     3.9067     0.0000
 27 C      5.7869     6.0000     0.2131     3.8675     3.8675     0.0000
 28 C      6.0588     6.0000    -0.0588     3.9886     3.9886     0.0000
 29 C      6.1809     6.0000    -0.1809     3.7433     3.7433     0.0000
 30 C      5.7571     6.0000     0.2429     3.7969     3.7969     0.0000
 31 C      5.7742     6.0000     0.2258     3.8206     3.8206     0.0000
 32 C      6.0621     6.0000    -0.0621     3.9223     3.9223    -0.0000
 33 C      6.0666     6.0000    -0.0666     3.9760     3.9760     0.0000
 34 C      6.0496     6.0000    -0.0496     3.9863     3.9863    -0.0000
 35 C      5.7798     6.0000     0.2202     3.8190     3.8190    -0.0000
 36 C      5.8901     6.0000     0.1099     3.8796     3.8796     0.0000
 37 C      6.0649     6.0000    -0.0649     3.9175     3.9175    -0.0000
 38 C      5.7661     6.0000     0.2339     3.8015     3.8015    -0.0000
 39 C      6.0597     6.0000    -0.0597     3.9854     3.9854     0.0000
 40 C      6.1827     6.0000    -0.1827     3.7309     3.7309    -0.0000
 41 C      5.7769     6.0000     0.2231     3.8847     3.8847    -0.0000
 42 C      5.8020     6.0000     0.1980     3.8266     3.8266     0.0000
 43 C      6.0730     6.0000    -0.0730     3.9006     3.9006    -0.0000
 44 C      6.0910     6.0000    -0.0910     3.9857     3.9857     0.0000
 45 C      6.0594     6.0000    -0.0594     3.9923     3.9923    -0.0000
 46 C      5.7918     6.0000     0.2082     3.8283     3.8283     0.0000
 47 C      5.8843     6.0000     0.1157     3.8940     3.8940     0.0000
 48 C      6.0695     6.0000    -0.0695     3.9080     3.9080     0.0000
 49 C      5.7650     6.0000     0.2350     3.8921     3.8921    -0.0000
 50 C      6.0481     6.0000    -0.0481     3.9906     3.9906     0.0000
 51 C      6.1927     6.0000    -0.1927     3.7368     3.7368     0.0000
 52 H      0.9579     1.0000     0.0421     0.9860     0.9860    -0.0000
 53 H      1.0161     1.0000    -0.0161     0.9985     0.9985    -0.0000
 54 H      0.9496     1.0000     0.0504     1.0104     1.0104     0.0000
 55 H      0.9592     1.0000     0.0408     0.9866     0.9866     0.0000
 56 H      0.9495     1.0000     0.0505     0.9699     0.9699     0.0000
 57 H      0.9508     1.0000     0.0492     0.9824     0.9824     0.0000
 58 H      0.9517     1.0000     0.0483     0.9854     0.9854     0.0000
 59 H      0.9998     1.0000     0.0002     1.0035     1.0035     0.0000
 60 H      0.9503     1.0000     0.0497     1.0136     1.0136     0.0000
 61 H      0.8287     1.0000     0.1713     1.0419     1.0419     0.0000
 62 H      0.8250     1.0000     0.1750     1.0436     1.0436    -0.0000
 63 H      0.9433     1.0000     0.0567     0.9852     0.9852    -0.0000
 64 H      1.0064     1.0000    -0.0064     0.9974     0.9974     0.0000
 65 H      0.9530     1.0000     0.0470     1.0097     1.0097    -0.0000
 66 H      0.9431     1.0000     0.0569     0.9853     0.9853    -0.0000
 67 H      0.9365     1.0000     0.0635     0.9720     0.9720     0.0000
 68 H      0.9420     1.0000     0.0580     0.9868     0.9868     0.0000
 69 H      0.9423     1.0000     0.0577     0.9829     0.9829     0.0000
 70 H      1.0276     1.0000    -0.0276     0.9930     0.9930     0.0000
 71 H      0.9533     1.0000     0.0467     1.0061     1.0061     0.0000
 72 H      0.9328     1.0000     0.0672     0.9840     0.9840     0.0000
 73 H      1.0095     1.0000    -0.0095     1.0002     1.0002    -0.0000
 74 H      0.9434     1.0000     0.0566     1.0102     1.0102     0.0000
 75 H      0.9336     1.0000     0.0664     0.9844     0.9844    -0.0000
 76 H      0.9287     1.0000     0.0713     0.9720     0.9720     0.0000
 77 H      0.9348     1.0000     0.0652     0.9854     0.9854     0.0000
 78 H      0.9356     1.0000     0.0644     0.9852     0.9852    -0.0000
 79 H      1.0153     1.0000    -0.0153     0.9982     0.9982    -0.0000
 80 H      0.9429     1.0000     0.0571     1.0071     1.0071     0.0000
 81 H      0.9464     1.0000     0.0536     0.9856     0.9856    -0.0000
 82 H      1.0250     1.0000    -0.0250     0.9934     0.9934     0.0000
 83 H      0.9588     1.0000     0.0412     1.0086     1.0086    -0.0000
 84 H      0.9470     1.0000     0.0530     0.9854     0.9854     0.0000
 85 H      0.9404     1.0000     0.0596     0.9715     0.9715    -0.0000
 86 H      0.9448     1.0000     0.0552     0.9839     0.9839    -0.0000
 87 H      0.9433     1.0000     0.0567     0.9856     0.9856    -0.0000
 88 H      1.0164     1.0000    -0.0164     0.9962     0.9962     0.0000
 89 H      0.9539     1.0000     0.0461     1.0070     1.0070    -0.0000

  Mayer bond orders larger than 0.100000
B(  0-C ,  1-N ) :   1.0897 B(  0-C , 17-C ) :   1.6977 B(  0-C , 52-H ) :   0.9678 
B(  1-N ,  8-C ) :   1.0914 B(  1-N , 10-C ) :   0.9758 B(  2-C , 12-C ) :   1.5158 
B(  2-C , 16-C ) :   1.3479 B(  2-C , 53-H ) :   0.9765 B(  3-N , 14-C ) :   1.2162 
B(  3-N , 16-C ) :   1.1926 B(  3-N , 61-H ) :   0.8994 B(  4-C ,  6-C ) :   1.2170 
B(  4-C , 17-C ) :   1.2166 B(  4-C , 18-C ) :   1.4052 B(  5-N , 19-C ) :   1.4474 
B(  5-N , 27-C ) :   1.3841 B(  6-C ,  8-C ) :   1.6959 B(  6-C , 54-H ) :   0.9641 
B(  7-N , 30-C ) :   1.1937 B(  7-N , 38-C ) :   1.1943 B(  7-N , 62-H ) :   0.8970 
B(  8-C , 55-H ) :   0.9688 B(  9-N , 41-C ) :   1.3951 B(  9-N , 49-C ) :   1.4262 
B( 10-C , 56-H ) :   0.9767 B( 10-C , 57-H ) :   0.9831 B( 10-C , 58-H ) :   0.9834 
B( 11-N , 20-C ) :   1.1313 B( 11-N , 24-C ) :   1.1133 B( 11-N , 25-C ) :   0.9585 
B( 12-C , 14-C ) :   1.3499 B( 12-C , 59-H ) :   0.9750 B( 13-N , 31-C ) :   1.1518 
B( 13-N , 35-C ) :   1.1458 B( 13-N , 36-C ) :   0.9466 B( 14-C , 18-C ) :   1.1432 
B( 15-N , 42-C ) :   1.1080 B( 15-N , 46-C ) :   1.1197 B( 15-N , 47-C ) :   0.9625 
B( 16-C , 51-C ) :   1.1776 B( 17-C , 60-H ) :   0.9639 B( 18-C , 19-C ) :   1.1493 
B( 19-C , 21-C ) :   1.2367 B( 20-C , 28-C ) :   1.6247 B( 20-C , 63-H ) :   0.9701 
B( 21-C , 26-C ) :   1.6219 B( 21-C , 64-H ) :   0.9712 B( 22-C , 23-C ) :   1.2903 
B( 22-C , 28-C ) :   1.2691 B( 22-C , 29-C ) :   1.2204 B( 23-C , 24-C ) :   1.6168 
B( 23-C , 65-H ) :   0.9705 B( 24-C , 66-H ) :   0.9694 B( 25-C , 67-H ) :   0.9761 
B( 25-C , 68-H ) :   0.9828 B( 25-C , 69-H ) :   0.9822 B( 26-C , 27-C ) :   1.2312 
B( 26-C , 70-H ) :   0.9712 B( 27-C , 29-C ) :   1.2179 B( 28-C , 71-H ) :   0.9718 
B( 29-C , 30-C ) :   1.2368 B( 30-C , 32-C ) :   1.2871 B( 31-C , 39-C ) :   1.6004 
B( 31-C , 72-H ) :   0.9685 B( 32-C , 37-C ) :   1.5721 B( 32-C , 73-H ) :   0.9783 
B( 33-C , 34-C ) :   1.2994 B( 33-C , 39-C ) :   1.2926 B( 33-C , 40-C ) :   1.1950 
B( 34-C , 35-C ) :   1.5969 B( 34-C , 74-H ) :   0.9698 B( 35-C , 75-H ) :   0.9686 
B( 36-C , 76-H ) :   0.9766 B( 36-C , 77-H ) :   0.9817 B( 36-C , 78-H ) :   0.9826 
B( 37-C , 38-C ) :   1.2907 B( 37-C , 79-H ) :   0.9769 B( 38-C , 40-C ) :   1.2280 
B( 39-C , 80-H ) :   0.9709 B( 40-C , 41-C ) :   1.2415 B( 41-C , 43-C ) :   1.1949 
B( 42-C , 50-C ) :   1.6358 B( 42-C , 81-H ) :   0.9697 B( 43-C , 48-C ) :   1.6569 
B( 43-C , 82-H ) :   0.9725 B( 44-C , 45-C ) :   1.2633 B( 44-C , 50-C ) :   1.2688 
B( 44-C , 51-C ) :   1.2641 B( 45-C , 46-C ) :   1.6366 B( 45-C , 83-H ) :   0.9717 
B( 46-C , 84-H ) :   0.9701 B( 47-C , 85-H ) :   0.9762 B( 47-C , 86-H ) :   0.9829 
B( 47-C , 87-H ) :   0.9825 B( 48-C , 49-C ) :   1.1978 B( 48-C , 88-H ) :   0.9747 
B( 49-C , 51-C ) :   1.2323 B( 50-C , 89-H ) :   0.9710 

-------
TIMINGS
-------

Total SCF time: 0 days 0 hours 28 min 16 sec 

Total time                  ....    1696.530 sec
Sum of individual times     ....    1691.424 sec  ( 99.7%)

Fock matrix formation       ....    1663.507 sec  ( 98.1%)
Diagonalization             ....       8.810 sec  (  0.5%)
Density matrix formation    ....       0.531 sec  (  0.0%)
Population analysis         ....       0.636 sec  (  0.0%)
Initial guess               ....       2.513 sec  (  0.1%)
Orbital Transformation      ....       0.000 sec  (  0.0%)
Orbital Orthonormalization  ....       0.000 sec  (  0.0%)
DIIS solution               ....       3.980 sec  (  0.2%)
SOSCF solution              ....      10.131 sec  (  0.6%)

Maximum memory used throughout the entire SCF-calculation: 302.6 MB


           ************************************************************
           *        Program running with 16 parallel MPI-processes    *
           *              working on a common directory               *
           ************************************************************

------------------------------------------------------------------------------
                                ORCA  MP2 
------------------------------------------------------------------------------

Freezing NCore=104 chemical core electrons

----------
MP2 ENERGY (disk based algorithm)
----------

Dimension of the basis                    ...  918
Memory devoted to MP2                     ... 2000 MB   
Data format for buffers                   ... DOUBLE
Compression type for matrix containers    ... UNCOMPRESSED

-------------------------------
PARTIAL EXCHANGE TRANSFORMATION
-------------------------------

Transformation type                        ... one-operator
Generation of integrals (i,mue|j,nue)      ... ON
Generation of integrals (mue,kappa|nue,tau)... OFF
Generation of integrals (i,mue|a,nue)      ... OFF
Dimension of the basis                     ...  918
Number of internal MOs                     ...  127 (  52- 178)
Pair cutoff                                ... 2.500e-12 Eh
Number of AO pairs in the trafo            ... 421821
Total Number of distinct AO pairs          ... 421821
Memory devoted for trafo                   ... 2000.0 MB 
Max. Number of MO pairs treated together   ...  311      
Number Format for Storage                  ... Double (8 Byte)
Integral package used                      ... LIBINT

Starting integral evaluation:
    ... done with AO integral generation
Closing buffer AOK     (38.27 GB; CompressionRatio= 1.32)
Collecting buffer AOK 
Number of MO pairs included in the trafo   ... 8128
------------------------
SORTING OF (i,mue|j,nue)
------------------------

IBATCH = 1 of  2
IBATCH = 2 of  2
Closing buffer KAO     (51.03 GB; CompressionRatio= 1.00)
Collecting buffer KAO 
N(AO-Batches) Done                         ...  85793091 
N(AO-Batches) Skipped                      ...  82299055 
N(IJ)-pairs Skipped                        ...         0 
TOTAL TIME for half transformation         ...  2870.515 sec
AO-integral generation                     ...   211.947 sec
Half transformation                        ...   426.007 sec
K-integral sorting                         ...  2015.641 sec
Process 10:   Internal MO 132
Process 13:   Internal MO 156

Finished integral transformation - now doing MP2 part

Process  1:   Internal MO  60
OPERATOR COMBINATION   0   0: ij=( 52..178, 52..178)
Process  4:   Internal MO  84
Process  7:   Internal MO 108
Process  2:   Internal MO  69
Process  3:   Internal MO  78
Process  5:   Internal MO  93
Process  2:   Internal MO  72
Process  8:   Internal MO 117
Process  1:   Internal MO  63
Process  1:   Internal MO  66
Process  6:   Internal MO 102
Process  2:   Internal MO  75
Process 11:   Internal MO 141
Process  4:   Internal MO  87
Process  0:   Internal MO  54
Process  3:   Internal MO  81
Process  9:   Internal MO 126
Process  0:   Internal MO  57
Process 14:   Internal MO 165
Process 12:   Internal MO 150
Process  7:   Internal MO 111
Process  5:   Internal MO  96
Process  4:   Internal MO  90
Process  8:   Internal MO 120
Process 10:   Internal MO 135
Process  6:   Internal MO 105
Process  7:   Internal MO 114
Process  5:   Internal MO  99
Process  9:   Internal MO 129
Process 13:   Internal MO 159
Process 15:   Internal MO 174
Process 11:   Internal MO 144
Process 12:   Internal MO 153
Process  8:   Internal MO 123
Process 14:   Internal MO 168
Process 10:   Internal MO 138
Process 11:   Internal MO 147
Process 13:   Internal MO 162
Process 15:   Internal MO 177
Process 14:   Internal MO 171
-----------------------------------------------
 MP2 CORRELATION ENERGY   :     -7.282711887 Eh
-----------------------------------------------


-------
TIMINGS
-------
Total time                : 3218.116 sec
Integral trafo            : 2872.814 sec ( 89.3%)
K(i,j)                    :   65.951 sec (  2.0%)
T(i,j)                    :    2.023 sec (  0.1%)

---------------------------------------
MP2 TOTAL ENERGY:    -2130.908529144 Eh
---------------------------------------

Maximum memory used throughout the entire MP2-calculation: 2275.3 MB

-------------------------   --------------------
FINAL SINGLE POINT ENERGY     -2130.908529144005
-------------------------   --------------------


                            ***************************************
                            *     ORCA property calculations      *
                            ***************************************


  WARNING: The energy has been calculated at the MP2 level but the densities
           used in the property calculations are still SCF densities
           MP2 response densities have not been calculated 
           use %mp2 Density relaxed end
           or  %mp2 Density unrelaxed end

                                    ---------------------
                                    Active property flags
                                    ---------------------
   (+) Dipole Moment


------------------------------------------------------------------------------
                       ORCA ELECTRIC PROPERTIES CALCULATION
------------------------------------------------------------------------------

Dipole Moment Calculation                       ... on
Quadrupole Moment Calculation                   ... off
Polarizability Calculation                      ... off
GBWName                                         ... /scratch/allen/tmpyp4_amber_gaff2/conf1/conf1/Conf142.orca.gbw
Electron density                                ... /scratch/allen/tmpyp4_amber_gaff2/conf1/conf1/Conf142.orca.scfp
The origin for moment calculation is the CENTER OF MASS  = ( 0.003272, -0.001896  0.002293)

-------------
DIPOLE MOMENT
-------------
                                X             Y             Z
Electronic contribution:      1.73176      -3.53859      -0.22252
Nuclear contribution   :      0.02654       0.20269       0.22596
                        -----------------------------------------
Total Dipole Moment    :      1.75830      -3.33590       0.00344
                        -----------------------------------------
Magnitude (a.u.)       :      3.77092
Magnitude (Debye)      :      9.58491



--------------------
Rotational spectrum 
--------------------
 
Rotational constants in cm-1:     0.001500     0.001477     0.000761 
Rotational constants in MHz :    44.954479    44.282352    22.816220 

 Dipole components along the rotational axes: 
x,y,z [a.u.] :     2.589653    -2.741070     0.007948 
x,y,z [Debye]:     6.582374    -6.967247     0.020202 

 

Timings for individual modules:

Sum of individual times         ...     4946.931 sec (=  82.449 min)
GTO integral calculation        ...        9.111 sec (=   0.152 min)   0.2 %
SCF iterations                  ...     1701.006 sec (=  28.350 min)  34.4 %
MP2 module                      ...     3236.815 sec (=  53.947 min)  65.4 %
                             ****ORCA TERMINATED NORMALLY****
TOTAL RUN TIME: 0 days 1 hours 22 minutes 30 seconds 533 msec
# of primitive gaussian functions

