
                                 *****************
                                 * O   R   C   A *
                                 *****************

                                            #,                                       
                                            ###                                      
                                            ####                                     
                                            #####                                    
                                            ######                                   
                                           ########,                                 
                                     ,,################,,,,,                         
                               ,,#################################,,                 
                          ,,##########################################,,             
                       ,#########################################, ''#####,          
                    ,#############################################,,   '####,        
                  ,##################################################,,,,####,       
                ,###########''''           ''''###############################       
              ,#####''   ,,,,##########,,,,          '''####'''          '####       
            ,##' ,,,,###########################,,,                        '##       
           ' ,,###''''                  '''############,,,                           
         ,,##''                                '''############,,,,        ,,,,,,###''
      ,#''                                            '''#######################'''  
     '                                                          ''''####''''         
             ,#######,   #######,   ,#######,      ##                                
            ,#'     '#,  ##    ##  ,#'     '#,    #''#        ######   ,####,        
            ##       ##  ##   ,#'  ##            #'  '#       #        #'  '#        
            ##       ##  #######   ##           ,######,      #####,   #    #        
            '#,     ,#'  ##    ##  '#,     ,#' ,#      #,         ##   #,  ,#        
             '#######'   ##     ##  '#######'  #'      '#     #####' # '####'        



                  #######################################################
                  #                        -***-                        #
                  #          Department of theory and spectroscopy      #
                  #    Directorship and core code : Frank Neese         #
                  #        Max Planck Institute fuer Kohlenforschung    #
                  #                Kaiser Wilhelm Platz 1               #
                  #                 D-45470 Muelheim/Ruhr               #
                  #                      Germany                        #
                  #                                                     #
                  #                  All rights reserved                #
                  #                        -***-                        #
                  #######################################################


                         Program Version 5.0.4 -  RELEASE  -


 With contributions from (in alphabetic order):
   Daniel Aravena         : Magnetic Suceptibility
   Michael Atanasov       : Ab Initio Ligand Field Theory (pilot matlab implementation)
   Alexander A. Auer      : GIAO ZORA, VPT2 properties, NMR spectrum
   Ute Becker             : Parallelization
   Giovanni Bistoni       : ED, misc. LED, open-shell LED, HFLD
   Martin Brehm           : Molecular dynamics
   Dmytro Bykov           : SCF Hessian
   Vijay G. Chilkuri      : MRCI spin determinant printing, contributions to CSF-ICE
   Dipayan Datta          : RHF DLPNO-CCSD density
   Achintya Kumar Dutta   : EOM-CC, STEOM-CC
   Dmitry Ganyushin       : Spin-Orbit,Spin-Spin,Magnetic field MRCI
   Miquel Garcia          : C-PCM and meta-GGA Hessian, CC/C-PCM, Gaussian charge scheme
   Yang Guo               : DLPNO-NEVPT2, F12-NEVPT2, CIM, IAO-localization
   Andreas Hansen         : Spin unrestricted coupled pair/coupled cluster methods
   Benjamin Helmich-Paris : MC-RPA, TRAH-SCF, COSX integrals
   Lee Huntington         : MR-EOM, pCC
   Robert Izsak           : Overlap fitted RIJCOSX, COSX-SCS-MP3, EOM
   Marcus Kettner         : VPT2
   Christian Kollmar      : KDIIS, OOCD, Brueckner-CCSD(T), CCSD density, CASPT2, CASPT2-K
   Simone Kossmann        : Meta GGA functionals, TD-DFT gradient, OOMP2, MP2 Hessian
   Martin Krupicka        : Initial AUTO-CI
   Lucas Lang             : DCDCAS
   Marvin Lechner         : AUTO-CI (C++ implementation), FIC-MRCC
   Dagmar Lenk            : GEPOL surface, SMD
   Dimitrios Liakos       : Extrapolation schemes; Compound Job, initial MDCI parallelization
   Dimitrios Manganas     : Further ROCIS development; embedding schemes
   Dimitrios Pantazis     : SARC Basis sets
   Anastasios Papadopoulos: AUTO-CI, single reference methods and gradients
   Taras Petrenko         : DFT Hessian,TD-DFT gradient, ASA, ECA, R-Raman, ABS, FL, XAS/XES, NRVS
   Peter Pinski           : DLPNO-MP2, DLPNO-MP2 Gradient
   Christoph Reimann      : Effective Core Potentials
   Marius Retegan         : Local ZFS, SOC
   Christoph Riplinger    : Optimizer, TS searches, QM/MM, DLPNO-CCSD(T), (RO)-DLPNO pert. Triples
   Tobias Risthaus        : Range-separated hybrids, TD-DFT gradient, RPA, STAB
   Michael Roemelt        : Original ROCIS implementation
   Masaaki Saitow         : Open-shell DLPNO-CCSD energy and density
   Barbara Sandhoefer     : DKH picture change effects
   Avijit Sen             : IP-ROCIS
   Kantharuban Sivalingam : CASSCF convergence, NEVPT2, FIC-MRCI
   Bernardo de Souza      : ESD, SOC TD-DFT
   Georgi Stoychev        : AutoAux, RI-MP2 NMR, DLPNO-MP2 response
   Willem Van den Heuvel  : Paramagnetic NMR
   Boris Wezisla          : Elementary symmetry handling
   Frank Wennmohs         : Technical directorship


 We gratefully acknowledge several colleagues who have allowed us to
 interface, adapt or use parts of their codes:
   Stefan Grimme, W. Hujo, H. Kruse, P. Pracht,  : VdW corrections, initial TS optimization,
                  C. Bannwarth, S. Ehlert          DFT functionals, gCP, sTDA/sTD-DF
   Ed Valeev, F. Pavosevic, A. Kumar             : LibInt (2-el integral package), F12 methods
   Garnet Chan, S. Sharma, J. Yang, R. Olivares  : DMRG
   Ulf Ekstrom                                   : XCFun DFT Library
   Mihaly Kallay                                 : mrcc  (arbitrary order and MRCC methods)
   Jiri Pittner, Ondrej Demel                    : Mk-CCSD
   Frank Weinhold                                : gennbo (NPA and NBO analysis)
   Christopher J. Cramer and Donald G. Truhlar   : smd solvation model
   Lars Goerigk                                  : TD-DFT with DH, B97 family of functionals
   V. Asgeirsson, H. Jonsson                     : NEB implementation
   FAccTs GmbH                                   : IRC, NEB, NEB-TS, DLPNO-Multilevel, CI-OPT
                                                   MM, QMMM, 2- and 3-layer-ONIOM, Crystal-QMMM,
                                                   LR-CPCM, SF, NACMEs, symmetry and pop. for TD-DFT,
                                                   nearIR, NL-DFT gradient (VV10), updates on ESD,
                                                   ML-optimized integration grids
   S Lehtola, MJT Oliveira, MAL Marques          : LibXC Library
   Liviu Ungur et al                             : ANISO software


 Your calculation uses the libint2 library for the computation of 2-el integrals
 For citations please refer to: http://libint.valeyev.net

 Your ORCA version has been built with support for libXC version: 5.1.0
 For citations please refer to: https://tddft.org/programs/libxc/

 This ORCA versions uses:
   CBLAS   interface :  Fast vector & matrix operations
   LAPACKE interface :  Fast linear algebra routines
   SCALAPACK package :  Parallel linear algebra routines
   Shared memory     :  Shared parallel matrices
   BLAS/LAPACK       :  OpenBLAS 0.3.15  USE64BITINT DYNAMIC_ARCH NO_AFFINITY Sandybridge SINGLE_THREADED
        Core in use  :  Sandybridge
   Copyright (c) 2011-2014, The OpenBLAS Project


================================================================================

----- Orbital basis set information -----
Your calculation utilizes the basis: cc-pVDZ 
       H, B-Ne : Obtained from the ccRepo (grant-hill.group.shef.ac.uk/ccrepo) Feb. 2017
                 T. H. Dunning, Jr., J. Chem. Phys. 90, 1007 (1989)
            He : Obtained from the ccRepo (grant-hill.group.shef.ac.uk/ccrepo) Feb. 2017
                 D. E. Woon, T. H. Dunning, Jr., J. Chem. Phys. 100, 2975 (1994)
  Li-Be, Na-Mg : Obtained from the ccRepo (grant-hill.group.shef.ac.uk/ccrepo) Feb. 2017
                 B. P. Prascher, D. E. Woon, K. A. Peterson, T. H. Dunning, Jr., A. K. Wilson, Theor. Chem. Acc. 128, 69 (2011)
         Al-Ar : Obtained from the ccRepo (grant-hill.group.shef.ac.uk/ccrepo) Feb. 2017
                 D. E. Woon, T. H. Dunning, Jr., J. Chem. Phys. 98, 1358 (1993)
            Ca : Obtained from the Peterson Research Group Website (tyr0.chem.wsu.edu/~kipeters) Feb. 2017
                 J. Koput, K. A. Peterson, J. Phys. Chem. 106, 9595 (2002)
         Sc-Zn : Obtained from the ccRepo (grant-hill.group.shef.ac.uk/ccrepo) Feb. 2017
                 N. B. Balabanov, K. A. Peterson, J. Chem. Phys. 123, 064107 (2005)
                 N. B. Balabanov, K. A. Peterson, J. Chem. Phys. 125, 074110 (2006)
         Ga-Kr : Obtained from the ccRepo (grant-hill.group.shef.ac.uk/ccrepo) Feb. 2017
                 A. K. Wilson, D. E. Woon, K. A. Peterson, T. H. Dunning, Jr., J. Chem. Phys. 110, 7667 (1999)

================================================================================
                                        WARNINGS
                       Please study these warnings very carefully!
================================================================================


WARNING: No MP2 level density has been requested!
         To caclulate MP2 level properties use
         %mp2 Density relaxed end
         or
         %mp2 Density unrelaxed end

WARNING: Post HF methods need fully converged wavefunctions
  ===> : Setting SCFConvForced true
         You can overwrite this default with %scf ConvForced false 


INFO   : the flag for use of the SHARK integral package has been found!

================================================================================
                                       INPUT FILE
================================================================================
NAME = /scratch/allen/tmpyp4_amber_gaff2/2.Mdgx/conf11/conf11/Conf151.orca
|  1> ! PAL2
|  2> ! mp2 cc-pvdz TightSCF  NoKeepInts
|  3> 
|  4> %scf
|  5>   MaxCore 2000
|  6> end
|  7> %mp2
|  8>   MaxCore 2000
|  9> end
| 10> * xyz 0 1
| 11>    C       -4.82100         5.28600        -0.52200
| 12>    C        1.47400         4.04100         0.05700
| 13>    C       -2.80200         4.09300         0.04900
| 14>    C       -2.34800         5.26400         0.67400
| 15>    C       -3.13700         6.39700         0.68400
| 16>    C       -5.19100         7.61600         0.14900
| 17>    C        0.13200         4.30700         0.06100
| 18>    C       -0.56900         3.05600         0.04700
| 19>    C        1.64900         2.61800         0.02300
| 20>    C       -4.06900         4.12700        -0.55300
| 21>    N       -4.35300         6.39800         0.08800
| 22>    N        0.38800         2.06700         0.02500
| 23>    N       -2.01000         0.39500        -0.07500
| 24>    N       -0.38800        -2.07400        -0.02700
| 25>    N        2.01000        -0.40100         0.06500
| 26>    C       -1.96000         2.86100         0.02400
| 27>    C       -2.62300         1.61500        -0.01800
| 28>    C       -5.57300        -4.32900         1.06600
| 29>    C       -4.07300         1.47100         0.05600
| 30>    C       -4.10600        -2.75600        -0.02600
| 31>    C       -4.99500        -2.75700        -1.11100
| 32>    C       -6.13200        -3.54200        -1.07600
| 33>    C       -7.65100        -5.11300         0.04000
| 34>    C       -4.32400         0.14100         0.03700
| 35>    C       -3.02500        -0.52000        -0.04800
| 36>    C       -4.42200        -3.56600         1.07500
| 37>    N       -6.40700        -4.31300         0.00100
| 38>    C       -2.86700        -1.92200        -0.04000
| 39>    C       -1.65000        -2.62400        -0.02700
| 40>    C        3.56800        -6.14200        -1.04000
| 41>    C       -1.47600        -4.04900        -0.03400
| 42>    C        2.80300        -4.09900        -0.00800
| 43>    C        3.65700        -4.38400         1.06900
| 44>    C        4.42700        -5.53000         1.05900
| 45>    C        5.24500        -7.58800         0.01400
| 46>    C       -0.13400        -4.31500        -0.02200
| 47>    C        0.56800        -3.06400        -0.02700
| 48>    C        2.77500        -5.01200        -1.07400
| 49>    N        4.37600        -6.39100         0.01700
| 50>    C        1.95900        -2.86900        -0.00900
| 51>    C        2.62100        -1.62200         0.00900
| 52>    C        5.54300         4.33900        -1.13000
| 53>    C        4.07000        -1.47900        -0.09400
| 54>    C        4.10400         2.75100        -0.02100
| 55>    C        5.02700         2.72900         1.03600
| 56>    C        6.16600         3.50900         0.97800
| 57>    C        7.61900         5.15300        -0.11500
| 58>    C        4.32100        -0.14800        -0.09200
| 59>    C        3.02500         0.51400         0.01500
| 60>    C        4.38700         3.58200        -1.11500
| 61>    C        2.86600         1.91600         0.01300
| 62>    N        6.41300         4.29600        -0.09500
| 63>    H       -5.79700         5.36200        -0.98400
| 64>    H        2.27400         4.76600         0.08100
| 65>    H       -1.38200         5.29800         1.16500
| 66>    H       -2.83400         7.32000         1.16000
| 67>    H       -5.76300         7.60900         1.07900
| 68>    H       -4.54200         8.49100         0.11400
| 69>    H       -5.86700         7.61900        -0.70600
| 70>    H       -0.33200         5.28200         0.06900
| 71>    H       -4.47000         3.25900        -1.06400
| 72>    H        0.18200         1.07200         0.00500
| 73>    H       -0.18300        -1.08000        -0.02100
| 74>    H       -5.86400        -4.96200         1.89500
| 75>    H       -4.79400         2.27200         0.13900
| 76>    H       -4.80000        -2.16000        -1.99400
| 77>    H       -6.84100        -3.58200        -1.89300
| 78>    H       -8.42800        -4.53600         0.54600
| 79>    H       -7.95600        -5.33700        -0.98100
| 80>    H       -7.45600        -6.03700         0.58400
| 81>    H       -5.28700        -0.34400         0.10000
| 82>    H       -3.78000        -3.60100         1.94700
| 83>    H        3.58700        -6.86800        -1.84300
| 84>    H       -2.27600        -4.77400        -0.05000
| 85>    H        3.71400        -3.72400         1.92600
| 86>    H        5.09200        -5.79500         1.87100
| 87>    H        6.20500        -7.32900        -0.43900
| 88>    H        5.39300        -7.91700         1.04200
| 89>    H        4.75900        -8.37300        -0.56400
| 90>    H        0.32900        -5.29000        -0.00800
| 91>    H        2.14600        -4.84200        -1.94000
| 92>    H        5.80800         4.98600        -1.95600
| 93>    H        4.78800        -2.28100        -0.18500
| 94>    H        4.86000         2.11400         1.91200
| 95>    H        6.90100         3.53100         1.77200
| 96>    H        7.38300         6.10900         0.35600
| 97>    H        8.41400         4.65200         0.43500
| 98>    H        7.92100         5.31000        -1.15000
| 99>    H        5.28300         0.33600        -0.17900
|100>    H        3.72000         3.63200        -1.96700
|101> *
|102> 
|103>                          ****END OF INPUT****
================================================================================

                       ****************************
                       * Single Point Calculation *
                       ****************************

---------------------------------
CARTESIAN COORDINATES (ANGSTROEM)
---------------------------------
  C     -4.821000    5.286000   -0.522000
  C      1.474000    4.041000    0.057000
  C     -2.802000    4.093000    0.049000
  C     -2.348000    5.264000    0.674000
  C     -3.137000    6.397000    0.684000
  C     -5.191000    7.616000    0.149000
  C      0.132000    4.307000    0.061000
  C     -0.569000    3.056000    0.047000
  C      1.649000    2.618000    0.023000
  C     -4.069000    4.127000   -0.553000
  N     -4.353000    6.398000    0.088000
  N      0.388000    2.067000    0.025000
  N     -2.010000    0.395000   -0.075000
  N     -0.388000   -2.074000   -0.027000
  N      2.010000   -0.401000    0.065000
  C     -1.960000    2.861000    0.024000
  C     -2.623000    1.615000   -0.018000
  C     -5.573000   -4.329000    1.066000
  C     -4.073000    1.471000    0.056000
  C     -4.106000   -2.756000   -0.026000
  C     -4.995000   -2.757000   -1.111000
  C     -6.132000   -3.542000   -1.076000
  C     -7.651000   -5.113000    0.040000
  C     -4.324000    0.141000    0.037000
  C     -3.025000   -0.520000   -0.048000
  C     -4.422000   -3.566000    1.075000
  N     -6.407000   -4.313000    0.001000
  C     -2.867000   -1.922000   -0.040000
  C     -1.650000   -2.624000   -0.027000
  C      3.568000   -6.142000   -1.040000
  C     -1.476000   -4.049000   -0.034000
  C      2.803000   -4.099000   -0.008000
  C      3.657000   -4.384000    1.069000
  C      4.427000   -5.530000    1.059000
  C      5.245000   -7.588000    0.014000
  C     -0.134000   -4.315000   -0.022000
  C      0.568000   -3.064000   -0.027000
  C      2.775000   -5.012000   -1.074000
  N      4.376000   -6.391000    0.017000
  C      1.959000   -2.869000   -0.009000
  C      2.621000   -1.622000    0.009000
  C      5.543000    4.339000   -1.130000
  C      4.070000   -1.479000   -0.094000
  C      4.104000    2.751000   -0.021000
  C      5.027000    2.729000    1.036000
  C      6.166000    3.509000    0.978000
  C      7.619000    5.153000   -0.115000
  C      4.321000   -0.148000   -0.092000
  C      3.025000    0.514000    0.015000
  C      4.387000    3.582000   -1.115000
  C      2.866000    1.916000    0.013000
  N      6.413000    4.296000   -0.095000
  H     -5.797000    5.362000   -0.984000
  H      2.274000    4.766000    0.081000
  H     -1.382000    5.298000    1.165000
  H     -2.834000    7.320000    1.160000
  H     -5.763000    7.609000    1.079000
  H     -4.542000    8.491000    0.114000
  H     -5.867000    7.619000   -0.706000
  H     -0.332000    5.282000    0.069000
  H     -4.470000    3.259000   -1.064000
  H      0.182000    1.072000    0.005000
  H     -0.183000   -1.080000   -0.021000
  H     -5.864000   -4.962000    1.895000
  H     -4.794000    2.272000    0.139000
  H     -4.800000   -2.160000   -1.994000
  H     -6.841000   -3.582000   -1.893000
  H     -8.428000   -4.536000    0.546000
  H     -7.956000   -5.337000   -0.981000
  H     -7.456000   -6.037000    0.584000
  H     -5.287000   -0.344000    0.100000
  H     -3.780000   -3.601000    1.947000
  H      3.587000   -6.868000   -1.843000
  H     -2.276000   -4.774000   -0.050000
  H      3.714000   -3.724000    1.926000
  H      5.092000   -5.795000    1.871000
  H      6.205000   -7.329000   -0.439000
  H      5.393000   -7.917000    1.042000
  H      4.759000   -8.373000   -0.564000
  H      0.329000   -5.290000   -0.008000
  H      2.146000   -4.842000   -1.940000
  H      5.808000    4.986000   -1.956000
  H      4.788000   -2.281000   -0.185000
  H      4.860000    2.114000    1.912000
  H      6.901000    3.531000    1.772000
  H      7.383000    6.109000    0.356000
  H      8.414000    4.652000    0.435000
  H      7.921000    5.310000   -1.150000
  H      5.283000    0.336000   -0.179000
  H      3.720000    3.632000   -1.967000

----------------------------
CARTESIAN COORDINATES (A.U.)
----------------------------
  NO LB      ZA    FRAG     MASS         X           Y           Z
   0 C     6.0000    0    12.011   -9.110370    9.989092   -0.986437
   1 C     6.0000    0    12.011    2.785456    7.636383    0.107714
   2 C     6.0000    0    12.011   -5.295013    7.734649    0.092597
   3 C     6.0000    0    12.011   -4.437077    9.947518    1.273675
   4 C     6.0000    0    12.011   -5.928071   12.088578    1.292573
   5 C     6.0000    0    12.011   -9.809568   14.392154    0.281569
   6 C     6.0000    0    12.011    0.249444    8.139050    0.115273
   7 C     6.0000    0    12.011   -1.075254    5.775003    0.088817
   8 C     6.0000    0    12.011    3.116158    4.947303    0.043464
   9 C     6.0000    0    12.011   -7.689296    7.798900   -1.045019
  10 N     7.0000    0    14.007   -8.225978   12.090468    0.166296
  11 N     7.0000    0    14.007    0.733214    3.906064    0.047243
  12 N     7.0000    0    14.007   -3.798350    0.746442   -0.141729
  13 N     7.0000    0    14.007   -0.733214   -3.919292   -0.051023
  14 N     7.0000    0    14.007    3.798350   -0.757780    0.122832
  15 C     6.0000    0    12.011   -3.703863    5.406506    0.045353
  16 C     6.0000    0    12.011   -4.956752    3.051908   -0.034015
  17 C     6.0000    0    12.011  -10.531444   -8.180624    2.014448
  18 C     6.0000    0    12.011   -7.696855    2.779787    0.105825
  19 C     6.0000    0    12.011   -7.759216   -5.208085   -0.049133
  20 C     6.0000    0    12.011   -9.439182   -5.209975   -2.099486
  21 C     6.0000    0    12.011  -11.587801   -6.693410   -2.033345
  22 C     6.0000    0    12.011  -14.458295   -9.662170    0.075589
  23 C     6.0000    0    12.011   -8.171176    0.266451    0.069920
  24 C     6.0000    0    12.011   -5.716422   -0.982658   -0.090707
  25 C     6.0000    0    12.011   -8.356369   -6.738763    2.031456
  26 N     7.0000    0    14.007  -12.107475   -8.150389    0.001890
  27 C     6.0000    0    12.011   -5.417845   -3.632054   -0.075589
  28 C     6.0000    0    12.011   -3.118048   -4.958641   -0.051023
  29 C     6.0000    0    12.011    6.742543  -11.606698   -1.965315
  30 C     6.0000    0    12.011   -2.789236   -7.651501   -0.064251
  31 C     6.0000    0    12.011    5.296902   -7.745987   -0.015118
  32 C     6.0000    0    12.011    6.910728   -8.284559    2.020117
  33 C     6.0000    0    12.011    8.365818  -10.450186    2.001220
  34 C     6.0000    0    12.011    9.911614  -14.339242    0.026456
  35 C     6.0000    0    12.011   -0.253223   -8.154168   -0.041574
  36 C     6.0000    0    12.011    1.073364   -5.790121   -0.051023
  37 C     6.0000    0    12.011    5.243990   -9.471307   -2.029566
  38 N     7.0000    0    14.007    8.269442  -12.077240    0.032125
  39 C     6.0000    0    12.011    3.701973   -5.421624   -0.017008
  40 C     6.0000    0    12.011    4.952972   -3.065136    0.017008
  41 C     6.0000    0    12.011   10.474752    8.199522   -2.135391
  42 C     6.0000    0    12.011    7.691185   -2.794905   -0.177634
  43 C     6.0000    0    12.011    7.755436    5.198637   -0.039684
  44 C     6.0000    0    12.011    9.499653    5.157063    1.957756
  45 C     6.0000    0    12.011   11.652051    6.631049    1.848152
  46 C     6.0000    0    12.011   14.397823    9.737759   -0.217319
  47 C     6.0000    0    12.011    8.165507   -0.279679   -0.173855
  48 C     6.0000    0    12.011    5.716422    0.971319    0.028346
  49 C     6.0000    0    12.011    8.290229    6.768999   -2.107045
  50 C     6.0000    0    12.011    5.415955    3.620715    0.024566
  51 N     7.0000    0    14.007   12.118814    8.118263   -0.179524
  52 H     1.0000    0     1.008  -10.954742   10.132712   -1.859491
  53 H     1.0000    0     1.008    4.297237    9.006435    0.153068
  54 H     1.0000    0     1.008   -2.611602   10.011769    2.201531
  55 H     1.0000    0     1.008   -5.355484   13.832795    2.192082
  56 H     1.0000    0     1.008  -10.890492   14.378926    2.039014
  57 H     1.0000    0     1.008   -8.583136   16.045665    0.215429
  58 H     1.0000    0     1.008  -11.087023   14.397823   -1.334147
  59 H     1.0000    0     1.008   -0.627389    9.981533    0.130391
  60 H     1.0000    0     1.008   -8.447076    6.158617   -2.010669
  61 H     1.0000    0     1.008    0.343930    2.025786    0.009449
  62 H     1.0000    0     1.008   -0.345820   -2.040904   -0.039684
  63 H     1.0000    0     1.008  -11.081354   -9.376821    3.581031
  64 H     1.0000    0     1.008   -9.059347    4.293458    0.262672
  65 H     1.0000    0     1.008   -9.070685   -4.081808   -3.768114
  66 H     1.0000    0     1.008  -12.927616   -6.768999   -3.577252
  67 H     1.0000    0     1.008  -15.926612   -8.571798    1.031790
  68 H     1.0000    0     1.008  -15.034661  -10.085468   -1.853821
  69 H     1.0000    0     1.008  -14.089798  -11.408277    1.103600
  70 H     1.0000    0     1.008   -9.990982   -0.650066    0.188973
  71 H     1.0000    0     1.008   -7.143165   -6.804904    3.679297
  72 H     1.0000    0     1.008    6.778448  -12.978639   -3.482765
  73 H     1.0000    0     1.008   -4.301017   -9.021553   -0.094486
  74 H     1.0000    0     1.008    7.018443   -7.037340    3.639613
  75 H     1.0000    0     1.008    9.622485  -10.950963    3.535678
  76 H     1.0000    0     1.008   11.725751  -13.849803   -0.829590
  77 H     1.0000    0     1.008   10.191293  -14.960962    1.969095
  78 H     1.0000    0     1.008    8.993207  -15.822677   -1.065806
  79 H     1.0000    0     1.008    0.621720   -9.996651   -0.015118
  80 H     1.0000    0     1.008    4.055352   -9.150054   -3.666069
  81 H     1.0000    0     1.008   10.975529    9.422175   -3.696304
  82 H     1.0000    0     1.008    9.048009   -4.310465   -0.349599
  83 H     1.0000    0     1.008    9.184069    3.994881    3.613156
  84 H     1.0000    0     1.008   13.041000    6.672623    3.348595
  85 H     1.0000    0     1.008   13.951848   11.544337    0.672743
  86 H     1.0000    0     1.008   15.900156    8.791006    0.822031
  87 H     1.0000    0     1.008   14.968521   10.034446   -2.173185
  88 H     1.0000    0     1.008    9.983423    0.634948   -0.338261
  89 H     1.0000    0     1.008    7.029781    6.863485   -3.717091

--------------------------------
INTERNAL COORDINATES (ANGSTROEM)
--------------------------------
 C      0   0   0     0.000000000000     0.00000000     0.00000000
 C      1   0   0     6.443003259350     0.00000000     0.00000000
 C      1   2   0     2.413638539633    20.92467425     0.00000000
 C      3   1   2     1.402847817833    87.90969252    50.08600566
 C      4   3   1     1.380691855556   120.21668295     0.12662884
 C      5   4   3     2.447672772247   152.45399159     1.64210937
 C      2   1   3     1.368114030335     5.32340816   295.15248874
 C      7   2   4     1.434084376876   108.05010202   232.33320036
 C      2   1   3     1.434123425651   107.98851127    28.52548748
 C      1   2   7     1.381935599078    46.23448623   262.98685422
 N      1   2   7     1.351912719076    77.30090053    63.37707478
 N      9   2   1     1.376127174356   106.58526707   353.64195654
 N     12   9   2     2.925062050624   168.53581413   171.12065651
 N     13  12   9     2.954513327098    91.55032014    11.12112580
 N     14  13  12     2.925371258490    88.43092389   359.84326247
 C      8   7   2     1.404790019896   127.24786865   181.11170171
 C     13  12   9     1.366535034311    81.72106996   188.00453233
 C     14  13  12     5.758810554272    80.56209567   166.76250791
 C     17  13  12     1.459010623676   111.08861209   183.82872609
 C     18  14  13     2.412235892279    27.27532823    36.33507194
 C     20  18  14     1.402692767501    87.95206320   148.94598259
 C     21  20  18     1.382106725257   120.14573887   359.70382047
 C     18  14  13     2.446510985056   144.15733107    82.80075377
 C     19  17  13     1.353610726908   106.29293361   359.75308708
 C     13  12   9     1.366813447402   172.21332906    33.46711076
 C     18  14  13     1.380960173213    15.08449437   309.23336894
 N     22  21  20     1.352773077792   120.73759875     0.27865223
 C     25  13  17     1.410897586645   125.60330303   182.37774668
 C     14  13  12     1.376642291955    80.24689249   177.85461986
 C     14  13  12     5.764089607215   164.51507311   312.20821879
 C     29  14  13     1.435600919476   106.58649366   178.76395472
 C     30  14  13     2.413316804732    27.10625047    82.12560436
 C     32  30  14     1.403734305344    87.90059683   149.76154742
 C     33  32  30     1.380694028378   120.14881443   359.74174632
 C     34  33  32     2.448777858443   152.49203239     2.45173620
 C     31  29  14     1.368160809262   108.16950133     0.70383075
 C     14  13  12     1.376239804685   169.26375223   353.09862627
 C     30  14  13     1.380907310430    14.68948582   353.70041132
 N     34  33  32     1.352658863128   120.85575621     0.19603406
 C     37  14  29     1.404717053360   126.01551127   180.90772073
 C     15  14  13     1.366491126938    81.61824056   183.09049352
 C      2   1   3     4.249062720177   153.76246484   150.57320621
 C     41  15  14     1.459677704153   111.05201287   175.08990246
 C     42   2   1     2.412953791518    41.78584867   210.19326779
 C     44  42   2     1.403446472082    87.95153797   233.97558675
 C     45  44  42     1.381696421071   120.11137308     0.19721020
 C     42   2   1     2.450019795838   135.97209175   120.50811689
 C     43  41  15     1.354461516618   106.26758155     0.30894352
 C     15  14  13     1.367461151185   171.87382904   332.35056460
 C     42   2   1     1.381886391857    32.59078432   259.04854698
 C      9   2   1     1.404988612053   126.98745415   174.64629407
 N     42   2   1     1.352765315936   113.57249190   148.24470608
 H      1   2   7     1.082495265579   158.88025662   196.85915632
 H      2   1   3     1.079907866440   126.58797751   203.16532902
 H      4   3   1     1.084155431661   121.08481542   179.51649062
 H      5   4   3     1.081810519453   122.90644788   179.46204195
 H      6   5   4     1.091848432705   104.49263761   100.08386275
 H      6   5   4     1.089977522704    84.67282911   209.54645220
 H      6   5   4     1.089958714814   133.89062472   322.29965251
 H      7   2  54     1.079807853278   126.66122480     1.30600390
 H     10   1   2     1.084133755586   118.73613705   203.30096115
 H     12   9   2     1.016297692608   125.29023241   180.00180175
 H     14  13  12     1.014936943854    44.97226959   359.42596618
 H     18  14  13     1.082871645210   128.03556573   234.20482432
 H     19  17  13     1.080893611786   126.41830519   178.11313280
 H     21  20  18     1.083569563987   121.05669627   180.67006309
 H     22  21  20     1.082483256222   122.73097286   180.59748951
 H     23  18  14     1.092105306278   103.92715769   234.93429879
 H     23  18  14     1.088871893291   134.19244188    12.25587044
 H     23  18  14     1.089833473518    84.85857450   125.45241208
 H     24  19  17     1.080075460327   127.28078426   178.44613241
 H     26  18  14     1.083408048706   118.76995697   244.94906660
 H     30  14  13     1.082703098730   127.99711412   279.66882698
 H     31  29  14     1.079759695488   125.22293469   180.92530585
 H     33  32  30     1.083188810873   121.01964473   180.74284758
 H     34  33  32     1.082494341787   122.70821597   180.59516895
 H     35  34  33     1.092652735319   105.73575241    97.19771933
 H     35  34  33     1.089462711615    84.05943581   206.43036958
 H     35  34  33     1.089268102902   133.08365142   318.50306270
 H     36  31  29     1.079439669458   126.61599965   178.98859863
 H     38  30  73     1.083742127999   118.77264435   359.90091293
 H     42   2   1     1.082178358682   119.31790784     4.87623654
 H     43  41  15     1.080281907652   126.36969097   182.06329380
 H     45  44  42     1.083277434455   121.10105945   179.58025624
 H     46  45  44     1.082194529648   122.72144639   179.46906377
 H     47  42   2     1.091546151109   106.65128841   315.16475048
 H     47  42   2     1.088818625851   132.46019523    94.52397119
 H     47  42   2     1.089531091801    83.63838232   206.04504406
 H     48  43  41     1.080402239909   127.23657387   181.62955349
 H     50  42   2     1.083186502870   118.77001737    94.71359229

---------------------------
INTERNAL COORDINATES (A.U.)
---------------------------
 C      0   0   0     0.000000000000     0.00000000     0.00000000
 C      1   0   0    12.175511640134     0.00000000     0.00000000
 C      1   2   0     4.561115826183    20.92467425     0.00000000
 C      3   1   2     2.650998183274    87.90969252    50.08600566
 C      4   3   1     2.609129482337   120.21668295     0.12662884
 C      5   4   3     4.625431205003   152.45399159     1.64210937
 C      2   1   3     2.585360837309     5.32340816   295.15248874
 C      7   2   4     2.710026725231   108.05010202   232.33320036
 C      2   1   3     2.710100516721   107.98851127    28.52548748
 C      1   2   7     2.611479816974    46.23448623   262.98685422
 N      1   2   7     2.554744796019    77.30090053    63.37707478
 N      9   2   1     2.600503484979   106.58526707   353.64195654
 N     12   9   2     5.527566200405   168.53581413   171.12065651
 N     13  12   9     5.583221047236    91.55032014    11.12112580
 N     14  13  12     5.528150518591    88.43092389   359.84326247
 C      8   7   2     2.654668413270   127.24786865   181.11170171
 C     13  12   9     2.582376967257    81.72106996   188.00453233
 C     14  13  12    10.882574804710    80.56209567   166.76250791
 C     17  13  12     2.757130505230   111.08861209   183.82872609
 C     18  14  13     4.558465206823    27.27532823    36.33507194
 C     20  18  14     2.650705180609    87.95206320   148.94598259
 C     21  20  18     2.611803198586   120.14573887   359.70382047
 C     18  14  13     4.623235745386   144.15733107    82.80075377
 C     19  17  13     2.557953565794   106.29293361   359.75308708
 C     13  12   9     2.582903091751   172.21332906    33.46711076
 C     18  14  13     2.609636529225    15.08449437   309.23336894
 N     22  21  20     2.556370638369   120.73759875     0.27865223
 C     25  13  17     2.666210041769   125.60330303   182.37774668
 C     14  13  12     2.601476916169    80.24689249   177.85461986
 C     14  13  12    10.892550769017   164.51507311   312.20821879
 C     29  14  13     2.712892575415   106.58649366   178.76395472
 C     30  14  13     4.560507835333    27.10625047    82.12560436
 C     32  30  14     2.652673401891    87.90059683   149.76154742
 C     33  32  30     2.609133588376   120.14881443   359.74174632
 C     34  33  32     4.627519515267   152.49203239     2.45173620
 C     31  29  14     2.585449236669   108.16950133     0.70383075
 C     14  13  12     2.600716325456   169.26375223   353.09862627
 C     30  14  13     2.609536633043    14.68948582   353.70041132
 N     34  33  32     2.556154803934   120.85575621     0.19603406
 C     37  14  29     2.654530526499   126.01551127   180.90772073
 C     15  14  13     2.582293994346    81.61824056   183.09049352
 C      2   1   3     8.029564866989   153.76246484   150.57320621
 C     41  15  14     2.758391104639   111.05201287   175.08990246
 C     42   2   1     4.559821839776    41.78584867   210.19326779
 C     44  42   2     2.652129475853    87.95153797   233.97558675
 C     45  44  42     2.611027836043   120.11137308     0.19721020
 C     42   2   1     4.629866436820   135.97209175   120.50811689
 C     43  41  15     2.559561325344   106.26758155     0.30894352
 C     15  14  13     2.584127074516   171.87382904   332.35056460
 C     42   2   1     2.611386828803    32.59078432   259.04854698
 C      9   2   1     2.655043698059   126.98745415   174.64629407
 N     42   2   1     2.556355970587   113.57249190   148.24470608
 H      1   2   7     2.045619593210   158.88025662   196.85915632
 H      2   1   3     2.040730117440   126.58797751   203.16532902
 H      4   3   1     2.048756852442   121.08481542   179.51649062
 H      5   4   3     2.044325610562   122.90644788   179.46204195
 H      6   5   4     2.063294517563   104.49263761   100.08386275
 H      6   5   4     2.059759010041    84.67282911   209.54645220
 H      6   5   4     2.059723468280   133.89062472   322.29965251
 H      7   2  54     2.040541119952   126.66122480     1.30600390
 H     10   1   2     2.048715890596   118.73613705   203.30096115
 H     12   9   2     1.920524309565   125.29023241   180.00180175
 H     14  13  12     1.917952867083    44.97226959   359.42596618
 H     18  14  13     2.046330847636   128.03556573   234.20482432
 H     19  17  13     2.042592906181   126.41830519   178.11313280
 H     21  20  18     2.047649722989   121.05669627   180.67006309
 H     22  21  20     2.045596898814   122.73097286   180.59748951
 H     23  18  14     2.063779938267   103.92715769   234.93429879
 H     23  18  14     2.057669673245   134.19244188    12.25587044
 H     23  18  14     2.059486796529    84.85857450   125.45241208
 H     24  19  17     2.041046823986   127.28078426   178.44613241
 H     26  18  14     2.047344503340   118.76995697   244.94906660
 H     30  14  13     2.046012340948   127.99711412   279.66882698
 H     31  29  14     2.040450114918   125.22293469   180.92530585
 H     33  32  30     2.046930203877   121.01964473   180.74284758
 H     34  33  32     2.045617847496   122.70821597   180.59516895
 H     35  34  33     2.064814429233   105.73575241    97.19771933
 H     35  34  33     2.058786158072    84.05943581   206.43036958
 H     35  34  33     2.058418400901   133.08365142   318.50306270
 H     36  31  29     2.039845353366   126.61599965   178.98859863
 H     38  30  73     2.047975821711   118.77264435   359.90091293
 H     42   2   1     2.045020725966   119.31790784     4.87623654
 H     43  41  15     2.041436952892   126.36969097   182.06329380
 H     45  44  42     2.047097678177   121.10105945   179.58025624
 H     46  45  44     2.045051284662   122.72144639   179.46906377
 H     47  42   2     2.062723288131   106.65128841   315.16475048
 H     47  42   2     2.057569012371   132.46019523    94.52397119
 H     47  42   2     2.058915377895    83.63838232   206.04504406
 H     48  43  41     2.041664347903   127.23657387   181.62955349
 H     50  42   2     2.046925842384   118.77001737    94.71359229

---------------------
BASIS SET INFORMATION
---------------------
There are 3 groups of distinct atoms

 Group   1 Type C   : 17s4p1d contracted to 3s2p1d pattern {881/31/1}
 Group   2 Type N   : 17s4p1d contracted to 3s2p1d pattern {881/31/1}
 Group   3 Type H   : 4s1p contracted to 2s1p pattern {31/1}

Atom   0C    basis set group =>   1
Atom   1N    basis set group =>   2
Atom   2C    basis set group =>   1
Atom   3N    basis set group =>   2
Atom   4C    basis set group =>   1
Atom   5N    basis set group =>   2
Atom   6C    basis set group =>   1
Atom   7N    basis set group =>   2
Atom   8C    basis set group =>   1
Atom   9N    basis set group =>   2
Atom  10C    basis set group =>   1
Atom  11N    basis set group =>   2
Atom  12C    basis set group =>   1
Atom  13N    basis set group =>   2
Atom  14C    basis set group =>   1
Atom  15N    basis set group =>   2
Atom  16C    basis set group =>   1
Atom  17C    basis set group =>   1
Atom  18C    basis set group =>   1
Atom  19C    basis set group =>   1
Atom  20C    basis set group =>   1
Atom  21C    basis set group =>   1
Atom  22C    basis set group =>   1
Atom  23C    basis set group =>   1
Atom  24C    basis set group =>   1
Atom  25C    basis set group =>   1
Atom  26C    basis set group =>   1
Atom  27C    basis set group =>   1
Atom  28C    basis set group =>   1
Atom  29C    basis set group =>   1
Atom  30C    basis set group =>   1
Atom  31C    basis set group =>   1
Atom  32C    basis set group =>   1
Atom  33C    basis set group =>   1
Atom  34C    basis set group =>   1
Atom  35C    basis set group =>   1
Atom  36C    basis set group =>   1
Atom  37C    basis set group =>   1
Atom  38C    basis set group =>   1
Atom  39C    basis set group =>   1
Atom  40C    basis set group =>   1
Atom  41C    basis set group =>   1
Atom  42C    basis set group =>   1
Atom  43C    basis set group =>   1
Atom  44C    basis set group =>   1
Atom  45C    basis set group =>   1
Atom  46C    basis set group =>   1
Atom  47C    basis set group =>   1
Atom  48C    basis set group =>   1
Atom  49C    basis set group =>   1
Atom  50C    basis set group =>   1
Atom  51C    basis set group =>   1
Atom  52H    basis set group =>   3
Atom  53H    basis set group =>   3
Atom  54H    basis set group =>   3
Atom  55H    basis set group =>   3
Atom  56H    basis set group =>   3
Atom  57H    basis set group =>   3
Atom  58H    basis set group =>   3
Atom  59H    basis set group =>   3
Atom  60H    basis set group =>   3
Atom  61H    basis set group =>   3
Atom  62H    basis set group =>   3
Atom  63H    basis set group =>   3
Atom  64H    basis set group =>   3
Atom  65H    basis set group =>   3
Atom  66H    basis set group =>   3
Atom  67H    basis set group =>   3
Atom  68H    basis set group =>   3
Atom  69H    basis set group =>   3
Atom  70H    basis set group =>   3
Atom  71H    basis set group =>   3
Atom  72H    basis set group =>   3
Atom  73H    basis set group =>   3
Atom  74H    basis set group =>   3
Atom  75H    basis set group =>   3
Atom  76H    basis set group =>   3
Atom  77H    basis set group =>   3
Atom  78H    basis set group =>   3
Atom  79H    basis set group =>   3
Atom  80H    basis set group =>   3
Atom  81H    basis set group =>   3
Atom  82H    basis set group =>   3
Atom  83H    basis set group =>   3
Atom  84H    basis set group =>   3
Atom  85H    basis set group =>   3
Atom  86H    basis set group =>   3
Atom  87H    basis set group =>   3
Atom  88H    basis set group =>   3
Atom  89H    basis set group =>   3


           ************************************************************
           *        Program running with 16 parallel MPI-processes    *
           *              working on a common directory               *
           ************************************************************
------------------------------------------------------------------------------
                           ORCA GTO INTEGRAL CALCULATION
------------------------------------------------------------------------------
------------------------------------------------------------------------------
                   ___                                                        
                  /   \      - P O W E R E D   B Y -                         
                 /     \                                                     
                 |  |  |   _    _      __       _____    __    __             
                 |  |  |  | |  | |    /  \     |  _  \  |  |  /  |          
                  \  \/   | |  | |   /    \    | | | |  |  | /  /          
                 / \  \   | |__| |  /  /\  \   | |_| |  |  |/  /          
                |  |  |   |  __  | /  /__\  \  |    /   |      \           
                |  |  |   | |  | | |   __   |  |    \   |  |\   \          
                \     /   | |  | | |  |  |  |  | |\  \  |  | \   \       
                 \___/    |_|  |_| |__|  |__|  |_| \__\ |__|  \__/        
                                                                              
                      - O R C A' S   B I G   F R I E N D -                    
                                      &                                       
                       - I N T E G R A L  F E E D E R -                       
                                                                              
 v1 FN, 2020, v2 2021                                                         
------------------------------------------------------------------------------


Reading SHARK input file /scratch/allen/tmpyp4_amber_gaff2/conf1/conf1/Conf151.orca.SHARKINP.tmp ... ok
----------------------
SHARK INTEGRAL PACKAGE
----------------------

Number of atoms                             ...     90
Number of basis functions                   ...   1230
Number of shells                            ...    738
Maximum angular momentum                    ...      2
Integral batch strategy                     ... SHARK/LIBINT Hybrid
RI-J (if used) integral strategy            ... SPLIT-RIJ (Revised 2003 algorithm where possible)
Printlevel                                  ...      1
Contraction scheme used                     ... PARTIAL GENERAL contraction
Coulomb Range Separation                    ... NOT USED
Exchange Range Separation                   ... NOT USED
Finite Nucleus Model                        ... NOT USED
Auxiliary Coulomb fitting basis             ... NOT available
Auxiliary J/K fitting basis                 ... NOT available
Auxiliary Correlation fitting basis         ... NOT available
Auxiliary 'external' fitting basis          ... NOT available
Integral threshold                          ...     2.500000e-11
Primitive cut-off                           ...     2.500000e-12
Primitive pair pre-selection threshold      ...     2.500000e-12

Calculating pre-screening integrals         ... done (  0.1 sec) Dimension = 738
Calculating pre-screening integrals (ORCA)  ... done (  0.3 sec) Dimension = 426
Organizing shell pair data                  ... done (  0.7 sec)
Shell pair information
Total number of shell pairs                 ...    272691
Shell pairs after pre-screening             ...     71663
Total number of primitive shell pairs       ...    422091
Primitive shell pairs kept                  ...     92516
          la=0 lb=0:  29407 shell pairs
          la=1 lb=0:  26010 shell pairs
          la=1 lb=1:   4707 shell pairs
          la=2 lb=0:   7886 shell pairs
          la=2 lb=1:   3124 shell pairs
          la=2 lb=2:    529 shell pairs

Calculating one electron integrals          ... done (  0.2 sec)
Calculating Nuclear repulsion               ... done (  0.0 sec) ENN=   6231.299051140113 Eh

SHARK setup successfully completed in   2.9 seconds

Maximum memory used throughout the entire GTOINT-calculation: 99.0 MB


           ************************************************************
           *        Program running with 16 parallel MPI-processes    *
           *              working on a common directory               *
           ************************************************************
-------------------------------------------------------------------------------
                                 ORCA SCF
-------------------------------------------------------------------------------

------------
SCF SETTINGS
------------
Hamiltonian:
 Ab initio Hamiltonian  Method          .... Hartree-Fock(GTOs)


General Settings:
 Integral files         IntName         .... /scratch/allen/tmpyp4_amber_gaff2/conf1/conf1/Conf151.orca
 Hartree-Fock type      HFTyp           .... RHF
 Total Charge           Charge          ....    0
 Multiplicity           Mult            ....    1
 Number of Electrons    NEL             ....  358
 Basis Dimension        Dim             ....  918
 Nuclear Repulsion      ENuc            ....   6231.2990511401 Eh

Convergence Acceleration:
 DIIS                   CNVDIIS         .... on
   Start iteration      DIISMaxIt       ....    12
   Startup error        DIISStart       ....  0.200000
   # of expansion vecs  DIISMaxEq       ....     5
   Bias factor          DIISBfac        ....   1.050
   Max. coefficient     DIISMaxC        ....  10.000
 Trust-Rad. Augm. Hess. CNVTRAH         .... auto
   Auto Start mean grad. ratio tolernc. ....  1.125000
   Auto Start start iteration           ....    20
   Auto Start num. interpolation iter.  ....    10
   Max. Number of Micro iterations      ....    16
   Max. Number of Macro iterations      .... Maxiter - #DIIS iter
   Number of Davidson start vectors     ....     2
   Converg. threshold I  (grad. norm)   ....   1.000e-05
   Converg. threshold II (energy diff.) ....   1.000e-08
   Grad. Scal. Fac. for Micro threshold ....   0.100
   Minimum threshold for Micro iter.    ....   0.010
   NR start threshold (gradient norm)   ....   0.001
   Initial trust radius                 ....   0.400
   Minimum AH scaling param. (alpha)    ....   1.000
   Maximum AH scaling param. (alpha)    .... 1000.000
   Orbital update algorithm             .... Taylor
   White noise on init. David. guess    .... on
   Maximum white noise                  ....   0.010
   Quad. conv. algorithm                .... NR
 SOSCF                  CNVSOSCF        .... on
   Start iteration      SOSCFMaxIt      ....   150
   Startup grad/error   SOSCFStart      ....  0.003300
 Level Shifting         CNVShift        .... on
   Level shift para.    LevelShift      ....    0.2500
   Turn off err/grad.   ShiftErr        ....    0.0010
 Zerner damping         CNVZerner       .... off
 Static damping         CNVDamp         .... on
   Fraction old density DampFac         ....    0.7000
   Max. Damping (<1)    DampMax         ....    0.9800
   Min. Damping (>=0)   DampMin         ....    0.0000
   Turn off err/grad.   DampErr         ....    0.1000
 Fernandez-Rico         CNVRico         .... off

SCF Procedure:
 Maximum # iterations   MaxIter         ....   125
 SCF integral mode      SCFMode         .... Direct
   Integral package                     .... SHARK and LIBINT hybrid scheme
 Reset frequency        DirectResetFreq ....    20
 Integral Threshold     Thresh          ....  2.500e-11 Eh
 Primitive CutOff       TCut            ....  2.500e-12 Eh

Convergence Tolerance:
 Convergence Check Mode ConvCheckMode   .... Total+1el-Energy
 Convergence forced     ConvForced      .... 1
 Energy Change          TolE            ....  1.000e-08 Eh
 1-El. energy change                    ....  1.000e-05 Eh
 Orbital Gradient       TolG            ....  1.000e-05
 Orbital Rotation angle TolX            ....  1.000e-05
 DIIS Error             TolErr          ....  5.000e-07


Diagonalization of the overlap matrix:
Smallest eigenvalue                        ... 2.189e-04
Time for diagonalization                   ...    0.452 sec
Threshold for overlap eigenvalues          ... 1.000e-08
Number of eigenvalues below threshold      ... 0
Time for construction of square roots      ...    0.265 sec
Total time needed                          ...    0.723 sec

Time for model grid setup =    1.292 sec

------------------------------
INITIAL GUESS: MODEL POTENTIAL
------------------------------
Loading Hartree-Fock densities                     ... done
Calculating cut-offs                               ... done
Initializing the effective Hamiltonian             ... done
Setting up the integral package (SHARK)            ... done
Starting the Coulomb interaction                   ... done (   1.4 sec)
Reading the grid                                   ... done
Mapping shells                                     ... done
Starting the XC term evaluation                    ... done (   0.2 sec)
Transforming the Hamiltonian                       ... done (   0.3 sec)
Diagonalizing the Hamiltonian                      ... done (   0.4 sec)
Back transforming the eigenvectors                 ... done (   0.1 sec)
Now organizing SCF variables                       ... done
                      ------------------
                      INITIAL GUESS DONE (   3.8 sec)
                      ------------------
--------------
SCF ITERATIONS
--------------
ITER       Energy         Delta-E        Max-DP      RMS-DP      [F,P]     Damp
               ***  Starting incremental Fock matrix formation  ***
  0  -2121.6907056618   0.000000000000 0.07954577  0.00121783  0.2319450 0.7000
  1  -2122.3434537987  -0.652748136843 0.05978873  0.00099018  0.1437420 0.7000
                               ***Turning on DIIS***
  2  -2122.7495410767  -0.406087278030 0.13898749  0.00224987  0.0802574 0.0000
  3  -2117.9651460519   4.784395024832 0.03240942  0.00066839  0.0438018 0.0000
  4  -2123.4292008085  -5.464054756671 0.01050987  0.00022465  0.0082325 0.0000
  5  -2123.5825556047  -0.153354796215 0.00523785  0.00013197  0.0049683 0.0000
  6  -2123.5663064062   0.016249198501 0.00364150  0.00008484  0.0020031 0.0000
  7  -2123.6630639982  -0.096757591951 0.00309978  0.00006684  0.0015873 0.0000
  8  -2123.6732856989  -0.010221700701 0.00327328  0.00006323  0.0014769 0.0000
  9  -2123.6433846070   0.029901091950 0.00261442  0.00004436  0.0011820 0.0000
 10  -2123.6525793867  -0.009194779717 0.00527098  0.00009263  0.0009151 0.0000
                      *** Initiating the SOSCF procedure ***
                           *** Shutting down DIIS ***
                      *** Re-Reading the Fockian *** 
                      *** Removing any level shift *** 
ITER      Energy       Delta-E        Grad      Rot      Max-DP    RMS-DP
 11  -2123.54407869   0.1085006947  0.000182  0.000182  0.000245  0.000005
               *** Restarting incremental Fock matrix formation ***
 12  -2123.61006056  -0.0659818647  0.000848  0.006199  0.001403  0.000034
 13  -2123.61016472  -0.0001041660  0.001058  0.031452  0.006594  0.000136
 14  -2123.61034500  -0.0001802756  0.000344  0.001838  0.000634  0.000012
 15  -2123.61036050  -0.0000154980  0.000162  0.002384  0.000694  0.000016
 16  -2123.61036926  -0.0000087686  0.000158  0.002747  0.000461  0.000009
 17  -2123.61037202  -0.0000027530  0.000121  0.001866  0.000303  0.000006
 18  -2123.61037344  -0.0000014201  0.000066  0.000657  0.000273  0.000003
 19  -2123.61037407  -0.0000006284  0.000041  0.000576  0.000146  0.000003
 20  -2123.61037429  -0.0000002205  0.000020  0.000359  0.000091  0.000002
 21  -2123.61037439  -0.0000000995  0.000021  0.000357  0.000100  0.000002
 22  -2123.61037446  -0.0000000699  0.000014  0.000342  0.000080  0.000001
 23  -2123.61037450  -0.0000000440  0.000007  0.000240  0.000051  0.000001
 24  -2123.61037453  -0.0000000257  0.000004  0.000193  0.000036  0.000001
 25  -2123.61037454  -0.0000000154  0.000005  0.000139  0.000022  0.000000
 26  -2123.61037455  -0.0000000103  0.000004  0.000153  0.000023  0.000001
 27  -2123.61037456  -0.0000000079  0.000003  0.000139  0.000021  0.000000
                  ***Gradient check signals convergence***
              ***Rediagonalizing the Fockian in SOSCF/NRSCF***

               *****************************************************
               *                     SUCCESS                       *
               *           SCF CONVERGED AFTER  28 CYCLES          *
               *****************************************************


----------------
TOTAL SCF ENERGY
----------------

Total Energy       :        -2123.61037456 Eh          -57786.37609 eV

Components:
Nuclear Repulsion  :         6231.29905114 Eh          169562.26756 eV
Electronic Energy  :        -8354.90942570 Eh         -227348.64366 eV
One Electron Energy:       -15303.37548155 Eh         -416426.01754 eV
Two Electron Energy:         6948.46605585 Eh          189077.37389 eV

Virial components:
Potential Energy   :        -4245.78784692 Eh         -115533.76094 eV
Kinetic Energy     :         2122.17747236 Eh           57747.38484 eV
Virial Ratio       :            2.00067520


---------------
SCF CONVERGENCE
---------------

  Last Energy change         ...   -2.5448e-09  Tolerance :   1.0000e-08
  Last MAX-Density change    ...    1.2979e-05  Tolerance :   1.0000e-07
  Last RMS-Density change    ...    3.0602e-07  Tolerance :   5.0000e-09
  Last Orbital Gradient      ...    1.9504e-06  Tolerance :   1.0000e-05
  Last Orbital Rotation      ...    9.6250e-05  Tolerance :   1.0000e-05

             **** THE GBW FILE WAS UPDATED (/scratch/allen/tmpyp4_amber_gaff2/conf1/conf1/Conf151.orca.gbw) ****
             **** DENSITY /scratch/allen/tmpyp4_amber_gaff2/conf1/conf1/Conf151.orca.scfp WAS UPDATED ****
             **** ENERGY FILE WAS UPDATED (/scratch/allen/tmpyp4_amber_gaff2/conf1/conf1/Conf151.orca.en.tmp) ****
             **** THE GBW FILE WAS UPDATED (/scratch/allen/tmpyp4_amber_gaff2/conf1/conf1/Conf151.orca.gbw) ****
             **** DENSITY /scratch/allen/tmpyp4_amber_gaff2/conf1/conf1/Conf151.orca.scfp WAS UPDATED ****
----------------
ORBITAL ENERGIES
----------------

  NO   OCC          E(Eh)            E(eV) 
   0   2.0000     -15.673454      -426.4964 
   1   2.0000     -15.637248      -425.5111 
   2   2.0000     -15.628849      -425.2826 
   3   2.0000     -15.589896      -424.2226 
   4   2.0000     -15.525268      -422.4640 
   5   2.0000     -15.515841      -422.2075 
   6   2.0000     -15.451952      -420.4690 
   7   2.0000     -15.442584      -420.2141 
   8   2.0000     -11.324597      -308.1579 
   9   2.0000     -11.324020      -308.1423 
  10   2.0000     -11.322560      -308.1025 
  11   2.0000     -11.301366      -307.5258 
  12   2.0000     -11.296456      -307.3922 
  13   2.0000     -11.295393      -307.3633 
  14   2.0000     -11.289881      -307.2133 
  15   2.0000     -11.288301      -307.1703 
  16   2.0000     -11.284287      -307.0611 
  17   2.0000     -11.276127      -306.8390 
  18   2.0000     -11.272514      -306.7407 
  19   2.0000     -11.258965      -306.3720 
  20   2.0000     -11.258018      -306.3462 
  21   2.0000     -11.255206      -306.2697 
  22   2.0000     -11.254141      -306.2407 
  23   2.0000     -11.240911      -305.8807 
  24   2.0000     -11.233677      -305.6839 
  25   2.0000     -11.233660      -305.6834 
  26   2.0000     -11.233074      -305.6675 
  27   2.0000     -11.227506      -305.5160 
  28   2.0000     -11.227194      -305.5075 
  29   2.0000     -11.210829      -305.0622 
  30   2.0000     -11.209365      -305.0223 
  31   2.0000     -11.199366      -304.7502 
  32   2.0000     -11.192126      -304.5532 
  33   2.0000     -11.191532      -304.5371 
  34   2.0000     -11.189534      -304.4827 
  35   2.0000     -11.188831      -304.4636 
  36   2.0000     -11.188771      -304.4619 
  37   2.0000     -11.184816      -304.3543 
  38   2.0000     -11.183745      -304.3252 
  39   2.0000     -11.174496      -304.0735 
  40   2.0000     -11.173372      -304.0429 
  41   2.0000     -11.168695      -303.9156 
  42   2.0000     -11.168669      -303.9149 
  43   2.0000     -11.161606      -303.7227 
  44   2.0000     -11.160054      -303.6805 
  45   2.0000     -11.158175      -303.6294 
  46   2.0000     -11.158050      -303.6260 
  47   2.0000     -11.153106      -303.4914 
  48   2.0000     -11.147180      -303.3302 
  49   2.0000     -11.139446      -303.1197 
  50   2.0000     -11.133492      -302.9577 
  51   2.0000     -11.124843      -302.7224 
  52   2.0000      -1.354992       -36.8712 
  53   2.0000      -1.324061       -36.0295 
  54   2.0000      -1.317027       -35.8381 
  55   2.0000      -1.284023       -34.9400 
  56   2.0000      -1.226018       -33.3616 
  57   2.0000      -1.210168       -32.9304 
  58   2.0000      -1.170748       -31.8577 
  59   2.0000      -1.152987       -31.3744 
  60   2.0000      -1.139115       -30.9969 
  61   2.0000      -1.112589       -30.2751 
  62   2.0000      -1.106812       -30.1179 
  63   2.0000      -1.080412       -29.3995 
  64   2.0000      -1.077085       -29.3090 
  65   2.0000      -1.048140       -28.5213 
  66   2.0000      -1.041803       -28.3489 
  67   2.0000      -1.038220       -28.2514 
  68   2.0000      -1.015102       -27.6223 
  69   2.0000      -1.012966       -27.5642 
  70   2.0000      -1.009286       -27.4641 
  71   2.0000      -0.993372       -27.0310 
  72   2.0000      -0.986680       -26.8489 
  73   2.0000      -0.980082       -26.6694 
  74   2.0000      -0.971959       -26.4483 
  75   2.0000      -0.960193       -26.1282 
  76   2.0000      -0.952710       -25.9245 
  77   2.0000      -0.946319       -25.7507 
  78   2.0000      -0.935129       -25.4462 
  79   2.0000      -0.919149       -25.0113 
  80   2.0000      -0.906094       -24.6561 
  81   2.0000      -0.893719       -24.3193 
  82   2.0000      -0.875579       -23.8257 
  83   2.0000      -0.872483       -23.7415 
  84   2.0000      -0.867652       -23.6100 
  85   2.0000      -0.856186       -23.2980 
  86   2.0000      -0.839547       -22.8452 
  87   2.0000      -0.836851       -22.7719 
  88   2.0000      -0.823572       -22.4105 
  89   2.0000      -0.797948       -21.7133 
  90   2.0000      -0.791620       -21.5411 
  91   2.0000      -0.750145       -20.4125 
  92   2.0000      -0.741235       -20.1700 
  93   2.0000      -0.733350       -19.9555 
  94   2.0000      -0.724478       -19.7141 
  95   2.0000      -0.721079       -19.6216 
  96   2.0000      -0.715567       -19.4716 
  97   2.0000      -0.710552       -19.3351 
  98   2.0000      -0.705712       -19.2034 
  99   2.0000      -0.696870       -18.9628 
 100   2.0000      -0.696118       -18.9423 
 101   2.0000      -0.683880       -18.6093 
 102   2.0000      -0.680208       -18.5094 
 103   2.0000      -0.679655       -18.4944 
 104   2.0000      -0.676260       -18.4020 
 105   2.0000      -0.671643       -18.2763 
 106   2.0000      -0.668735       -18.1972 
 107   2.0000      -0.661632       -18.0039 
 108   2.0000      -0.655391       -17.8341 
 109   2.0000      -0.653966       -17.7953 
 110   2.0000      -0.649171       -17.6648 
 111   2.0000      -0.642987       -17.4966 
 112   2.0000      -0.641556       -17.4576 
 113   2.0000      -0.640480       -17.4283 
 114   2.0000      -0.637013       -17.3340 
 115   2.0000      -0.626163       -17.0388 
 116   2.0000      -0.624021       -16.9805 
 117   2.0000      -0.617208       -16.7951 
 118   2.0000      -0.614900       -16.7323 
 119   2.0000      -0.613167       -16.6851 
 120   2.0000      -0.609200       -16.5772 
 121   2.0000      -0.607344       -16.5267 
 122   2.0000      -0.599450       -16.3119 
 123   2.0000      -0.586445       -15.9580 
 124   2.0000      -0.583334       -15.8733 
 125   2.0000      -0.580675       -15.8010 
 126   2.0000      -0.578732       -15.7481 
 127   2.0000      -0.577006       -15.7011 
 128   2.0000      -0.566931       -15.4270 
 129   2.0000      -0.558786       -15.2053 
 130   2.0000      -0.550581       -14.9821 
 131   2.0000      -0.547665       -14.9027 
 132   2.0000      -0.543651       -14.7935 
 133   2.0000      -0.540692       -14.7130 
 134   2.0000      -0.539585       -14.6829 
 135   2.0000      -0.534267       -14.5381 
 136   2.0000      -0.526980       -14.3399 
 137   2.0000      -0.522505       -14.2181 
 138   2.0000      -0.518331       -14.1045 
 139   2.0000      -0.513356       -13.9691 
 140   2.0000      -0.512391       -13.9429 
 141   2.0000      -0.510415       -13.8891 
 142   2.0000      -0.510341       -13.8871 
 143   2.0000      -0.503717       -13.7068 
 144   2.0000      -0.500379       -13.6160 
 145   2.0000      -0.496401       -13.5077 
 146   2.0000      -0.494067       -13.4442 
 147   2.0000      -0.483606       -13.1596 
 148   2.0000      -0.479054       -13.0357 
 149   2.0000      -0.466895       -12.7048 
 150   2.0000      -0.465905       -12.6779 
 151   2.0000      -0.457219       -12.4416 
 152   2.0000      -0.449895       -12.2423 
 153   2.0000      -0.446144       -12.1402 
 154   2.0000      -0.442144       -12.0314 
 155   2.0000      -0.433135       -11.7862 
 156   2.0000      -0.429052       -11.6751 
 157   2.0000      -0.421479       -11.4690 
 158   2.0000      -0.405469       -11.0334 
 159   2.0000      -0.386945       -10.5293 
 160   2.0000      -0.383484       -10.4351 
 161   2.0000      -0.378370       -10.2960 
 162   2.0000      -0.371219       -10.1014 
 163   2.0000      -0.358930        -9.7670 
 164   2.0000      -0.353758        -9.6262 
 165   2.0000      -0.339795        -9.2463 
 166   2.0000      -0.337756        -9.1908 
 167   2.0000      -0.327110        -8.9011 
 168   2.0000      -0.324342        -8.8258 
 169   2.0000      -0.304988        -8.2991 
 170   2.0000      -0.299513        -8.1502 
 171   2.0000      -0.285687        -7.7739 
 172   2.0000      -0.281782        -7.6677 
 173   2.0000      -0.261896        -7.1266 
 174   2.0000      -0.243475        -6.6253 
 175   2.0000      -0.189976        -5.1695 
 176   2.0000      -0.180364        -4.9080 
 177   2.0000      -0.076017        -2.0685 
 178   2.0000      -0.058455        -1.5907 
 179   0.0000       0.028386         0.7724 
 180   0.0000       0.066163         1.8004 
 181   0.0000       0.091385         2.4867 
 182   0.0000       0.109678         2.9845 
 183   0.0000       0.110668         3.0114 
 184   0.0000       0.134947         3.6721 
 185   0.0000       0.141211         3.8426 
 186   0.0000       0.144225         3.9246 
 187   0.0000       0.163236         4.4419 
 188   0.0000       0.164175         4.4674 
 189   0.0000       0.167289         4.5522 
 190   0.0000       0.170430         4.6376 
 191   0.0000       0.183683         4.9983 
 192   0.0000       0.187107         5.0914 
 193   0.0000       0.187193         5.0938 
 194   0.0000       0.203029         5.5247 
 195   0.0000       0.206374         5.6157 
 196   0.0000       0.207302         5.6410 
 197   0.0000       0.210381         5.7248 
 198   0.0000       0.219589         5.9753 
 199   0.0000       0.227015         6.1774 
 200   0.0000       0.232128         6.3165 
 201   0.0000       0.236505         6.4356 
 202   0.0000       0.238090         6.4788 
 203   0.0000       0.241112         6.5610 
 204   0.0000       0.247975         6.7477 
 205   0.0000       0.255209         6.9446 
 206   0.0000       0.257319         7.0020 
 207   0.0000       0.257873         7.0171 
 208   0.0000       0.260021         7.0755 
 209   0.0000       0.261293         7.1102 
 210   0.0000       0.263877         7.1805 
 211   0.0000       0.268474         7.3056 
 212   0.0000       0.271220         7.3803 
 213   0.0000       0.271919         7.3993 
 214   0.0000       0.272621         7.4184 
 215   0.0000       0.276739         7.5305 
 216   0.0000       0.278579         7.5805 
 217   0.0000       0.280564         7.6345 
 218   0.0000       0.285302         7.7635 
 219   0.0000       0.288660         7.8548 
 220   0.0000       0.289158         7.8684 
 221   0.0000       0.292896         7.9701 
 222   0.0000       0.294145         8.0041 
 223   0.0000       0.295309         8.0358 
 224   0.0000       0.299022         8.1368 
 225   0.0000       0.299956         8.1622 
 226   0.0000       0.305775         8.3205 
 227   0.0000       0.308595         8.3973 
 228   0.0000       0.309931         8.4336 
 229   0.0000       0.323363         8.7992 
 230   0.0000       0.326431         8.8826 
 231   0.0000       0.331316         9.0156 
 232   0.0000       0.334966         9.1149 
 233   0.0000       0.338994         9.2245 
 234   0.0000       0.347982         9.4691 
 235   0.0000       0.354839         9.6556 
 236   0.0000       0.367912        10.0114 
 237   0.0000       0.377598        10.2750 
 238   0.0000       0.393295        10.7021 
 239   0.0000       0.396485        10.7889 
 240   0.0000       0.400644        10.9021 
 241   0.0000       0.410672        11.1750 
 242   0.0000       0.415107        11.2956 
 243   0.0000       0.419514        11.4156 
 244   0.0000       0.427577        11.6350 
 245   0.0000       0.434567        11.8252 
 246   0.0000       0.437297        11.8995 
 247   0.0000       0.438782        11.9399 
 248   0.0000       0.443227        12.0608 
 249   0.0000       0.449443        12.2300 
 250   0.0000       0.455671        12.3994 
 251   0.0000       0.459447        12.5022 
 252   0.0000       0.467835        12.7304 
 253   0.0000       0.469553        12.7772 
 254   0.0000       0.471379        12.8269 
 255   0.0000       0.474892        12.9225 
 256   0.0000       0.477781        13.0011 
 257   0.0000       0.481905        13.1133 
 258   0.0000       0.486479        13.2378 
 259   0.0000       0.497701        13.5431 
 260   0.0000       0.502955        13.6861 
 261   0.0000       0.504538        13.7292 
 262   0.0000       0.507139        13.8000 
 263   0.0000       0.509060        13.8522 
 264   0.0000       0.514377        13.9969 
 265   0.0000       0.518208        14.1012 
 266   0.0000       0.524427        14.2704 
 267   0.0000       0.529279        14.4024 
 268   0.0000       0.532520        14.4906 
 269   0.0000       0.536460        14.5978 
 270   0.0000       0.539796        14.6886 
 271   0.0000       0.548018        14.9123 
 272   0.0000       0.553703        15.0670 
 273   0.0000       0.558189        15.1891 
 274   0.0000       0.561958        15.2917 
 275   0.0000       0.564082        15.3495 
 276   0.0000       0.570440        15.5225 
 277   0.0000       0.571018        15.5382 
 278   0.0000       0.577795        15.7226 
 279   0.0000       0.587215        15.9789 
 280   0.0000       0.589098        16.0302 
 281   0.0000       0.591812        16.1040 
 282   0.0000       0.593224        16.1424 
 283   0.0000       0.595785        16.2121 
 284   0.0000       0.596963        16.2442 
 285   0.0000       0.598710        16.2917 
 286   0.0000       0.608199        16.5499 
 287   0.0000       0.612073        16.6554 
 288   0.0000       0.617776        16.8105 
 289   0.0000       0.623295        16.9607 
 290   0.0000       0.627277        17.0691 
 291   0.0000       0.630325        17.1520 
 292   0.0000       0.634179        17.2569 
 293   0.0000       0.636825        17.3289 
 294   0.0000       0.645718        17.5709 
 295   0.0000       0.649434        17.6720 
 296   0.0000       0.653632        17.7862 
 297   0.0000       0.656297        17.8587 
 298   0.0000       0.663994        18.0682 
 299   0.0000       0.668190        18.1824 
 300   0.0000       0.669836        18.2272 
 301   0.0000       0.675032        18.3686 
 302   0.0000       0.676144        18.3988 
 303   0.0000       0.678844        18.4723 
 304   0.0000       0.681448        18.5432 
 305   0.0000       0.686066        18.6688 
 306   0.0000       0.688434        18.7332 
 307   0.0000       0.690844        18.7988 
 308   0.0000       0.695548        18.9268 
 309   0.0000       0.697679        18.9848 
 310   0.0000       0.702044        19.1036 
 311   0.0000       0.704254        19.1637 
 312   0.0000       0.708365        19.2756 
 313   0.0000       0.709944        19.3186 
 314   0.0000       0.710873        19.3438 
 315   0.0000       0.714972        19.4554 
 316   0.0000       0.716826        19.5058 
 317   0.0000       0.718843        19.5607 
 318   0.0000       0.721575        19.6351 
 319   0.0000       0.724509        19.7149 
 320   0.0000       0.726146        19.7594 
 321   0.0000       0.731878        19.9154 
 322   0.0000       0.732454        19.9311 
 323   0.0000       0.733809        19.9680 
 324   0.0000       0.736641        20.0450 
 325   0.0000       0.739872        20.1329 
 326   0.0000       0.744990        20.2722 
 327   0.0000       0.745969        20.2988 
 328   0.0000       0.749857        20.4047 
 329   0.0000       0.752190        20.4681 
 330   0.0000       0.753040        20.4913 
 331   0.0000       0.756718        20.5913 
 332   0.0000       0.760747        20.7010 
 333   0.0000       0.761948        20.7337 
 334   0.0000       0.767578        20.8869 
 335   0.0000       0.772698        21.0262 
 336   0.0000       0.776594        21.1322 
 337   0.0000       0.782345        21.2887 
 338   0.0000       0.783355        21.3162 
 339   0.0000       0.788241        21.4491 
 340   0.0000       0.793144        21.5826 
 341   0.0000       0.794780        21.6271 
 342   0.0000       0.795922        21.6581 
 343   0.0000       0.802240        21.8301 
 344   0.0000       0.804059        21.8795 
 345   0.0000       0.805780        21.9264 
 346   0.0000       0.807912        21.9844 
 347   0.0000       0.811889        22.0926 
 348   0.0000       0.815147        22.1813 
 349   0.0000       0.817503        22.2454 
 350   0.0000       0.819086        22.2885 
 351   0.0000       0.820605        22.3298 
 352   0.0000       0.822145        22.3717 
 353   0.0000       0.823529        22.4094 
 354   0.0000       0.830312        22.5939 
 355   0.0000       0.832536        22.6545 
 356   0.0000       0.834144        22.6982 
 357   0.0000       0.835533        22.7360 
 358   0.0000       0.836467        22.7614 
 359   0.0000       0.838963        22.8293 
 360   0.0000       0.842072        22.9139 
 361   0.0000       0.843647        22.9568 
 362   0.0000       0.844525        22.9807 
 363   0.0000       0.844849        22.9895 
 364   0.0000       0.849222        23.1085 
 365   0.0000       0.853965        23.2376 
 366   0.0000       0.857642        23.3376 
 367   0.0000       0.861568        23.4445 
 368   0.0000       0.863183        23.4884 
 369   0.0000       0.865136        23.5416 
 370   0.0000       0.870364        23.6838 
 371   0.0000       0.872051        23.7297 
 372   0.0000       0.874654        23.8006 
 373   0.0000       0.880063        23.9477 
 374   0.0000       0.880492        23.9594 
 375   0.0000       0.881973        23.9997 
 376   0.0000       0.886062        24.1110 
 377   0.0000       0.888630        24.1808 
 378   0.0000       0.892469        24.2853 
 379   0.0000       0.893686        24.3184 
 380   0.0000       0.895887        24.3783 
 381   0.0000       0.899014        24.4634 
 382   0.0000       0.900973        24.5167 
 383   0.0000       0.902035        24.5456 
 384   0.0000       0.903665        24.5900 
 385   0.0000       0.906313        24.6620 
 386   0.0000       0.906483        24.6667 
 387   0.0000       0.909278        24.7427 
 388   0.0000       0.911823        24.8120 
 389   0.0000       0.915500        24.9120 
 390   0.0000       0.920188        25.0396 
 391   0.0000       0.923180        25.1210 
 392   0.0000       0.925855        25.1938 
 393   0.0000       0.927475        25.2379 
 394   0.0000       0.928400        25.2630 
 395   0.0000       0.929957        25.3054 
 396   0.0000       0.931717        25.3533 
 397   0.0000       0.933051        25.3896 
 398   0.0000       0.941904        25.6305 
 399   0.0000       0.942749        25.6535 
 400   0.0000       0.945744        25.7350 
 401   0.0000       0.951016        25.8784 
 402   0.0000       0.953440        25.9444 
 403   0.0000       0.953671        25.9507 
 404   0.0000       0.960618        26.1398 
 405   0.0000       0.963692        26.2234 
 406   0.0000       0.967231        26.3197 
 407   0.0000       0.968900        26.3651 
 408   0.0000       0.970769        26.4160 
 409   0.0000       0.978998        26.6399 
 410   0.0000       0.980961        26.6933 
 411   0.0000       0.984833        26.7987 
 412   0.0000       0.990880        26.9632 
 413   0.0000       0.996276        27.1100 
 414   0.0000       0.999941        27.2098 
 415   0.0000       1.006013        27.3750 
 416   0.0000       1.006769        27.3956 
 417   0.0000       1.009491        27.4696 
 418   0.0000       1.014887        27.6165 
 419   0.0000       1.021924        27.8080 
 420   0.0000       1.028169        27.9779 
 421   0.0000       1.029453        28.0128 
 422   0.0000       1.041456        28.3395 
 423   0.0000       1.044234        28.4151 
 424   0.0000       1.050311        28.5804 
 425   0.0000       1.058208        28.7953 
 426   0.0000       1.061718        28.8908 
 427   0.0000       1.066363        29.0172 
 428   0.0000       1.072165        29.1751 
 429   0.0000       1.077686        29.3253 
 430   0.0000       1.079593        29.3772 
 431   0.0000       1.083851        29.4931 
 432   0.0000       1.086964        29.5778 
 433   0.0000       1.091972        29.7141 
 434   0.0000       1.096609        29.8402 
 435   0.0000       1.104765        30.0622 
 436   0.0000       1.106615        30.1125 
 437   0.0000       1.111256        30.2388 
 438   0.0000       1.117044        30.3963 
 439   0.0000       1.118983        30.4491 
 440   0.0000       1.120827        30.4993 
 441   0.0000       1.122233        30.5375 
 442   0.0000       1.125479        30.6258 
 443   0.0000       1.128850        30.7176 
 444   0.0000       1.131065        30.7778 
 445   0.0000       1.133924        30.8556 
 446   0.0000       1.141065        31.0500 
 447   0.0000       1.145313        31.1656 
 448   0.0000       1.148990        31.2656 
 449   0.0000       1.150560        31.3083 
 450   0.0000       1.152382        31.3579 
 451   0.0000       1.154858        31.4253 
 452   0.0000       1.160484        31.5784 
 453   0.0000       1.164484        31.6872 
 454   0.0000       1.166643        31.7460 
 455   0.0000       1.171230        31.8708 
 456   0.0000       1.172997        31.9189 
 457   0.0000       1.178265        32.0622 
 458   0.0000       1.184534        32.2328 
 459   0.0000       1.186610        32.2893 
 460   0.0000       1.192035        32.4369 
 461   0.0000       1.197605        32.5885 
 462   0.0000       1.201644        32.6984 
 463   0.0000       1.203263        32.7425 
 464   0.0000       1.206279        32.8245 
 465   0.0000       1.207806        32.8661 
 466   0.0000       1.212081        32.9824 
 467   0.0000       1.217118        33.1195 
 468   0.0000       1.219337        33.1798 
 469   0.0000       1.227059        33.3900 
 470   0.0000       1.228613        33.4323 
 471   0.0000       1.232926        33.5496 
 472   0.0000       1.234121        33.5821 
 473   0.0000       1.235754        33.6266 
 474   0.0000       1.242281        33.8042 
 475   0.0000       1.243364        33.8336 
 476   0.0000       1.248228        33.9660 
 477   0.0000       1.251514        34.0554 
 478   0.0000       1.253786        34.1173 
 479   0.0000       1.254495        34.1366 
 480   0.0000       1.258575        34.2476 
 481   0.0000       1.261965        34.3398 
 482   0.0000       1.270171        34.5631 
 483   0.0000       1.272091        34.6154 
 484   0.0000       1.274484        34.6805 
 485   0.0000       1.276855        34.7450 
 486   0.0000       1.281863        34.8813 
 487   0.0000       1.285417        34.9780 
 488   0.0000       1.289534        35.0900 
 489   0.0000       1.291985        35.1567 
 490   0.0000       1.294135        35.2152 
 491   0.0000       1.295319        35.2474 
 492   0.0000       1.300724        35.3945 
 493   0.0000       1.302631        35.4464 
 494   0.0000       1.311078        35.6762 
 495   0.0000       1.313672        35.7468 
 496   0.0000       1.318364        35.8745 
 497   0.0000       1.321915        35.9711 
 498   0.0000       1.326186        36.0874 
 499   0.0000       1.327159        36.1138 
 500   0.0000       1.330548        36.2061 
 501   0.0000       1.335519        36.3413 
 502   0.0000       1.336924        36.3795 
 503   0.0000       1.344550        36.5871 
 504   0.0000       1.346900        36.6510 
 505   0.0000       1.349339        36.7174 
 506   0.0000       1.350559        36.7506 
 507   0.0000       1.355961        36.8976 
 508   0.0000       1.360577        37.0232 
 509   0.0000       1.363006        37.0893 
[...]
      pz      :     0.022095  p :     0.079756
      px      :     0.043575
      py      :     0.014086
 77 H s       :     0.885200  s :     0.885200
      pz      :     0.047932  p :     0.079234
      px      :     0.015021
      py      :     0.016281
 78 H s       :     0.885612  s :     0.885612
      pz      :     0.025856  p :     0.079189
      px      :     0.020468
      py      :     0.032865
 79 H s       :     0.910208  s :     0.910208
      pz      :     0.021846  p :     0.086397
      px      :     0.021676
      py      :     0.042874
 80 H s       :     0.865469  s :     0.865469
      pz      :     0.039313  p :     0.084736
      px      :     0.030243
      py      :     0.015181
 81 H s       :     0.887135  s :     0.887135
      pz      :     0.037797  p :     0.084085
      px      :     0.016194
      py      :     0.030094
 82 H s       :     0.916129  s :     0.916129
      pz      :     0.021996  p :     0.086733
      px      :     0.031600
      py      :     0.033138
 83 H s       :     0.873787  s :     0.873787
      pz      :     0.039229  p :     0.084035
      px      :     0.015283
      py      :     0.029523
 84 H s       :     0.887174  s :     0.887174
      pz      :     0.035743  p :     0.083477
      px      :     0.031684
      py      :     0.016050
 85 H s       :     0.893339  s :     0.893339
      pz      :     0.022482  p :     0.079762
      px      :     0.014087
      py      :     0.043194
 86 H s       :     0.891250  s :     0.891250
      pz      :     0.024719  p :     0.078808
      px      :     0.032963
      py      :     0.021126
 87 H s       :     0.890117  s :     0.890117
      pz      :     0.047992  p :     0.078715
      px      :     0.015588
      py      :     0.015135
 88 H s       :     0.910984  s :     0.910984
      pz      :     0.021721  p :     0.087035
      px      :     0.042865
      py      :     0.022449
 89 H s       :     0.871438  s :     0.871438
      pz      :     0.037938  p :     0.083828
      px      :     0.030468
      py      :     0.015422


                      *****************************
                      * MAYER POPULATION ANALYSIS *
                      *****************************

  NA   - Mulliken gross atomic population
  ZA   - Total nuclear charge
  QA   - Mulliken gross atomic charge
  VA   - Mayer's total valence
  BVA  - Mayer's bonded valence
  FA   - Mayer's free valence

  ATOM       NA         ZA         QA         VA         BVA        FA
  0 C      5.7915     6.0000     0.2085     3.8405     3.8405    -0.0000
  1 N      7.4557     7.0000    -0.4557     3.3295     3.3295     0.0000
  2 C      6.0678     6.0000    -0.0678     3.9208     3.9208    -0.0000
  3 N      7.3372     7.0000    -0.3372     3.4596     3.4596    -0.0000
  4 C      6.0540     6.0000    -0.0540     4.0314     4.0314    -0.0000
  5 N      7.5622     7.0000    -0.5622     3.0961     3.0961    -0.0000
  6 C      6.1212     6.0000    -0.1212     3.9961     3.9961    -0.0000
  7 N      7.3404     7.0000    -0.3404     3.4339     3.4339     0.0000
  8 C      5.7909     6.0000     0.2091     3.8432     3.8432     0.0000
  9 N      7.5627     7.0000    -0.5627     3.0785     3.0785    -0.0000
 10 C      5.8810     6.0000     0.1190     3.9093     3.9093     0.0000
 11 N      7.4378     7.0000    -0.4378     3.3815     3.3815     0.0000
 12 C      6.0795     6.0000    -0.0795     3.8938     3.8938     0.0000
 13 N      7.4309     7.0000    -0.4309     3.4214     3.4214     0.0000
 14 C      5.7797     6.0000     0.2203     3.7848     3.7848     0.0000
 15 N      7.4415     7.0000    -0.4415     3.3694     3.3694    -0.0000
 16 C      5.7697     6.0000     0.2303     3.7786     3.7786     0.0000
 17 C      6.1181     6.0000    -0.1181     3.9967     3.9967    -0.0000
 18 C      6.1618     6.0000    -0.1618     3.7550     3.7550    -0.0000
 19 C      5.7928     6.0000     0.2072     3.8646     3.8646     0.0000
 20 C      5.7859     6.0000     0.2141     3.8283     3.8283    -0.0000
 21 C      6.0916     6.0000    -0.0916     3.8917     3.8917     0.0000
 22 C      6.0889     6.0000    -0.0889     3.9818     3.9818    -0.0000
 23 C      6.0409     6.0000    -0.0409     3.9922     3.9922    -0.0000
 24 C      5.8037     6.0000     0.1963     3.8214     3.8214    -0.0000
 25 C      5.8858     6.0000     0.1142     3.8903     3.8903    -0.0000
 26 C      6.0782     6.0000    -0.0782     3.9058     3.9058     0.0000
 27 C      5.7875     6.0000     0.2125     3.8636     3.8636     0.0000
 28 C      6.0602     6.0000    -0.0602     3.9887     3.9887    -0.0000
 29 C      6.1811     6.0000    -0.1811     3.7453     3.7453     0.0000
 30 C      5.7555     6.0000     0.2445     3.7979     3.7979     0.0000
 31 C      5.7714     6.0000     0.2286     3.8190     3.8190    -0.0000
 32 C      6.0615     6.0000    -0.0615     3.9232     3.9232    -0.0000
 33 C      6.0635     6.0000    -0.0635     3.9736     3.9736    -0.0000
 34 C      6.0498     6.0000    -0.0498     3.9850     3.9850     0.0000
 35 C      5.7762     6.0000     0.2238     3.8176     3.8176     0.0000
 36 C      5.8909     6.0000     0.1091     3.8771     3.8771     0.0000
 37 C      6.0646     6.0000    -0.0646     3.9175     3.9175    -0.0000
 38 C      5.7669     6.0000     0.2331     3.8019     3.8019    -0.0000
 39 C      6.0592     6.0000    -0.0592     3.9841     3.9841    -0.0000
 40 C      6.1816     6.0000    -0.1816     3.7287     3.7287    -0.0000
 41 C      5.7761     6.0000     0.2239     3.8857     3.8857     0.0000
 42 C      5.8027     6.0000     0.1973     3.8264     3.8264    -0.0000
 43 C      6.0728     6.0000    -0.0728     3.9001     3.9001    -0.0000
 44 C      6.0912     6.0000    -0.0912     3.9858     3.9858    -0.0000
 45 C      6.0606     6.0000    -0.0606     3.9922     3.9922     0.0000
 46 C      5.7908     6.0000     0.2092     3.8286     3.8286    -0.0000
 47 C      5.8843     6.0000     0.1157     3.8939     3.8939     0.0000
 48 C      6.0683     6.0000    -0.0683     3.9087     3.9087    -0.0000
 49 C      5.7632     6.0000     0.2368     3.8939     3.8939     0.0000
 50 C      6.0472     6.0000    -0.0472     3.9906     3.9906    -0.0000
 51 C      6.1939     6.0000    -0.1939     3.7369     3.7369     0.0000
 52 H      0.9606     1.0000     0.0394     0.9861     0.9861     0.0000
 53 H      1.0168     1.0000    -0.0168     0.9986     0.9986     0.0000
 54 H      0.9482     1.0000     0.0518     1.0136     1.0136    -0.0000
 55 H      0.9618     1.0000     0.0382     0.9867     0.9867    -0.0000
 56 H      0.9507     1.0000     0.0493     0.9696     0.9696     0.0000
 57 H      0.9519     1.0000     0.0481     0.9823     0.9823     0.0000
 58 H      0.9530     1.0000     0.0470     0.9851     0.9851     0.0000
 59 H      0.9984     1.0000     0.0016     1.0039     1.0039     0.0000
 60 H      0.9477     1.0000     0.0523     1.0171     1.0171    -0.0000
 61 H      0.8290     1.0000     0.1710     1.0419     1.0419    -0.0000
 62 H      0.8246     1.0000     0.1754     1.0436     1.0436     0.0000
 63 H      0.9435     1.0000     0.0565     0.9852     0.9852     0.0000
 64 H      1.0044     1.0000    -0.0044     0.9976     0.9976     0.0000
 65 H      0.9529     1.0000     0.0471     1.0098     1.0098     0.0000
 66 H      0.9434     1.0000     0.0566     0.9854     0.9854     0.0000
 67 H      0.9366     1.0000     0.0634     0.9720     0.9720     0.0000
 68 H      0.9422     1.0000     0.0578     0.9868     0.9868     0.0000
 69 H      0.9427     1.0000     0.0573     0.9829     0.9829    -0.0000
 70 H      1.0284     1.0000    -0.0284     0.9931     0.9931     0.0000
 71 H      0.9538     1.0000     0.0462     1.0060     1.0060    -0.0000
 72 H      0.9306     1.0000     0.0694     0.9837     0.9837     0.0000
 73 H      1.0086     1.0000    -0.0086     1.0006     1.0006    -0.0000
 74 H      0.9413     1.0000     0.0587     1.0102     1.0102     0.0000
 75 H      0.9314     1.0000     0.0686     0.9841     0.9841     0.0000
 76 H      0.9267     1.0000     0.0733     0.9721     0.9721    -0.0000
 77 H      0.9333     1.0000     0.0667     0.9854     0.9854    -0.0000
 78 H      0.9342     1.0000     0.0658     0.9853     0.9853    -0.0000
 79 H      1.0157     1.0000    -0.0157     0.9979     0.9979    -0.0000
 80 H      0.9407     1.0000     0.0593     1.0071     1.0071     0.0000
 81 H      0.9463     1.0000     0.0537     0.9857     0.9857     0.0000
 82 H      1.0252     1.0000    -0.0252     0.9933     0.9933    -0.0000
 83 H      0.9590     1.0000     0.0410     1.0084     1.0084     0.0000
 84 H      0.9469     1.0000     0.0531     0.9853     0.9853    -0.0000
 85 H      0.9401     1.0000     0.0599     0.9715     0.9715     0.0000
 86 H      0.9449     1.0000     0.0551     0.9839     0.9839     0.0000
 87 H      0.9433     1.0000     0.0567     0.9856     0.9856     0.0000
 88 H      1.0153     1.0000    -0.0153     0.9965     0.9965     0.0000
 89 H      0.9536     1.0000     0.0464     1.0071     1.0071    -0.0000

  Mayer bond orders larger than 0.100000
B(  0-C ,  1-N ) :   1.0887 B(  0-C , 17-C ) :   1.7077 B(  0-C , 52-H ) :   0.9665 
B(  1-N ,  8-C ) :   1.0896 B(  1-N , 10-C ) :   0.9779 B(  2-C , 12-C ) :   1.5063 
B(  2-C , 16-C ) :   1.3559 B(  2-C , 53-H ) :   0.9757 B(  3-N , 14-C ) :   1.2181 
B(  3-N , 16-C ) :   1.1909 B(  3-N , 61-H ) :   0.8994 B(  4-C ,  6-C ) :   1.2119 
B(  4-C , 17-C ) :   1.2122 B(  4-C , 18-C ) :   1.4335 B(  5-N , 19-C ) :   1.4521 
B(  5-N , 27-C ) :   1.3799 B(  6-C ,  8-C ) :   1.7070 B(  6-C , 54-H ) :   0.9555 
B(  7-N , 30-C ) :   1.1940 B(  7-N , 38-C ) :   1.1925 B(  7-N , 62-H ) :   0.8968 
B(  8-C , 55-H ) :   0.9675 B(  9-N , 41-C ) :   1.3932 B(  9-N , 49-C ) :   1.4275 
B( 10-C , 56-H ) :   0.9769 B( 10-C , 57-H ) :   0.9832 B( 10-C , 58-H ) :   0.9834 
B( 11-N , 20-C ) :   1.1320 B( 11-N , 24-C ) :   1.1108 B( 11-N , 25-C ) :   0.9589 
B( 12-C , 14-C ) :   1.3558 B( 12-C , 59-H ) :   0.9737 B( 13-N , 31-C ) :   1.1575 
B( 13-N , 35-C ) :   1.1524 B( 13-N , 36-C ) :   0.9439 B( 14-C , 18-C ) :   1.1301 
B( 15-N , 42-C ) :   1.1069 B( 15-N , 46-C ) :   1.1209 B( 15-N , 47-C ) :   0.9624 
B( 16-C , 51-C ) :   1.1722 B( 17-C , 60-H ) :   0.9561 B( 18-C , 19-C ) :   1.1340 
B( 19-C , 21-C ) :   1.2439 B( 20-C , 28-C ) :   1.6257 B( 20-C , 63-H ) :   0.9702 
B( 21-C , 26-C ) :   1.6115 B( 21-C , 64-H ) :   0.9709 B( 22-C , 23-C ) :   1.2909 
B( 22-C , 28-C ) :   1.2674 B( 22-C , 29-C ) :   1.2206 B( 23-C , 24-C ) :   1.6174 
B( 23-C , 65-H ) :   0.9704 B( 24-C , 66-H ) :   0.9694 B( 25-C , 67-H ) :   0.9760 
B( 25-C , 68-H ) :   0.9828 B( 25-C , 69-H ) :   0.9823 B( 26-C , 27-C ) :   1.2385 
B( 26-C , 70-H ) :   0.9702 B( 27-C , 29-C ) :   1.2139 B( 28-C , 71-H ) :   0.9719 
B( 29-C , 30-C ) :   1.2423 B( 30-C , 32-C ) :   1.2821 B( 31-C , 39-C ) :   1.5940 
B( 31-C , 72-H ) :   0.9683 B( 32-C , 37-C ) :   1.5772 B( 32-C , 73-H ) :   0.9784 
B( 33-C , 34-C ) :   1.3042 B( 33-C , 39-C ) :   1.2980 B( 33-C , 40-C ) :   1.1844 
B( 34-C , 35-C ) :   1.5906 B( 34-C , 74-H ) :   0.9697 B( 35-C , 75-H ) :   0.9684 
B( 36-C , 76-H ) :   0.9767 B( 36-C , 77-H ) :   0.9816 B( 36-C , 78-H ) :   0.9824 
B( 37-C , 38-C ) :   1.2864 B( 37-C , 79-H ) :   0.9767 B( 38-C , 40-C ) :   1.2319 
B( 39-C , 80-H ) :   0.9707 B( 40-C , 41-C ) :   1.2462 B( 41-C , 43-C ) :   1.1904 
B( 42-C , 50-C ) :   1.6360 B( 42-C , 81-H ) :   0.9697 B( 43-C , 48-C ) :   1.6616 
B( 43-C , 82-H ) :   0.9723 B( 44-C , 45-C ) :   1.2623 B( 44-C , 50-C ) :   1.2692 
B( 44-C , 51-C ) :   1.2652 B( 45-C , 46-C ) :   1.6369 B( 45-C , 83-H ) :   0.9718 
B( 46-C , 84-H ) :   0.9701 B( 47-C , 85-H ) :   0.9762 B( 47-C , 86-H ) :   0.9829 
B( 47-C , 87-H ) :   0.9825 B( 48-C , 49-C ) :   1.1938 B( 48-C , 88-H ) :   0.9748 
B( 49-C , 51-C ) :   1.2367 B( 50-C , 89-H ) :   0.9709 

-------
TIMINGS
-------

Total SCF time: 0 days 0 hours 28 min 28 sec 

Total time                  ....    1708.599 sec
Sum of individual times     ....    1703.884 sec  ( 99.7%)

Fock matrix formation       ....    1676.240 sec  ( 98.1%)
Diagonalization             ....       8.813 sec  (  0.5%)
Density matrix formation    ....       0.543 sec  (  0.0%)
Population analysis         ....       0.584 sec  (  0.0%)
Initial guess               ....       2.516 sec  (  0.1%)
Orbital Transformation      ....       0.000 sec  (  0.0%)
Orbital Orthonormalization  ....       0.000 sec  (  0.0%)
DIIS solution               ....       3.953 sec  (  0.2%)
SOSCF solution              ....       9.943 sec  (  0.6%)

Maximum memory used throughout the entire SCF-calculation: 302.6 MB


           ************************************************************
           *        Program running with 16 parallel MPI-processes    *
           *              working on a common directory               *
           ************************************************************

------------------------------------------------------------------------------
                                ORCA  MP2 
------------------------------------------------------------------------------

Freezing NCore=104 chemical core electrons

----------
MP2 ENERGY (disk based algorithm)
----------

Dimension of the basis                    ...  918
Memory devoted to MP2                     ... 2000 MB   
Data format for buffers                   ... DOUBLE
Compression type for matrix containers    ... UNCOMPRESSED

-------------------------------
PARTIAL EXCHANGE TRANSFORMATION
-------------------------------

Transformation type                        ... one-operator
Generation of integrals (i,mue|j,nue)      ... ON
Generation of integrals (mue,kappa|nue,tau)... OFF
Generation of integrals (i,mue|a,nue)      ... OFF
Dimension of the basis                     ...  918
Number of internal MOs                     ...  127 (  52- 178)
Pair cutoff                                ... 2.500e-12 Eh
Number of AO pairs in the trafo            ... 421821
Total Number of distinct AO pairs          ... 421821
Memory devoted for trafo                   ... 2000.0 MB 
Max. Number of MO pairs treated together   ...  311      
Number Format for Storage                  ... Double (8 Byte)
Integral package used                      ... LIBINT

Starting integral evaluation:
    ... done with AO integral generation
Closing buffer AOK     (38.25 GB; CompressionRatio= 1.33)
Collecting buffer AOK 
Number of MO pairs included in the trafo   ... 8128
------------------------
SORTING OF (i,mue|j,nue)
------------------------

IBATCH = 1 of  2
IBATCH = 2 of  2
Closing buffer KAO     (51.03 GB; CompressionRatio= 1.00)
Collecting buffer KAO 
N(AO-Batches) Done                         ...  85957197 
N(AO-Batches) Skipped                      ...  82272050 
N(IJ)-pairs Skipped                        ...         0 
TOTAL TIME for half transformation         ...  2800.574 sec
AO-integral generation                     ...   211.108 sec
Half transformation                        ...   425.004 sec
K-integral sorting                         ...  1943.947 sec

Finished integral transformation - now doing MP2 part

OPERATOR COMBINATION   0   0: ij=( 52..178, 52..178)
Process 13:   Internal MO 156
Process 10:   Internal MO 132
Process  1:   Internal MO  60
Process  7:   Internal MO 108
Process  4:   Internal MO  84
Process  0:   Internal MO  54
Process  0:   Internal MO  57
Process  2:   Internal MO  69
Process  1:   Internal MO  63
Process  5:   Internal MO  93
Process  3:   Internal MO  78
Process  8:   Internal MO 117
Process  1:   Internal MO  66
Process 11:   Internal MO 141
Process  2:   Internal MO  72
Process  6:   Internal MO 102
Process 14:   Internal MO 165
Process  4:   Internal MO  87
Process  3:   Internal MO  81
Process  2:   Internal MO  75
Process  9:   Internal MO 126
Process  5:   Internal MO  96
Process  7:   Internal MO 111
Process 12:   Internal MO 150
Process  4:   Internal MO  90
Process  6:   Internal MO 105
Process 10:   Internal MO 135
Process  8:   Internal MO 120
Process 15:   Internal MO 174
Process  5:   Internal MO  99
Process 13:   Internal MO 159
Process 11:   Internal MO 144
Process  7:   Internal MO 114
Process  9:   Internal MO 129
Process 14:   Internal MO 168
Process  8:   Internal MO 123
Process 10:   Internal MO 138
Process 12:   Internal MO 153
Process 11:   Internal MO 147
Process 13:   Internal MO 162
Process 15:   Internal MO 177
Process 14:   Internal MO 171
-----------------------------------------------
 MP2 CORRELATION ENERGY   :     -7.281927077 Eh
-----------------------------------------------


-------
TIMINGS
-------
Total time                : 3069.186 sec
Integral trafo            : 2804.989 sec ( 91.4%)
K(i,j)                    :    6.024 sec (  0.2%)
T(i,j)                    :    0.106 sec (  0.0%)

---------------------------------------
MP2 TOTAL ENERGY:    -2130.892301639 Eh
---------------------------------------

Maximum memory used throughout the entire MP2-calculation: 2275.3 MB

-------------------------   --------------------
FINAL SINGLE POINT ENERGY     -2130.892301639249
-------------------------   --------------------


                            ***************************************
                            *     ORCA property calculations      *
                            ***************************************


  WARNING: The energy has been calculated at the MP2 level but the densities
           used in the property calculations are still SCF densities
           MP2 response densities have not been calculated 
           use %mp2 Density relaxed end
           or  %mp2 Density unrelaxed end

                                    ---------------------
                                    Active property flags
                                    ---------------------
   (+) Dipole Moment


------------------------------------------------------------------------------
                       ORCA ELECTRIC PROPERTIES CALCULATION
------------------------------------------------------------------------------

Dipole Moment Calculation                       ... on
Quadrupole Moment Calculation                   ... off
Polarizability Calculation                      ... off
GBWName                                         ... /scratch/allen/tmpyp4_amber_gaff2/conf1/conf1/Conf151.orca.gbw
Electron density                                ... /scratch/allen/tmpyp4_amber_gaff2/conf1/conf1/Conf151.orca.scfp
The origin for moment calculation is the CENTER OF MASS  = ( 0.003370, -0.001840  0.001833)

-------------
DIPOLE MOMENT
-------------
                                X             Y             Z
Electronic contribution:      2.15750      -4.05049      -0.22242
Nuclear contribution   :      0.03688       0.21101       0.22243
                        -----------------------------------------
Total Dipole Moment    :      2.19439      -3.83947       0.00001
                        -----------------------------------------
Magnitude (a.u.)       :      4.42232
Magnitude (Debye)      :     11.24063



--------------------
Rotational spectrum 
--------------------
 
Rotational constants in cm-1:     0.001500     0.001478     0.000761 
Rotational constants in MHz :    44.974438    44.311740    22.803545 

 Dipole components along the rotational axes: 
x,y,z [a.u.] :     3.030474    -3.220728     0.004233 
x,y,z [Debye]:     7.702852    -8.186440     0.010758 

 

Timings for individual modules:

Sum of individual times         ...     4810.702 sec (=  80.178 min)
GTO integral calculation        ...        7.512 sec (=   0.125 min)   0.2 %
SCF iterations                  ...     1712.605 sec (=  28.543 min)  35.6 %
MP2 module                      ...     3090.585 sec (=  51.510 min)  64.2 %
                             ****ORCA TERMINATED NORMALLY****
TOTAL RUN TIME: 0 days 1 hours 20 minutes 14 seconds 344 msec
# of primitive gaussian functions

