
                                 *****************
                                 * O   R   C   A *
                                 *****************

                                            #,                                       
                                            ###                                      
                                            ####                                     
                                            #####                                    
                                            ######                                   
                                           ########,                                 
                                     ,,################,,,,,                         
                               ,,#################################,,                 
                          ,,##########################################,,             
                       ,#########################################, ''#####,          
                    ,#############################################,,   '####,        
                  ,##################################################,,,,####,       
                ,###########''''           ''''###############################       
              ,#####''   ,,,,##########,,,,          '''####'''          '####       
            ,##' ,,,,###########################,,,                        '##       
           ' ,,###''''                  '''############,,,                           
         ,,##''                                '''############,,,,        ,,,,,,###''
      ,#''                                            '''#######################'''  
     '                                                          ''''####''''         
             ,#######,   #######,   ,#######,      ##                                
            ,#'     '#,  ##    ##  ,#'     '#,    #''#        ######   ,####,        
            ##       ##  ##   ,#'  ##            #'  '#       #        #'  '#        
            ##       ##  #######   ##           ,######,      #####,   #    #        
            '#,     ,#'  ##    ##  '#,     ,#' ,#      #,         ##   #,  ,#        
             '#######'   ##     ##  '#######'  #'      '#     #####' # '####'        



                  #######################################################
                  #                        -***-                        #
                  #          Department of theory and spectroscopy      #
                  #    Directorship and core code : Frank Neese         #
                  #        Max Planck Institute fuer Kohlenforschung    #
                  #                Kaiser Wilhelm Platz 1               #
                  #                 D-45470 Muelheim/Ruhr               #
                  #                      Germany                        #
                  #                                                     #
                  #                  All rights reserved                #
                  #                        -***-                        #
                  #######################################################


                         Program Version 5.0.4 -  RELEASE  -


 With contributions from (in alphabetic order):
   Daniel Aravena         : Magnetic Suceptibility
   Michael Atanasov       : Ab Initio Ligand Field Theory (pilot matlab implementation)
   Alexander A. Auer      : GIAO ZORA, VPT2 properties, NMR spectrum
   Ute Becker             : Parallelization
   Giovanni Bistoni       : ED, misc. LED, open-shell LED, HFLD
   Martin Brehm           : Molecular dynamics
   Dmytro Bykov           : SCF Hessian
   Vijay G. Chilkuri      : MRCI spin determinant printing, contributions to CSF-ICE
   Dipayan Datta          : RHF DLPNO-CCSD density
   Achintya Kumar Dutta   : EOM-CC, STEOM-CC
   Dmitry Ganyushin       : Spin-Orbit,Spin-Spin,Magnetic field MRCI
   Miquel Garcia          : C-PCM and meta-GGA Hessian, CC/C-PCM, Gaussian charge scheme
   Yang Guo               : DLPNO-NEVPT2, F12-NEVPT2, CIM, IAO-localization
   Andreas Hansen         : Spin unrestricted coupled pair/coupled cluster methods
   Benjamin Helmich-Paris : MC-RPA, TRAH-SCF, COSX integrals
   Lee Huntington         : MR-EOM, pCC
   Robert Izsak           : Overlap fitted RIJCOSX, COSX-SCS-MP3, EOM
   Marcus Kettner         : VPT2
   Christian Kollmar      : KDIIS, OOCD, Brueckner-CCSD(T), CCSD density, CASPT2, CASPT2-K
   Simone Kossmann        : Meta GGA functionals, TD-DFT gradient, OOMP2, MP2 Hessian
   Martin Krupicka        : Initial AUTO-CI
   Lucas Lang             : DCDCAS
   Marvin Lechner         : AUTO-CI (C++ implementation), FIC-MRCC
   Dagmar Lenk            : GEPOL surface, SMD
   Dimitrios Liakos       : Extrapolation schemes; Compound Job, initial MDCI parallelization
   Dimitrios Manganas     : Further ROCIS development; embedding schemes
   Dimitrios Pantazis     : SARC Basis sets
   Anastasios Papadopoulos: AUTO-CI, single reference methods and gradients
   Taras Petrenko         : DFT Hessian,TD-DFT gradient, ASA, ECA, R-Raman, ABS, FL, XAS/XES, NRVS
   Peter Pinski           : DLPNO-MP2, DLPNO-MP2 Gradient
   Christoph Reimann      : Effective Core Potentials
   Marius Retegan         : Local ZFS, SOC
   Christoph Riplinger    : Optimizer, TS searches, QM/MM, DLPNO-CCSD(T), (RO)-DLPNO pert. Triples
   Tobias Risthaus        : Range-separated hybrids, TD-DFT gradient, RPA, STAB
   Michael Roemelt        : Original ROCIS implementation
   Masaaki Saitow         : Open-shell DLPNO-CCSD energy and density
   Barbara Sandhoefer     : DKH picture change effects
   Avijit Sen             : IP-ROCIS
   Kantharuban Sivalingam : CASSCF convergence, NEVPT2, FIC-MRCI
   Bernardo de Souza      : ESD, SOC TD-DFT
   Georgi Stoychev        : AutoAux, RI-MP2 NMR, DLPNO-MP2 response
   Willem Van den Heuvel  : Paramagnetic NMR
   Boris Wezisla          : Elementary symmetry handling
   Frank Wennmohs         : Technical directorship


 We gratefully acknowledge several colleagues who have allowed us to
 interface, adapt or use parts of their codes:
   Stefan Grimme, W. Hujo, H. Kruse, P. Pracht,  : VdW corrections, initial TS optimization,
                  C. Bannwarth, S. Ehlert          DFT functionals, gCP, sTDA/sTD-DF
   Ed Valeev, F. Pavosevic, A. Kumar             : LibInt (2-el integral package), F12 methods
   Garnet Chan, S. Sharma, J. Yang, R. Olivares  : DMRG
   Ulf Ekstrom                                   : XCFun DFT Library
   Mihaly Kallay                                 : mrcc  (arbitrary order and MRCC methods)
   Jiri Pittner, Ondrej Demel                    : Mk-CCSD
   Frank Weinhold                                : gennbo (NPA and NBO analysis)
   Christopher J. Cramer and Donald G. Truhlar   : smd solvation model
   Lars Goerigk                                  : TD-DFT with DH, B97 family of functionals
   V. Asgeirsson, H. Jonsson                     : NEB implementation
   FAccTs GmbH                                   : IRC, NEB, NEB-TS, DLPNO-Multilevel, CI-OPT
                                                   MM, QMMM, 2- and 3-layer-ONIOM, Crystal-QMMM,
                                                   LR-CPCM, SF, NACMEs, symmetry and pop. for TD-DFT,
                                                   nearIR, NL-DFT gradient (VV10), updates on ESD,
                                                   ML-optimized integration grids
   S Lehtola, MJT Oliveira, MAL Marques          : LibXC Library
   Liviu Ungur et al                             : ANISO software


 Your calculation uses the libint2 library for the computation of 2-el integrals
 For citations please refer to: http://libint.valeyev.net

 Your ORCA version has been built with support for libXC version: 5.1.0
 For citations please refer to: https://tddft.org/programs/libxc/

 This ORCA versions uses:
   CBLAS   interface :  Fast vector & matrix operations
   LAPACKE interface :  Fast linear algebra routines
   SCALAPACK package :  Parallel linear algebra routines
   Shared memory     :  Shared parallel matrices
   BLAS/LAPACK       :  OpenBLAS 0.3.15  USE64BITINT DYNAMIC_ARCH NO_AFFINITY Sandybridge SINGLE_THREADED
        Core in use  :  Sandybridge
   Copyright (c) 2011-2014, The OpenBLAS Project


================================================================================

----- Orbital basis set information -----
Your calculation utilizes the basis: cc-pVDZ 
       H, B-Ne : Obtained from the ccRepo (grant-hill.group.shef.ac.uk/ccrepo) Feb. 2017
                 T. H. Dunning, Jr., J. Chem. Phys. 90, 1007 (1989)
            He : Obtained from the ccRepo (grant-hill.group.shef.ac.uk/ccrepo) Feb. 2017
                 D. E. Woon, T. H. Dunning, Jr., J. Chem. Phys. 100, 2975 (1994)
  Li-Be, Na-Mg : Obtained from the ccRepo (grant-hill.group.shef.ac.uk/ccrepo) Feb. 2017
                 B. P. Prascher, D. E. Woon, K. A. Peterson, T. H. Dunning, Jr., A. K. Wilson, Theor. Chem. Acc. 128, 69 (2011)
         Al-Ar : Obtained from the ccRepo (grant-hill.group.shef.ac.uk/ccrepo) Feb. 2017
                 D. E. Woon, T. H. Dunning, Jr., J. Chem. Phys. 98, 1358 (1993)
            Ca : Obtained from the Peterson Research Group Website (tyr0.chem.wsu.edu/~kipeters) Feb. 2017
                 J. Koput, K. A. Peterson, J. Phys. Chem. 106, 9595 (2002)
         Sc-Zn : Obtained from the ccRepo (grant-hill.group.shef.ac.uk/ccrepo) Feb. 2017
                 N. B. Balabanov, K. A. Peterson, J. Chem. Phys. 123, 064107 (2005)
                 N. B. Balabanov, K. A. Peterson, J. Chem. Phys. 125, 074110 (2006)
         Ga-Kr : Obtained from the ccRepo (grant-hill.group.shef.ac.uk/ccrepo) Feb. 2017
                 A. K. Wilson, D. E. Woon, K. A. Peterson, T. H. Dunning, Jr., J. Chem. Phys. 110, 7667 (1999)

================================================================================
                                        WARNINGS
                       Please study these warnings very carefully!
================================================================================


WARNING: No MP2 level density has been requested!
         To caclulate MP2 level properties use
         %mp2 Density relaxed end
         or
         %mp2 Density unrelaxed end

WARNING: Post HF methods need fully converged wavefunctions
  ===> : Setting SCFConvForced true
         You can overwrite this default with %scf ConvForced false 


INFO   : the flag for use of the SHARK integral package has been found!

================================================================================
                                       INPUT FILE
================================================================================
NAME = /scratch/allen/tmpyp4_amber_gaff2/2.Mdgx/conf11/conf11/Conf62.orca
|  1> ! PAL2
|  2> ! mp2 cc-pvdz TightSCF  NoKeepInts
|  3> 
|  4> %scf
|  5>   MaxCore 2000
|  6> end
|  7> %mp2
|  8>   MaxCore 2000
|  9> end
| 10> * xyz 0 1
| 11>    C       -3.51300         6.18800        -0.91600
| 12>    C        1.47400         4.04100         0.05700
| 13>    C       -2.80200         4.09300         0.04900
| 14>    C       -3.69500         4.33500         1.10400
| 15>    C       -4.46300         5.48200         1.11400
| 16>    C       -5.22700         7.59200         0.13600
| 17>    C        0.13200         4.30700         0.06100
| 18>    C       -0.56900         3.05600         0.04700
| 19>    C        1.64900         2.61800         0.02300
| 20>    C       -2.72800         5.05200        -0.97300
| 21>    N       -4.36300         6.39100         0.11600
| 22>    N        0.38800         2.06700         0.02500
| 23>    N       -2.01000         0.39500        -0.07500
| 24>    N       -0.38800        -2.07400        -0.02700
| 25>    N        2.01000        -0.40100         0.06500
| 26>    C       -1.96000         2.86100         0.02400
| 27>    C       -2.62300         1.61500        -0.01800
| 28>    C       -5.57300        -4.32900         1.06600
| 29>    C       -4.07300         1.47100         0.05600
| 30>    C       -4.10600        -2.75600        -0.02600
| 31>    C       -4.99500        -2.75700        -1.11100
| 32>    C       -6.13200        -3.54200        -1.07600
| 33>    C       -7.65100        -5.11300         0.04000
| 34>    C       -4.32400         0.14100         0.03700
| 35>    C       -3.02500        -0.52000        -0.04800
| 36>    C       -4.42200        -3.56600         1.07500
| 37>    N       -6.40700        -4.31300         0.00100
| 38>    C       -2.86700        -1.92200        -0.04000
| 39>    C       -1.65000        -2.62400        -0.02700
| 40>    C        3.56800        -6.14200        -1.04000
| 41>    C       -1.47600        -4.04900        -0.03400
| 42>    C        2.80300        -4.09900        -0.00800
| 43>    C        3.65700        -4.38400         1.06900
| 44>    C        4.42700        -5.53000         1.05900
| 45>    C        5.24500        -7.58800         0.01400
| 46>    C       -0.13400        -4.31500        -0.02200
| 47>    C        0.56800        -3.06400        -0.02700
| 48>    C        2.77500        -5.01200        -1.07400
| 49>    N        4.37600        -6.39100         0.01700
| 50>    C        1.95900        -2.86900        -0.00900
| 51>    C        2.62100        -1.62200         0.00900
| 52>    C        5.54300         4.33900        -1.13000
| 53>    C        4.07000        -1.47900        -0.09400
| 54>    C        4.10400         2.75100        -0.02100
| 55>    C        5.02700         2.72900         1.03600
| 56>    C        6.16600         3.50900         0.97800
| 57>    C        7.61900         5.15300        -0.11500
| 58>    C        4.32100        -0.14800        -0.09200
| 59>    C        3.02500         0.51400         0.01500
| 60>    C        4.38700         3.58200        -1.11500
| 61>    C        2.86600         1.91600         0.01300
| 62>    N        6.41300         4.29600        -0.09500
| 63>    H       -3.48000         6.95900        -1.67500
| 64>    H        2.27400         4.76600         0.08100
| 65>    H       -3.80400         3.62700         1.91700
| 66>    H       -5.17100         5.70700         1.90100
| 67>    H       -6.18800         7.34700        -0.32300
| 68>    H       -5.37400         7.90100         1.17100
| 69>    H       -4.73600         8.38700        -0.42400
| 70>    H       -0.33200         5.28200         0.06900
| 71>    H       -2.04800         4.93000        -1.80800
| 72>    H        0.18200         1.07200         0.00500
| 73>    H       -0.18300        -1.08000        -0.02100
| 74>    H       -5.86400        -4.96200         1.89500
| 75>    H       -4.79400         2.27200         0.13900
| 76>    H       -4.80000        -2.16000        -1.99400
| 77>    H       -6.84100        -3.58200        -1.89300
| 78>    H       -8.42800        -4.53600         0.54600
| 79>    H       -7.95600        -5.33700        -0.98100
| 80>    H       -7.45600        -6.03700         0.58400
| 81>    H       -5.28700        -0.34400         0.10000
| 82>    H       -3.78000        -3.60100         1.94700
| 83>    H        3.58700        -6.86800        -1.84300
| 84>    H       -2.27600        -4.77400        -0.05000
| 85>    H        3.71400        -3.72400         1.92600
| 86>    H        5.09200        -5.79500         1.87100
| 87>    H        6.20500        -7.32900        -0.43900
| 88>    H        5.39300        -7.91700         1.04200
| 89>    H        4.75900        -8.37300        -0.56400
| 90>    H        0.32900        -5.29000        -0.00800
| 91>    H        2.14600        -4.84200        -1.94000
| 92>    H        5.80800         4.98600        -1.95600
| 93>    H        4.78800        -2.28100        -0.18500
| 94>    H        4.86000         2.11400         1.91200
| 95>    H        6.90100         3.53100         1.77200
| 96>    H        7.38300         6.10900         0.35600
| 97>    H        8.41400         4.65200         0.43500
| 98>    H        7.92100         5.31000        -1.15000
| 99>    H        5.28300         0.33600        -0.17900
|100>    H        3.72000         3.63200        -1.96700
|101> *
|102> 
|103>                          ****END OF INPUT****
================================================================================

                       ****************************
                       * Single Point Calculation *
                       ****************************

---------------------------------
CARTESIAN COORDINATES (ANGSTROEM)
---------------------------------
  C     -3.513000    6.188000   -0.916000
  C      1.474000    4.041000    0.057000
  C     -2.802000    4.093000    0.049000
  C     -3.695000    4.335000    1.104000
  C     -4.463000    5.482000    1.114000
  C     -5.227000    7.592000    0.136000
  C      0.132000    4.307000    0.061000
  C     -0.569000    3.056000    0.047000
  C      1.649000    2.618000    0.023000
  C     -2.728000    5.052000   -0.973000
  N     -4.363000    6.391000    0.116000
  N      0.388000    2.067000    0.025000
  N     -2.010000    0.395000   -0.075000
  N     -0.388000   -2.074000   -0.027000
  N      2.010000   -0.401000    0.065000
  C     -1.960000    2.861000    0.024000
  C     -2.623000    1.615000   -0.018000
  C     -5.573000   -4.329000    1.066000
  C     -4.073000    1.471000    0.056000
  C     -4.106000   -2.756000   -0.026000
  C     -4.995000   -2.757000   -1.111000
  C     -6.132000   -3.542000   -1.076000
  C     -7.651000   -5.113000    0.040000
  C     -4.324000    0.141000    0.037000
  C     -3.025000   -0.520000   -0.048000
  C     -4.422000   -3.566000    1.075000
  N     -6.407000   -4.313000    0.001000
  C     -2.867000   -1.922000   -0.040000
  C     -1.650000   -2.624000   -0.027000
  C      3.568000   -6.142000   -1.040000
  C     -1.476000   -4.049000   -0.034000
  C      2.803000   -4.099000   -0.008000
  C      3.657000   -4.384000    1.069000
  C      4.427000   -5.530000    1.059000
  C      5.245000   -7.588000    0.014000
  C     -0.134000   -4.315000   -0.022000
  C      0.568000   -3.064000   -0.027000
  C      2.775000   -5.012000   -1.074000
  N      4.376000   -6.391000    0.017000
  C      1.959000   -2.869000   -0.009000
  C      2.621000   -1.622000    0.009000
  C      5.543000    4.339000   -1.130000
  C      4.070000   -1.479000   -0.094000
  C      4.104000    2.751000   -0.021000
  C      5.027000    2.729000    1.036000
  C      6.166000    3.509000    0.978000
  C      7.619000    5.153000   -0.115000
  C      4.321000   -0.148000   -0.092000
  C      3.025000    0.514000    0.015000
  C      4.387000    3.582000   -1.115000
  C      2.866000    1.916000    0.013000
  N      6.413000    4.296000   -0.095000
  H     -3.480000    6.959000   -1.675000
  H      2.274000    4.766000    0.081000
  H     -3.804000    3.627000    1.917000
  H     -5.171000    5.707000    1.901000
  H     -6.188000    7.347000   -0.323000
  H     -5.374000    7.901000    1.171000
  H     -4.736000    8.387000   -0.424000
  H     -0.332000    5.282000    0.069000
  H     -2.048000    4.930000   -1.808000
  H      0.182000    1.072000    0.005000
  H     -0.183000   -1.080000   -0.021000
  H     -5.864000   -4.962000    1.895000
  H     -4.794000    2.272000    0.139000
  H     -4.800000   -2.160000   -1.994000
  H     -6.841000   -3.582000   -1.893000
  H     -8.428000   -4.536000    0.546000
  H     -7.956000   -5.337000   -0.981000
  H     -7.456000   -6.037000    0.584000
  H     -5.287000   -0.344000    0.100000
  H     -3.780000   -3.601000    1.947000
  H      3.587000   -6.868000   -1.843000
  H     -2.276000   -4.774000   -0.050000
  H      3.714000   -3.724000    1.926000
  H      5.092000   -5.795000    1.871000
  H      6.205000   -7.329000   -0.439000
  H      5.393000   -7.917000    1.042000
  H      4.759000   -8.373000   -0.564000
  H      0.329000   -5.290000   -0.008000
  H      2.146000   -4.842000   -1.940000
  H      5.808000    4.986000   -1.956000
  H      4.788000   -2.281000   -0.185000
  H      4.860000    2.114000    1.912000
  H      6.901000    3.531000    1.772000
  H      7.383000    6.109000    0.356000
  H      8.414000    4.652000    0.435000
  H      7.921000    5.310000   -1.150000
  H      5.283000    0.336000   -0.179000
  H      3.720000    3.632000   -1.967000

----------------------------
CARTESIAN COORDINATES (A.U.)
----------------------------
  NO LB      ZA    FRAG     MASS         X           Y           Z
   0 C     6.0000    0    12.011   -6.638608   11.693625   -1.730989
   1 C     6.0000    0    12.011    2.785456    7.636383    0.107714
   2 C     6.0000    0    12.011   -5.295013    7.734649    0.092597
   3 C     6.0000    0    12.011   -6.982538    8.191963    2.086258
   4 C     6.0000    0    12.011   -8.433848   10.359479    2.105155
   5 C     6.0000    0    12.011   -9.877599   14.346801    0.257003
   6 C     6.0000    0    12.011    0.249444    8.139050    0.115273
   7 C     6.0000    0    12.011   -1.075254    5.775003    0.088817
   8 C     6.0000    0    12.011    3.116158    4.947303    0.043464
   9 C     6.0000    0    12.011   -5.155173    9.546896   -1.838704
  10 N     7.0000    0    14.007   -8.244875   12.077240    0.219208
  11 N     7.0000    0    14.007    0.733214    3.906064    0.047243
  12 N     7.0000    0    14.007   -3.798350    0.746442   -0.141729
  13 N     7.0000    0    14.007   -0.733214   -3.919292   -0.051023
  14 N     7.0000    0    14.007    3.798350   -0.757780    0.122832
  15 C     6.0000    0    12.011   -3.703863    5.406506    0.045353
  16 C     6.0000    0    12.011   -4.956752    3.051908   -0.034015
  17 C     6.0000    0    12.011  -10.531444   -8.180624    2.014448
  18 C     6.0000    0    12.011   -7.696855    2.779787    0.105825
  19 C     6.0000    0    12.011   -7.759216   -5.208085   -0.049133
  20 C     6.0000    0    12.011   -9.439182   -5.209975   -2.099486
  21 C     6.0000    0    12.011  -11.587801   -6.693410   -2.033345
  22 C     6.0000    0    12.011  -14.458295   -9.662170    0.075589
  23 C     6.0000    0    12.011   -8.171176    0.266451    0.069920
  24 C     6.0000    0    12.011   -5.716422   -0.982658   -0.090707
  25 C     6.0000    0    12.011   -8.356369   -6.738763    2.031456
  26 N     7.0000    0    14.007  -12.107475   -8.150389    0.001890
  27 C     6.0000    0    12.011   -5.417845   -3.632054   -0.075589
  28 C     6.0000    0    12.011   -3.118048   -4.958641   -0.051023
  29 C     6.0000    0    12.011    6.742543  -11.606698   -1.965315
  30 C     6.0000    0    12.011   -2.789236   -7.651501   -0.064251
  31 C     6.0000    0    12.011    5.296902   -7.745987   -0.015118
  32 C     6.0000    0    12.011    6.910728   -8.284559    2.020117
  33 C     6.0000    0    12.011    8.365818  -10.450186    2.001220
  34 C     6.0000    0    12.011    9.911614  -14.339242    0.026456
  35 C     6.0000    0    12.011   -0.253223   -8.154168   -0.041574
  36 C     6.0000    0    12.011    1.073364   -5.790121   -0.051023
  37 C     6.0000    0    12.011    5.243990   -9.471307   -2.029566
  38 N     7.0000    0    14.007    8.269442  -12.077240    0.032125
  39 C     6.0000    0    12.011    3.701973   -5.421624   -0.017008
  40 C     6.0000    0    12.011    4.952972   -3.065136    0.017008
  41 C     6.0000    0    12.011   10.474752    8.199522   -2.135391
  42 C     6.0000    0    12.011    7.691185   -2.794905   -0.177634
  43 C     6.0000    0    12.011    7.755436    5.198637   -0.039684
  44 C     6.0000    0    12.011    9.499653    5.157063    1.957756
  45 C     6.0000    0    12.011   11.652051    6.631049    1.848152
  46 C     6.0000    0    12.011   14.397823    9.737759   -0.217319
  47 C     6.0000    0    12.011    8.165507   -0.279679   -0.173855
  48 C     6.0000    0    12.011    5.716422    0.971319    0.028346
  49 C     6.0000    0    12.011    8.290229    6.768999   -2.107045
  50 C     6.0000    0    12.011    5.415955    3.620715    0.024566
  51 N     7.0000    0    14.007   12.118814    8.118263   -0.179524
  52 H     1.0000    0     1.008   -6.576247   13.150604   -3.165291
  53 H     1.0000    0     1.008    4.297237    9.006435    0.153068
  54 H     1.0000    0     1.008   -7.188518    6.854037    3.622605
  55 H     1.0000    0     1.008   -9.771774   10.784667    3.592369
  56 H     1.0000    0     1.008  -11.693625   13.883818   -0.610382
  57 H     1.0000    0     1.008  -10.155388   14.930726    2.212869
  58 H     1.0000    0     1.008   -8.949743   15.849133   -0.801244
  59 H     1.0000    0     1.008   -0.627389    9.981533    0.130391
  60 H     1.0000    0     1.008   -3.870159    9.316350   -3.416625
  61 H     1.0000    0     1.008    0.343930    2.025786    0.009449
  62 H     1.0000    0     1.008   -0.345820   -2.040904   -0.039684
  63 H     1.0000    0     1.008  -11.081354   -9.376821    3.581031
  64 H     1.0000    0     1.008   -9.059347    4.293458    0.262672
  65 H     1.0000    0     1.008   -9.070685   -4.081808   -3.768114
  66 H     1.0000    0     1.008  -12.927616   -6.768999   -3.577252
  67 H     1.0000    0     1.008  -15.926612   -8.571798    1.031790
  68 H     1.0000    0     1.008  -15.034661  -10.085468   -1.853821
  69 H     1.0000    0     1.008  -14.089798  -11.408277    1.103600
  70 H     1.0000    0     1.008   -9.990982   -0.650066    0.188973
  71 H     1.0000    0     1.008   -7.143165   -6.804904    3.679297
  72 H     1.0000    0     1.008    6.778448  -12.978639   -3.482765
  73 H     1.0000    0     1.008   -4.301017   -9.021553   -0.094486
  74 H     1.0000    0     1.008    7.018443   -7.037340    3.639613
  75 H     1.0000    0     1.008    9.622485  -10.950963    3.535678
  76 H     1.0000    0     1.008   11.725751  -13.849803   -0.829590
  77 H     1.0000    0     1.008   10.191293  -14.960962    1.969095
  78 H     1.0000    0     1.008    8.993207  -15.822677   -1.065806
  79 H     1.0000    0     1.008    0.621720   -9.996651   -0.015118
  80 H     1.0000    0     1.008    4.055352   -9.150054   -3.666069
  81 H     1.0000    0     1.008   10.975529    9.422175   -3.696304
  82 H     1.0000    0     1.008    9.048009   -4.310465   -0.349599
  83 H     1.0000    0     1.008    9.184069    3.994881    3.613156
  84 H     1.0000    0     1.008   13.041000    6.672623    3.348595
  85 H     1.0000    0     1.008   13.951848   11.544337    0.672743
  86 H     1.0000    0     1.008   15.900156    8.791006    0.822031
  87 H     1.0000    0     1.008   14.968521   10.034446   -2.173185
  88 H     1.0000    0     1.008    9.983423    0.634948   -0.338261
  89 H     1.0000    0     1.008    7.029781    6.863485   -3.717091

--------------------------------
INTERNAL COORDINATES (ANGSTROEM)
--------------------------------
 C      0   0   0     0.000000000000     0.00000000     0.00000000
 C      1   0   0     5.516022751947     0.00000000     0.00000000
 C      1   2   0     2.413663398239    47.57012668     0.00000000
 C      3   1   2     1.403224144604    87.90458705   131.13168572
 C      4   3   1     1.380410446208   120.18582026     0.15639858
 C      5   4   3     2.447913397161   152.49343940     1.56992164
 C      2   1   3     1.368114030335    15.84623269   342.77781448
 C      7   2   1     1.434084376876   108.05010202   138.33836754
 C      2   1   3     1.434123425651   119.49525588    30.15041893
 C      1   2   3     1.382016642447    34.28953723   317.55844722
 N      1   2   3     1.352306548087   119.47788206    59.96012844
 N      9   2   1     1.376127174356   106.58526707   347.02644698
 N     12   9   2     2.925062050624   168.53581413   171.12065651
 N     13  12   9     2.954513327098    91.55032014    11.12112580
 N     14  13  12     2.925371258490    88.43092389   359.84326247
 C      8   7   2     1.404790019896   127.24786865   181.11170171
 C     13  12   9     1.366535034311    81.72106996   188.00453233
 C     14  13  12     5.758810554272    80.56209567   166.76250791
 C     17  13  12     1.459010623676   111.08861209   183.82872609
 C     18  14  13     2.412235892279    27.27532823    36.33507194
 C     20  18  14     1.402692767501    87.95206320   148.94598259
 C     21  20  18     1.382106725257   120.14573887   359.70382047
 C     18  14  13     2.446510985056   144.15733107    82.80075377
 C     19  17  13     1.353610726908   106.29293361   359.75308708
 C     13  12   9     1.366813447402   172.21332906    33.46711076
 C     18  14  13     1.380960173213    15.08449437   309.23336894
 N     22  21  20     1.352773077792   120.73759875     0.27865223
 C     25  13  17     1.410897586645   125.60330303   182.37774668
 C     14  13  12     1.376642291955    80.24689249   177.85461986
 C     14  13  12     5.764089607215   164.51507311   312.20821879
 C     29  14  13     1.435600919476   106.58649366   178.76395472
 C     30  14  13     2.413316804732    27.10625047    82.12560436
 C     32  30  14     1.403734305344    87.90059683   149.76154742
 C     33  32  30     1.380694028378   120.14881443   359.74174632
 C     34  33  32     2.448777858443   152.49203239     2.45173620
 C     31  29  14     1.368160809262   108.16950133     0.70383075
 C     14  13  12     1.376239804685   169.26375223   353.09862627
 C     30  14  13     1.380907310430    14.68948582   353.70041132
 N     34  33  32     1.352658863128   120.85575621     0.19603406
 C     37  14  29     1.404717053360   126.01551127   180.90772073
 C     15  14  13     1.366491126938    81.61824056   183.09049352
 C      2   1   3     4.249062720177   142.11134755   158.91413260
 C     41  15  14     1.459677704153   111.05201287   175.08990246
 C     42   2   1     2.412953791518    41.78584867   199.17325052
 C     44  42   2     1.403446472082    87.95153797   233.97558675
 C     45  44  42     1.381696421071   120.11137308     0.19721020
 C     42   2   1     2.450019795838   135.97209175   109.48809962
 C     43  41  15     1.354461516618   106.26758155     0.30894352
 C     15  14  13     1.367461151185   171.87382904   332.35056460
 C     42   2   1     1.381886391857    32.59078432   248.02852971
 C      9   2   1     1.404988612053   126.98745415   168.03078450
 N     42   2   1     1.352765315936   113.57249190   137.22468882
 H      1   2   3     1.082409811485   111.92392682   201.35419681
 H      2   1   3     1.079907866440   114.35351541   199.50687419
 H      4   3   1     1.083565411039   121.02674378   179.51766316
 H      5   4   3     1.082246737117   122.81856684   179.43941319
 H      6   5   4     1.092806936288   104.41960383   100.17957950
 H      6   5   4     1.090098619392    84.66885846   209.59918548
 H      6   5   4     1.089360362782   133.92801244   322.36889630
 H      7   2   1     1.079807853278   126.66122480   318.57678133
 H     10   1   2     1.083747664357   118.73178718   279.08693636
 H     12   9   2     1.016297692608   125.29023241   180.00180175
 H     14  13  12     1.014936943854    44.97226959   359.42596618
 H     18  14  13     1.082871645210   128.03556573   234.20482432
 H     19  17  13     1.080893611786   126.41830519   178.11313280
 H     21  20  18     1.083569563987   121.05669627   180.67006309
 H     22  21  20     1.082483256222   122.73097286   180.59748951
 H     23  18  14     1.092105306278   103.92715769   234.93429879
 H     23  18  14     1.088871893291   134.19244188    12.25587044
 H     23  18  14     1.089833473518    84.85857450   125.45241208
 H     24  19  17     1.080075460327   127.28078426   178.44613241
 H     26  18  14     1.083408048706   118.76995697   244.94906660
 H     30  14  13     1.082703098730   127.99711412   279.66882698
 H     31  29  14     1.079759695488   125.22293469   180.92530585
 H     33  32  30     1.083188810873   121.01964473   180.74284758
 H     34  33  32     1.082494341787   122.70821597   180.59516895
 H     35  34  33     1.092652735319   105.73575241    97.19771933
 H     35  34  33     1.089462711615    84.05943581   206.43036958
 H     35  34  33     1.089268102902   133.08365142   318.50306270
 H     36  31  29     1.079439669458   126.61599965   178.98859863
 H     38  30  73     1.083742127999   118.77264435   359.90091293
 H     42   2   1     1.082178358682   119.31790784   353.85621927
 H     43  41  15     1.080281907652   126.36969097   182.06329380
 H     45  44  42     1.083277434455   121.10105945   179.58025624
 H     46  45  44     1.082194529648   122.72144639   179.46906377
 H     47  42   2     1.091546151109   106.65128841   315.16475048
 H     47  42   2     1.088818625851   132.46019523    94.52397119
 H     47  42   2     1.089531091801    83.63838232   206.04504406
 H     48  43  41     1.080402239909   127.23657387   181.62955349
 H     50  42   2     1.083186502870   118.77001737    94.71359229

---------------------------
INTERNAL COORDINATES (A.U.)
---------------------------
 C      0   0   0     0.000000000000     0.00000000     0.00000000
 C      1   0   0    10.423772349659     0.00000000     0.00000000
 C      1   2   0     4.561162802142    47.57012668     0.00000000
 C      3   1   2     2.651709337808    87.90458705   131.13168572
 C      4   3   1     2.608597695737   120.18582026     0.15639858
 C      5   4   3     4.625885920191   152.49343940     1.56992164
 C      2   1   3     2.585360837309    15.84623269   342.77781448
 C      7   2   1     2.710026725231   108.05010202   138.33836754
 C      2   1   3     2.710100516721   119.49525588    30.15041893
 C      1   2   3     2.611632966746    34.28953723   317.55844722
 N      1   2   3     2.555489024994   119.47788206    59.96012844
 N      9   2   1     2.600503484979   106.58526707   347.02644698
 N     12   9   2     5.527566200405   168.53581413   171.12065651
 N     13  12   9     5.583221047236    91.55032014    11.12112580
 N     14  13  12     5.528150518591    88.43092389   359.84326247
 C      8   7   2     2.654668413270   127.24786865   181.11170171
 C     13  12   9     2.582376967257    81.72106996   188.00453233
 C     14  13  12    10.882574804710    80.56209567   166.76250791
 C     17  13  12     2.757130505230   111.08861209   183.82872609
 C     18  14  13     4.558465206823    27.27532823    36.33507194
 C     20  18  14     2.650705180609    87.95206320   148.94598259
 C     21  20  18     2.611803198586   120.14573887   359.70382047
 C     18  14  13     4.623235745386   144.15733107    82.80075377
 C     19  17  13     2.557953565794   106.29293361   359.75308708
 C     13  12   9     2.582903091751   172.21332906    33.46711076
 C     18  14  13     2.609636529225    15.08449437   309.23336894
 N     22  21  20     2.556370638369   120.73759875     0.27865223
 C     25  13  17     2.666210041769   125.60330303   182.37774668
 C     14  13  12     2.601476916169    80.24689249   177.85461986
 C     14  13  12    10.892550769017   164.51507311   312.20821879
 C     29  14  13     2.712892575415   106.58649366   178.76395472
 C     30  14  13     4.560507835333    27.10625047    82.12560436
 C     32  30  14     2.652673401891    87.90059683   149.76154742
 C     33  32  30     2.609133588376   120.14881443   359.74174632
 C     34  33  32     4.627519515267   152.49203239     2.45173620
 C     31  29  14     2.585449236669   108.16950133     0.70383075
 C     14  13  12     2.600716325456   169.26375223   353.09862627
 C     30  14  13     2.609536633043    14.68948582   353.70041132
 N     34  33  32     2.556154803934   120.85575621     0.19603406
 C     37  14  29     2.654530526499   126.01551127   180.90772073
 C     15  14  13     2.582293994346    81.61824056   183.09049352
 C      2   1   3     8.029564866989   142.11134755   158.91413260
 C     41  15  14     2.758391104639   111.05201287   175.08990246
 C     42   2   1     4.559821839776    41.78584867   199.17325052
 C     44  42   2     2.652129475853    87.95153797   233.97558675
 C     45  44  42     2.611027836043   120.11137308     0.19721020
 C     42   2   1     4.629866436820   135.97209175   109.48809962
 C     43  41  15     2.559561325344   106.26758155     0.30894352
 C     15  14  13     2.584127074516   171.87382904   332.35056460
 C     42   2   1     2.611386828803    32.59078432   248.02852971
 C      9   2   1     2.655043698059   126.98745415   168.03078450
 N     42   2   1     2.556355970587   113.57249190   137.22468882
 H      1   2   3     2.045458108377   111.92392682   201.35419681
 H      2   1   3     2.040730117440   114.35351541   199.50687419
 H      4   3   1     2.047641875053   121.02674378   179.51766316
 H      5   4   3     2.045149942481   122.81856684   179.43941319
 H      6   5   4     2.065105826835   104.41960383   100.17957950
 H      6   5   4     2.059987849616    84.66885846   209.59918548
 H      6   5   4     2.058592746807   133.92801244   322.36889630
 H      7   2   1     2.040541119952   126.66122480   318.57678133
 H     10   1   2     2.047986283912   118.73178718   279.08693636
 H     12   9   2     1.920524309565   125.29023241   180.00180175
 H     14  13  12     1.917952867083    44.97226959   359.42596618
 H     18  14  13     2.046330847636   128.03556573   234.20482432
 H     19  17  13     2.042592906181   126.41830519   178.11313280
 H     21  20  18     2.047649722989   121.05669627   180.67006309
 H     22  21  20     2.045596898814   122.73097286   180.59748951
 H     23  18  14     2.063779938267   103.92715769   234.93429879
 H     23  18  14     2.057669673245   134.19244188    12.25587044
 H     23  18  14     2.059486796529    84.85857450   125.45241208
 H     24  19  17     2.041046823986   127.28078426   178.44613241
 H     26  18  14     2.047344503340   118.76995697   244.94906660
 H     30  14  13     2.046012340948   127.99711412   279.66882698
 H     31  29  14     2.040450114918   125.22293469   180.92530585
 H     33  32  30     2.046930203877   121.01964473   180.74284758
 H     34  33  32     2.045617847496   122.70821597   180.59516895
 H     35  34  33     2.064814429233   105.73575241    97.19771933
 H     35  34  33     2.058786158072    84.05943581   206.43036958
 H     35  34  33     2.058418400901   133.08365142   318.50306270
 H     36  31  29     2.039845353366   126.61599965   178.98859863
 H     38  30  73     2.047975821711   118.77264435   359.90091293
 H     42   2   1     2.045020725966   119.31790784   353.85621927
 H     43  41  15     2.041436952892   126.36969097   182.06329380
 H     45  44  42     2.047097678177   121.10105945   179.58025624
 H     46  45  44     2.045051284662   122.72144639   179.46906377
 H     47  42   2     2.062723288131   106.65128841   315.16475048
 H     47  42   2     2.057569012371   132.46019523    94.52397119
 H     47  42   2     2.058915377895    83.63838232   206.04504406
 H     48  43  41     2.041664347903   127.23657387   181.62955349
 H     50  42   2     2.046925842384   118.77001737    94.71359229

---------------------
BASIS SET INFORMATION
---------------------
There are 3 groups of distinct atoms

 Group   1 Type C   : 17s4p1d contracted to 3s2p1d pattern {881/31/1}
 Group   2 Type N   : 17s4p1d contracted to 3s2p1d pattern {881/31/1}
 Group   3 Type H   : 4s1p contracted to 2s1p pattern {31/1}

Atom   0C    basis set group =>   1
Atom   1N    basis set group =>   2
Atom   2C    basis set group =>   1
Atom   3N    basis set group =>   2
Atom   4C    basis set group =>   1
Atom   5N    basis set group =>   2
Atom   6C    basis set group =>   1
Atom   7N    basis set group =>   2
Atom   8C    basis set group =>   1
Atom   9N    basis set group =>   2
Atom  10C    basis set group =>   1
Atom  11N    basis set group =>   2
Atom  12C    basis set group =>   1
Atom  13N    basis set group =>   2
Atom  14C    basis set group =>   1
Atom  15N    basis set group =>   2
Atom  16C    basis set group =>   1
Atom  17C    basis set group =>   1
Atom  18C    basis set group =>   1
Atom  19C    basis set group =>   1
Atom  20C    basis set group =>   1
Atom  21C    basis set group =>   1
Atom  22C    basis set group =>   1
Atom  23C    basis set group =>   1
Atom  24C    basis set group =>   1
Atom  25C    basis set group =>   1
Atom  26C    basis set group =>   1
Atom  27C    basis set group =>   1
Atom  28C    basis set group =>   1
Atom  29C    basis set group =>   1
Atom  30C    basis set group =>   1
Atom  31C    basis set group =>   1
Atom  32C    basis set group =>   1
Atom  33C    basis set group =>   1
Atom  34C    basis set group =>   1
Atom  35C    basis set group =>   1
Atom  36C    basis set group =>   1
Atom  37C    basis set group =>   1
Atom  38C    basis set group =>   1
Atom  39C    basis set group =>   1
Atom  40C    basis set group =>   1
Atom  41C    basis set group =>   1
Atom  42C    basis set group =>   1
Atom  43C    basis set group =>   1
Atom  44C    basis set group =>   1
Atom  45C    basis set group =>   1
Atom  46C    basis set group =>   1
Atom  47C    basis set group =>   1
Atom  48C    basis set group =>   1
Atom  49C    basis set group =>   1
Atom  50C    basis set group =>   1
Atom  51C    basis set group =>   1
Atom  52H    basis set group =>   3
Atom  53H    basis set group =>   3
Atom  54H    basis set group =>   3
Atom  55H    basis set group =>   3
Atom  56H    basis set group =>   3
Atom  57H    basis set group =>   3
Atom  58H    basis set group =>   3
Atom  59H    basis set group =>   3
Atom  60H    basis set group =>   3
Atom  61H    basis set group =>   3
Atom  62H    basis set group =>   3
Atom  63H    basis set group =>   3
Atom  64H    basis set group =>   3
Atom  65H    basis set group =>   3
Atom  66H    basis set group =>   3
Atom  67H    basis set group =>   3
Atom  68H    basis set group =>   3
Atom  69H    basis set group =>   3
Atom  70H    basis set group =>   3
Atom  71H    basis set group =>   3
Atom  72H    basis set group =>   3
Atom  73H    basis set group =>   3
Atom  74H    basis set group =>   3
Atom  75H    basis set group =>   3
Atom  76H    basis set group =>   3
Atom  77H    basis set group =>   3
Atom  78H    basis set group =>   3
Atom  79H    basis set group =>   3
Atom  80H    basis set group =>   3
Atom  81H    basis set group =>   3
Atom  82H    basis set group =>   3
Atom  83H    basis set group =>   3
Atom  84H    basis set group =>   3
Atom  85H    basis set group =>   3
Atom  86H    basis set group =>   3
Atom  87H    basis set group =>   3
Atom  88H    basis set group =>   3
Atom  89H    basis set group =>   3


           ************************************************************
           *        Program running with 16 parallel MPI-processes    *
           *              working on a common directory               *
           ************************************************************
------------------------------------------------------------------------------
                           ORCA GTO INTEGRAL CALCULATION
------------------------------------------------------------------------------
------------------------------------------------------------------------------
                   ___                                                        
                  /   \      - P O W E R E D   B Y -                         
                 /     \                                                     
                 |  |  |   _    _      __       _____    __    __             
                 |  |  |  | |  | |    /  \     |  _  \  |  |  /  |          
                  \  \/   | |  | |   /    \    | | | |  |  | /  /          
                 / \  \   | |__| |  /  /\  \   | |_| |  |  |/  /          
                |  |  |   |  __  | /  /__\  \  |    /   |      \           
                |  |  |   | |  | | |   __   |  |    \   |  |\   \          
                \     /   | |  | | |  |  |  |  | |\  \  |  | \   \       
                 \___/    |_|  |_| |__|  |__|  |_| \__\ |__|  \__/        
                                                                              
                      - O R C A' S   B I G   F R I E N D -                    
                                      &                                       
                       - I N T E G R A L  F E E D E R -                       
                                                                              
 v1 FN, 2020, v2 2021                                                         
------------------------------------------------------------------------------


Reading SHARK input file /scratch/allen/tmpyp4_amber_gaff2/conf1/conf1/Conf62.orca.SHARKINP.tmp ... ok
----------------------
SHARK INTEGRAL PACKAGE
----------------------

Number of atoms                             ...     90
Number of basis functions                   ...   1230
Number of shells                            ...    738
Maximum angular momentum                    ...      2
Integral batch strategy                     ... SHARK/LIBINT Hybrid
RI-J (if used) integral strategy            ... SPLIT-RIJ (Revised 2003 algorithm where possible)
Printlevel                                  ...      1
Contraction scheme used                     ... PARTIAL GENERAL contraction
Coulomb Range Separation                    ... NOT USED
Exchange Range Separation                   ... NOT USED
Finite Nucleus Model                        ... NOT USED
Auxiliary Coulomb fitting basis             ... NOT available
Auxiliary J/K fitting basis                 ... NOT available
Auxiliary Correlation fitting basis         ... NOT available
Auxiliary 'external' fitting basis          ... NOT available
Integral threshold                          ...     2.500000e-11
Primitive cut-off                           ...     2.500000e-12
Primitive pair pre-selection threshold      ...     2.500000e-12

Calculating pre-screening integrals         ... done (  0.1 sec) Dimension = 738
Calculating pre-screening integrals (ORCA)  ... done (  0.3 sec) Dimension = 426
Organizing shell pair data                  ... done (  0.5 sec)
Shell pair information
Total number of shell pairs                 ...    272691
Shell pairs after pre-screening             ...     71593
Total number of primitive shell pairs       ...    422091
Primitive shell pairs kept                  ...     92341
          la=0 lb=0:  29402 shell pairs
          la=1 lb=0:  25966 shell pairs
          la=1 lb=1:   4698 shell pairs
          la=2 lb=0:   7874 shell pairs
          la=2 lb=1:   3122 shell pairs
          la=2 lb=2:    531 shell pairs

Calculating one electron integrals          ... done (  0.2 sec)
Calculating Nuclear repulsion               ... done (  0.0 sec) ENN=   6224.753067753815 Eh

SHARK setup successfully completed in   1.7 seconds

Maximum memory used throughout the entire GTOINT-calculation: 98.9 MB


           ************************************************************
           *        Program running with 16 parallel MPI-processes    *
           *              working on a common directory               *
           ************************************************************
-------------------------------------------------------------------------------
                                 ORCA SCF
-------------------------------------------------------------------------------

------------
SCF SETTINGS
------------
Hamiltonian:
 Ab initio Hamiltonian  Method          .... Hartree-Fock(GTOs)


General Settings:
 Integral files         IntName         .... /scratch/allen/tmpyp4_amber_gaff2/conf1/conf1/Conf62.orca
 Hartree-Fock type      HFTyp           .... RHF
 Total Charge           Charge          ....    0
 Multiplicity           Mult            ....    1
 Number of Electrons    NEL             ....  358
 Basis Dimension        Dim             ....  918
 Nuclear Repulsion      ENuc            ....   6224.7530677538 Eh

Convergence Acceleration:
 DIIS                   CNVDIIS         .... on
   Start iteration      DIISMaxIt       ....    12
   Startup error        DIISStart       ....  0.200000
   # of expansion vecs  DIISMaxEq       ....     5
   Bias factor          DIISBfac        ....   1.050
   Max. coefficient     DIISMaxC        ....  10.000
 Trust-Rad. Augm. Hess. CNVTRAH         .... auto
   Auto Start mean grad. ratio tolernc. ....  1.125000
   Auto Start start iteration           ....    20
   Auto Start num. interpolation iter.  ....    10
   Max. Number of Micro iterations      ....    16
   Max. Number of Macro iterations      .... Maxiter - #DIIS iter
   Number of Davidson start vectors     ....     2
   Converg. threshold I  (grad. norm)   ....   1.000e-05
   Converg. threshold II (energy diff.) ....   1.000e-08
   Grad. Scal. Fac. for Micro threshold ....   0.100
   Minimum threshold for Micro iter.    ....   0.010
   NR start threshold (gradient norm)   ....   0.001
   Initial trust radius                 ....   0.400
   Minimum AH scaling param. (alpha)    ....   1.000
   Maximum AH scaling param. (alpha)    .... 1000.000
   Orbital update algorithm             .... Taylor
   White noise on init. David. guess    .... on
   Maximum white noise                  ....   0.010
   Quad. conv. algorithm                .... NR
 SOSCF                  CNVSOSCF        .... on
   Start iteration      SOSCFMaxIt      ....   150
   Startup grad/error   SOSCFStart      ....  0.003300
 Level Shifting         CNVShift        .... on
   Level shift para.    LevelShift      ....    0.2500
   Turn off err/grad.   ShiftErr        ....    0.0010
 Zerner damping         CNVZerner       .... off
 Static damping         CNVDamp         .... on
   Fraction old density DampFac         ....    0.7000
   Max. Damping (<1)    DampMax         ....    0.9800
   Min. Damping (>=0)   DampMin         ....    0.0000
   Turn off err/grad.   DampErr         ....    0.1000
 Fernandez-Rico         CNVRico         .... off

SCF Procedure:
 Maximum # iterations   MaxIter         ....   125
 SCF integral mode      SCFMode         .... Direct
   Integral package                     .... SHARK and LIBINT hybrid scheme
 Reset frequency        DirectResetFreq ....    20
 Integral Threshold     Thresh          ....  2.500e-11 Eh
 Primitive CutOff       TCut            ....  2.500e-12 Eh

Convergence Tolerance:
 Convergence Check Mode ConvCheckMode   .... Total+1el-Energy
 Convergence forced     ConvForced      .... 1
 Energy Change          TolE            ....  1.000e-08 Eh
 1-El. energy change                    ....  1.000e-05 Eh
 Orbital Gradient       TolG            ....  1.000e-05
 Orbital Rotation angle TolX            ....  1.000e-05
 DIIS Error             TolErr          ....  5.000e-07


Diagonalization of the overlap matrix:
Smallest eigenvalue                        ... 2.251e-04
Time for diagonalization                   ...    0.388 sec
Threshold for overlap eigenvalues          ... 1.000e-08
Number of eigenvalues below threshold      ... 0
Time for construction of square roots      ...    0.190 sec
Total time needed                          ...    0.583 sec

Time for model grid setup =    1.008 sec

------------------------------
INITIAL GUESS: MODEL POTENTIAL
------------------------------
Loading Hartree-Fock densities                     ... done
Calculating cut-offs                               ... done
Initializing the effective Hamiltonian             ... done
Setting up the integral package (SHARK)            ... done
Starting the Coulomb interaction                   ... done (   1.1 sec)
Reading the grid                                   ... done
Mapping shells                                     ... done
Starting the XC term evaluation                    ... done (   0.2 sec)
Transforming the Hamiltonian                       ... done (   0.2 sec)
Diagonalizing the Hamiltonian                      ... done (   0.3 sec)
Back transforming the eigenvectors                 ... done (   0.1 sec)
Now organizing SCF variables                       ... done
                      ------------------
                      INITIAL GUESS DONE (   3.0 sec)
                      ------------------
--------------
SCF ITERATIONS
--------------
ITER       Energy         Delta-E        Max-DP      RMS-DP      [F,P]     Damp
               ***  Starting incremental Fock matrix formation  ***
  0  -2121.6656551923   0.000000000000 0.06910745  0.00121238  0.2331483 0.7000
  1  -2122.3321978081  -0.666542615818 0.05244649  0.00098402  0.1442399 0.7000
                               ***Turning on DIIS***
  2  -2122.7462259584  -0.414028150262 0.11646353  0.00222770  0.0802779 0.0000
  3  -2117.7066636300   5.039562328335 0.03100982  0.00068759  0.0442970 0.0000
  4  -2123.4059511577  -5.699287527652 0.00880411  0.00022989  0.0069400 0.0000
  5  -2123.5878259099  -0.181874752203 0.00511030  0.00013679  0.0049098 0.0000
  6  -2123.5707570936   0.017068816293 0.00329615  0.00008956  0.0019417 0.0000
  7  -2123.6773329702  -0.106575876629 0.00277148  0.00007158  0.0014795 0.0000
  8  -2123.6992159640  -0.021882993797 0.00264285  0.00006818  0.0013815 0.0000
  9  -2123.6613594229   0.037856541108 0.00212897  0.00004673  0.0010849 0.0000
 10  -2123.6785886647  -0.017229241728 0.00444024  0.00009327  0.0008209 0.0000
                      *** Initiating the SOSCF procedure ***
                           *** Shutting down DIIS ***
                      *** Re-Reading the Fockian *** 
                      *** Removing any level shift *** 
ITER      Energy       Delta-E        Grad      Rot      Max-DP    RMS-DP
 11  -2123.55124834   0.1273403240  0.000373  0.000373  0.000294  0.000007
               *** Restarting incremental Fock matrix formation ***
 12  -2123.62110066  -0.0698523166  0.001063  0.007282  0.001086  0.000027
 13  -2123.62116753  -0.0000668758  0.001096  0.027076  0.003371  0.000081
 14  -2123.62123994  -0.0000724041  0.000440  0.003135  0.000492  0.000012
 15  -2123.62124963  -0.0000096970  0.000104  0.001027  0.000181  0.000005
 16  -2123.62125133  -0.0000016923  0.000087  0.001036  0.000317  0.000005
 17  -2123.62125213  -0.0000008078  0.000059  0.000803  0.000181  0.000003
 18  -2123.62125236  -0.0000002304  0.000029  0.000236  0.000100  0.000002
 19  -2123.62125255  -0.0000001850  0.000022  0.000392  0.000155  0.000002
 20  -2123.62125265  -0.0000000993  0.000012  0.000240  0.000071  0.000001
 21  -2123.62125267  -0.0000000167  0.000012  0.000290  0.000050  0.000001
 22  -2123.62125268  -0.0000000144  0.000009  0.000278  0.000040  0.000001
 23  -2123.62125269  -0.0000000098  0.000007  0.000207  0.000025  0.000001
 24  -2123.62125270  -0.0000000061  0.000004  0.000124  0.000020  0.000000
 25  -2123.62125270  -0.0000000064  0.000003  0.000115  0.000017  0.000000
                  ***Gradient check signals convergence***
              ***Rediagonalizing the Fockian in SOSCF/NRSCF***

               *****************************************************
               *                     SUCCESS                       *
               *           SCF CONVERGED AFTER  26 CYCLES          *
               *****************************************************


----------------
TOTAL SCF ENERGY
----------------

Total Energy       :        -2123.62125270 Eh          -57786.67210 eV

Components:
Nuclear Repulsion  :         6224.75306775 Eh          169384.14230 eV
Electronic Energy  :        -8348.37432046 Eh         -227170.81440 eV
One Electron Energy:       -15290.70615707 Eh         -416081.26770 eV
Two Electron Energy:         6942.33183662 Eh          188910.45330 eV

Virial components:
Potential Energy   :        -4245.62119431 Eh         -115529.22609 eV
Kinetic Energy     :         2121.99994161 Eh           57742.55399 eV
Virial Ratio       :            2.00076405


---------------
SCF CONVERGENCE
---------------

  Last Energy change         ...   -1.1314e-09  Tolerance :   1.0000e-08
  Last MAX-Density change    ...    1.0078e-05  Tolerance :   1.0000e-07
  Last RMS-Density change    ...    2.1941e-07  Tolerance :   5.0000e-09
  Last Orbital Gradient      ...    1.9059e-06  Tolerance :   1.0000e-05
  Last Orbital Rotation      ...    6.9280e-05  Tolerance :   1.0000e-05

             **** THE GBW FILE WAS UPDATED (/scratch/allen/tmpyp4_amber_gaff2/conf1/conf1/Conf62.orca.gbw) ****
             **** DENSITY /scratch/allen/tmpyp4_amber_gaff2/conf1/conf1/Conf62.orca.scfp WAS UPDATED ****
             **** ENERGY FILE WAS UPDATED (/scratch/allen/tmpyp4_amber_gaff2/conf1/conf1/Conf62.orca.en.tmp) ****
             **** THE GBW FILE WAS UPDATED (/scratch/allen/tmpyp4_amber_gaff2/conf1/conf1/Conf62.orca.gbw) ****
             **** DENSITY /scratch/allen/tmpyp4_amber_gaff2/conf1/conf1/Conf62.orca.scfp WAS UPDATED ****
----------------
ORBITAL ENERGIES
----------------

  NO   OCC          E(Eh)            E(eV) 
   0   2.0000     -15.638176      -425.5364 
   1   2.0000     -15.634090      -425.4252 
   2   2.0000     -15.631349      -425.3506 
   3   2.0000     -15.629314      -425.2953 
   4   2.0000     -15.516915      -422.2367 
   5   2.0000     -15.516793      -422.2334 
   6   2.0000     -15.444420      -420.2640 
   7   2.0000     -15.442296      -420.2062 
   8   2.0000     -11.301865      -307.5394 
   9   2.0000     -11.299706      -307.4806 
  10   2.0000     -11.297821      -307.4294 
  11   2.0000     -11.296350      -307.3893 
  12   2.0000     -11.293362      -307.3080 
  13   2.0000     -11.293322      -307.3069 
  14   2.0000     -11.291348      -307.2532 
  15   2.0000     -11.290039      -307.2176 
  16   2.0000     -11.289191      -307.1945 
  17   2.0000     -11.286876      -307.1315 
  18   2.0000     -11.286589      -307.1237 
  19   2.0000     -11.285605      -307.0969 
  20   2.0000     -11.241427      -305.8948 
  21   2.0000     -11.238913      -305.8264 
  22   2.0000     -11.236138      -305.7508 
  23   2.0000     -11.233620      -305.6823 
  24   2.0000     -11.233538      -305.6801 
  25   2.0000     -11.232736      -305.6583 
  26   2.0000     -11.230725      -305.6036 
  27   2.0000     -11.230105      -305.5867 
  28   2.0000     -11.228690      -305.5482 
  29   2.0000     -11.227827      -305.5247 
  30   2.0000     -11.227142      -305.5061 
  31   2.0000     -11.226939      -305.5005 
  32   2.0000     -11.197173      -304.6906 
  33   2.0000     -11.197141      -304.6897 
  34   2.0000     -11.196417      -304.6700 
  35   2.0000     -11.195903      -304.6560 
  36   2.0000     -11.173138      -304.0365 
  37   2.0000     -11.172445      -304.0177 
  38   2.0000     -11.170129      -303.9547 
  39   2.0000     -11.169745      -303.9442 
  40   2.0000     -11.169238      -303.9304 
  41   2.0000     -11.169051      -303.9253 
  42   2.0000     -11.167457      -303.8819 
  43   2.0000     -11.166904      -303.8669 
  44   2.0000     -11.156593      -303.5863 
  45   2.0000     -11.155166      -303.5475 
  46   2.0000     -11.154806      -303.5377 
  47   2.0000     -11.153766      -303.5094 
  48   2.0000     -11.144643      -303.2611 
  49   2.0000     -11.142821      -303.2116 
  50   2.0000     -11.140501      -303.1484 
  51   2.0000     -11.139035      -303.1085 
  52   2.0000      -1.324750       -36.0483 
  53   2.0000      -1.321479       -35.9593 
  54   2.0000      -1.319006       -35.8920 
  55   2.0000      -1.317056       -35.8389 
  56   2.0000      -1.215691       -33.0806 
  57   2.0000      -1.213629       -33.0245 
  58   2.0000      -1.161768       -31.6133 
  59   2.0000      -1.156249       -31.4631 
  60   2.0000      -1.114208       -30.3192 
  61   2.0000      -1.109299       -30.1855 
  62   2.0000      -1.108533       -30.1647 
  63   2.0000      -1.104701       -30.0604 
  64   2.0000      -1.048557       -28.5327 
  65   2.0000      -1.046053       -28.4645 
  66   2.0000      -1.043475       -28.3944 
  67   2.0000      -1.041603       -28.3435 
  68   2.0000      -1.025837       -27.9144 
  69   2.0000      -1.010141       -27.4873 
  70   2.0000      -1.007961       -27.4280 
  71   2.0000      -0.999169       -27.1888 
  72   2.0000      -0.979318       -26.6486 
  73   2.0000      -0.977396       -26.5963 
  74   2.0000      -0.966922       -26.3113 
  75   2.0000      -0.962238       -26.1838 
  76   2.0000      -0.952131       -25.9088 
  77   2.0000      -0.943509       -25.6742 
  78   2.0000      -0.939590       -25.5676 
  79   2.0000      -0.923495       -25.1296 
  80   2.0000      -0.892337       -24.2817 
  81   2.0000      -0.875940       -23.8355 
  82   2.0000      -0.873587       -23.7715 
  83   2.0000      -0.870551       -23.6889 
  84   2.0000      -0.867316       -23.6009 
  85   2.0000      -0.856509       -23.3068 
  86   2.0000      -0.848438       -23.0872 
  87   2.0000      -0.844405       -22.9774 
  88   2.0000      -0.821935       -22.3660 
  89   2.0000      -0.798270       -21.7220 
  90   2.0000      -0.797973       -21.7139 
  91   2.0000      -0.738938       -20.1075 
  92   2.0000      -0.727885       -19.8068 
  93   2.0000      -0.727387       -19.7932 
  94   2.0000      -0.722374       -19.6568 
  95   2.0000      -0.718660       -19.5557 
  96   2.0000      -0.711873       -19.3711 
  97   2.0000      -0.711175       -19.3521 
  98   2.0000      -0.698016       -18.9940 
  99   2.0000      -0.691059       -18.8047 
 100   2.0000      -0.683141       -18.5892 
 101   2.0000      -0.679908       -18.5012 
 102   2.0000      -0.677838       -18.4449 
 103   2.0000      -0.674897       -18.3649 
 104   2.0000      -0.669977       -18.2310 
 105   2.0000      -0.667129       -18.1535 
 106   2.0000      -0.662770       -18.0349 
 107   2.0000      -0.658045       -17.9063 
 108   2.0000      -0.655199       -17.8289 
 109   2.0000      -0.653758       -17.7897 
 110   2.0000      -0.652188       -17.7469 
 111   2.0000      -0.651701       -17.7337 
 112   2.0000      -0.649807       -17.6822 
 113   2.0000      -0.648341       -17.6423 
 114   2.0000      -0.634349       -17.2615 
 115   2.0000      -0.623819       -16.9750 
 116   2.0000      -0.615521       -16.7492 
 117   2.0000      -0.613712       -16.6999 
 118   2.0000      -0.610912       -16.6238 
 119   2.0000      -0.609629       -16.5888 
 120   2.0000      -0.608521       -16.5587 
 121   2.0000      -0.607232       -16.5236 
 122   2.0000      -0.603240       -16.4150 
 123   2.0000      -0.594939       -16.1891 
 124   2.0000      -0.584323       -15.9002 
 125   2.0000      -0.581691       -15.8286 
 126   2.0000      -0.580086       -15.7850 
 127   2.0000      -0.578675       -15.7465 
 128   2.0000      -0.568620       -15.4729 
 129   2.0000      -0.564108       -15.3502 
 130   2.0000      -0.553465       -15.0606 
 131   2.0000      -0.540818       -14.7164 
 132   2.0000      -0.538765       -14.6605 
 133   2.0000      -0.536175       -14.5901 
 134   2.0000      -0.535209       -14.5638 
 135   2.0000      -0.530757       -14.4426 
 136   2.0000      -0.524822       -14.2811 
 137   2.0000      -0.523271       -14.2389 
 138   2.0000      -0.515878       -14.0378 
 139   2.0000      -0.513575       -13.9751 
 140   2.0000      -0.511696       -13.9240 
 141   2.0000      -0.508068       -13.8252 
 142   2.0000      -0.502923       -13.6852 
 143   2.0000      -0.502427       -13.6717 
 144   2.0000      -0.498688       -13.5700 
 145   2.0000      -0.497927       -13.5493 
 146   2.0000      -0.496103       -13.4997 
 147   2.0000      -0.494855       -13.4657 
 148   2.0000      -0.491308       -13.3692 
 149   2.0000      -0.468582       -12.7508 
 150   2.0000      -0.459900       -12.5145 
 151   2.0000      -0.451056       -12.2739 
 152   2.0000      -0.447500       -12.1771 
 153   2.0000      -0.445689       -12.1278 
 154   2.0000      -0.444887       -12.1060 
 155   2.0000      -0.439965       -11.9720 
 156   2.0000      -0.435099       -11.8396 
 157   2.0000      -0.431547       -11.7430 
 158   2.0000      -0.391265       -10.6469 
 159   2.0000      -0.379534       -10.3277 
 160   2.0000      -0.377299       -10.2668 
 161   2.0000      -0.375096       -10.2069 
 162   2.0000      -0.359009        -9.7691 
 163   2.0000      -0.356400        -9.6981 
 164   2.0000      -0.354870        -9.6565 
 165   2.0000      -0.353171        -9.6103 
 166   2.0000      -0.337372        -9.1803 
 167   2.0000      -0.332011        -9.0345 
 168   2.0000      -0.328430        -8.9370 
 169   2.0000      -0.300324        -8.1722 
 170   2.0000      -0.292169        -7.9503 
 171   2.0000      -0.291063        -7.9202 
 172   2.0000      -0.287487        -7.8229 
 173   2.0000      -0.255289        -6.9468 
 174   2.0000      -0.247710        -6.7405 
 175   2.0000      -0.187600        -5.1049 
 176   2.0000      -0.177429        -4.8281 
 177   2.0000      -0.065396        -1.7795 
 178   2.0000      -0.053605        -1.4587 
 179   0.0000       0.031644         0.8611 
 180   0.0000       0.070666         1.9229 
 181   0.0000       0.092560         2.5187 
 182   0.0000       0.095785         2.6065 
 183   0.0000       0.134921         3.6714 
 184   0.0000       0.137543         3.7427 
 185   0.0000       0.140136         3.8133 
 186   0.0000       0.141386         3.8473 
 187   0.0000       0.160726         4.3736 
 188   0.0000       0.163048         4.4368 
 189   0.0000       0.164794         4.4843 
 190   0.0000       0.166405         4.5281 
 191   0.0000       0.167562         4.5596 
 192   0.0000       0.202654         5.5145 
 193   0.0000       0.204398         5.5620 
 194   0.0000       0.206349         5.6150 
 195   0.0000       0.206545         5.6204 
 196   0.0000       0.207587         5.6487 
 197   0.0000       0.208048         5.6613 
 198   0.0000       0.209664         5.7053 
 199   0.0000       0.210963         5.7406 
 200   0.0000       0.237283         6.4568 
 201   0.0000       0.239116         6.5067 
 202   0.0000       0.240736         6.5508 
 203   0.0000       0.242083         6.5874 
 204   0.0000       0.254777         6.9328 
 205   0.0000       0.255655         6.9567 
 206   0.0000       0.257655         7.0111 
 207   0.0000       0.259277         7.0553 
 208   0.0000       0.260579         7.0907 
 209   0.0000       0.264934         7.2092 
 210   0.0000       0.267406         7.2765 
 211   0.0000       0.270158         7.3514 
 212   0.0000       0.274851         7.4791 
 213   0.0000       0.275814         7.5053 
 214   0.0000       0.277868         7.5612 
 215   0.0000       0.279148         7.5960 
 216   0.0000       0.280430         7.6309 
 217   0.0000       0.283988         7.7277 
 218   0.0000       0.285668         7.7734 
 219   0.0000       0.290039         7.8924 
 220   0.0000       0.291262         7.9256 
 221   0.0000       0.292950         7.9716 
 222   0.0000       0.294778         8.0213 
 223   0.0000       0.296340         8.0638 
 224   0.0000       0.298343         8.1183 
 225   0.0000       0.299193         8.1415 
 226   0.0000       0.301275         8.1981 
 227   0.0000       0.302243         8.2244 
 228   0.0000       0.307488         8.3672 
 229   0.0000       0.309477         8.4213 
 230   0.0000       0.313123         8.5205 
 231   0.0000       0.318164         8.6577 
 232   0.0000       0.326481         8.8840 
 233   0.0000       0.327371         8.9082 
 234   0.0000       0.332573         9.0498 
 235   0.0000       0.335390         9.1264 
 236   0.0000       0.356821         9.7096 
 237   0.0000       0.387971        10.5572 
 238   0.0000       0.394945        10.7470 
 239   0.0000       0.402324        10.9478 
 240   0.0000       0.404513        11.0073 
 241   0.0000       0.409207        11.1351 
 242   0.0000       0.420705        11.4480 
 243   0.0000       0.426412        11.6033 
 244   0.0000       0.430927        11.7261 
 245   0.0000       0.434657        11.8276 
 246   0.0000       0.437327        11.9003 
 247   0.0000       0.438837        11.9414 
 248   0.0000       0.440060        11.9746 
 249   0.0000       0.442546        12.0423 
 250   0.0000       0.443992        12.0816 
 251   0.0000       0.444650        12.0995 
 252   0.0000       0.455190        12.3863 
 253   0.0000       0.469939        12.7877 
 254   0.0000       0.472759        12.8644 
 255   0.0000       0.475038        12.9264 
 256   0.0000       0.477957        13.0059 
 257   0.0000       0.486935        13.2502 
 258   0.0000       0.488715        13.2986 
 259   0.0000       0.498362        13.5611 
 260   0.0000       0.501572        13.6485 
 261   0.0000       0.504976        13.7411 
 262   0.0000       0.506386        13.7795 
 263   0.0000       0.509807        13.8725 
 264   0.0000       0.511658        13.9229 
 265   0.0000       0.515151        14.0180 
 266   0.0000       0.515766        14.0347 
 267   0.0000       0.521669        14.1953 
 268   0.0000       0.536976        14.6119 
 269   0.0000       0.538078        14.6418 
 270   0.0000       0.540013        14.6945 
 271   0.0000       0.545683        14.8488 
 272   0.0000       0.550155        14.9705 
 273   0.0000       0.552756        15.0413 
 274   0.0000       0.560568        15.2538 
 275   0.0000       0.562109        15.2958 
 276   0.0000       0.573072        15.5941 
 277   0.0000       0.574392        15.6300 
 278   0.0000       0.584044        15.8926 
 279   0.0000       0.586916        15.9708 
 280   0.0000       0.590332        16.0638 
 281   0.0000       0.591150        16.0860 
 282   0.0000       0.594794        16.1852 
 283   0.0000       0.596874        16.2418 
 284   0.0000       0.598800        16.2942 
 285   0.0000       0.603981        16.4352 
 286   0.0000       0.604864        16.4592 
 287   0.0000       0.607729        16.5372 
 288   0.0000       0.609117        16.5749 
 289   0.0000       0.613134        16.6842 
 290   0.0000       0.615346        16.7444 
 291   0.0000       0.627834        17.0842 
 292   0.0000       0.639391        17.3987 
 293   0.0000       0.641437        17.4544 
 294   0.0000       0.644004        17.5242 
 295   0.0000       0.650205        17.6930 
 296   0.0000       0.657285        17.8856 
 297   0.0000       0.659966        17.9586 
 298   0.0000       0.661901        18.0112 
 299   0.0000       0.662917        18.0389 
 300   0.0000       0.671107        18.2618 
 301   0.0000       0.672594        18.3022 
 302   0.0000       0.674989        18.3674 
 303   0.0000       0.680004        18.5038 
 304   0.0000       0.682782        18.5795 
 305   0.0000       0.684847        18.6356 
 306   0.0000       0.690326        18.7847 
 307   0.0000       0.698248        19.0003 
 308   0.0000       0.700242        19.0545 
 309   0.0000       0.701612        19.0918 
 310   0.0000       0.704527        19.1712 
 311   0.0000       0.705791        19.2055 
 312   0.0000       0.706918        19.2362 
 313   0.0000       0.709297        19.3010 
 314   0.0000       0.711645        19.3649 
 315   0.0000       0.715260        19.4632 
 316   0.0000       0.716267        19.4906 
 317   0.0000       0.717986        19.5374 
 318   0.0000       0.719358        19.5747 
 319   0.0000       0.721988        19.6463 
 320   0.0000       0.722968        19.6730 
 321   0.0000       0.724864        19.7246 
 322   0.0000       0.730418        19.8757 
 323   0.0000       0.735642        20.0178 
 324   0.0000       0.741286        20.1714 
 325   0.0000       0.741615        20.1804 
 326   0.0000       0.744627        20.2623 
 327   0.0000       0.746755        20.3202 
 328   0.0000       0.747597        20.3431 
 329   0.0000       0.750094        20.4111 
 330   0.0000       0.753279        20.4978 
 331   0.0000       0.753728        20.5100 
 332   0.0000       0.760024        20.6813 
 333   0.0000       0.761527        20.7222 
 334   0.0000       0.762896        20.7595 
 335   0.0000       0.765858        20.8401 
 336   0.0000       0.771910        21.0047 
 337   0.0000       0.777126        21.1467 
 338   0.0000       0.786489        21.4015 
 339   0.0000       0.788302        21.4508 
 340   0.0000       0.791392        21.5349 
 341   0.0000       0.793662        21.5967 
 342   0.0000       0.797299        21.6956 
 343   0.0000       0.799872        21.7656 
 344   0.0000       0.803802        21.8726 
 345   0.0000       0.805471        21.9180 
 346   0.0000       0.807055        21.9611 
 347   0.0000       0.812752        22.1161 
 348   0.0000       0.815246        22.1840 
 349   0.0000       0.816802        22.2263 
 350   0.0000       0.820614        22.3300 
 351   0.0000       0.823158        22.3993 
 352   0.0000       0.825724        22.4691 
 353   0.0000       0.829145        22.5622 
 354   0.0000       0.831713        22.6321 
 355   0.0000       0.832742        22.6600 
 356   0.0000       0.834052        22.6957 
 357   0.0000       0.836560        22.7639 
 358   0.0000       0.837546        22.7908 
 359   0.0000       0.839027        22.8311 
 360   0.0000       0.841093        22.8873 
 361   0.0000       0.842846        22.9350 
 362   0.0000       0.843354        22.9488 
 363   0.0000       0.845827        23.0161 
 364   0.0000       0.847308        23.0564 
 365   0.0000       0.847885        23.0721 
 366   0.0000       0.849849        23.1256 
 367   0.0000       0.851815        23.1791 
 368   0.0000       0.856547        23.3078 
 369   0.0000       0.858639        23.3648 
 370   0.0000       0.865957        23.5639 
 371   0.0000       0.867436        23.6041 
 372   0.0000       0.869018        23.6472 
 373   0.0000       0.877464        23.8770 
 374   0.0000       0.879717        23.9383 
 375   0.0000       0.881294        23.9812 
 376   0.0000       0.883200        24.0331 
 377   0.0000       0.890240        24.2247 
 378   0.0000       0.892634        24.2898 
 379   0.0000       0.896204        24.3869 
 380   0.0000       0.897408        24.4197 
 381   0.0000       0.900351        24.4998 
 382   0.0000       0.902887        24.5688 
 383   0.0000       0.904050        24.6005 
 384   0.0000       0.905794        24.6479 
 385   0.0000       0.907988        24.7076 
 386   0.0000       0.909083        24.7374 
 387   0.0000       0.909383        24.7456 
 388   0.0000       0.912426        24.8284 
 389   0.0000       0.914318        24.8799 
 390   0.0000       0.915975        24.9250 
 391   0.0000       0.920820        25.0568 
 392   0.0000       0.921675        25.0801 
 393   0.0000       0.924208        25.1490 
 394   0.0000       0.929180        25.2843 
 395   0.0000       0.932796        25.3827 
 396   0.0000       0.934675        25.4338 
 397   0.0000       0.936270        25.4772 
 398   0.0000       0.938247        25.5310 
 399   0.0000       0.940793        25.6003 
 400   0.0000       0.944032        25.6884 
 401   0.0000       0.945726        25.7345 
 402   0.0000       0.948628        25.8135 
 403   0.0000       0.949374        25.8338 
 404   0.0000       0.952327        25.9141 
 405   0.0000       0.955593        26.0030 
 406   0.0000       0.957597        26.0576 
 407   0.0000       0.966437        26.2981 
 408   0.0000       0.968750        26.3610 
 409   0.0000       0.970170        26.3997 
 410   0.0000       0.975125        26.5345 
 411   0.0000       0.978789        26.6342 
 412   0.0000       0.981603        26.7108 
 413   0.0000       0.988343        26.8942 
 414   0.0000       0.990180        26.9442 
 415   0.0000       0.991478        26.9795 
 416   0.0000       0.992311        27.0022 
 417   0.0000       1.004296        27.3283 
 418   0.0000       1.007250        27.4087 
 419   0.0000       1.012373        27.5481 
 420   0.0000       1.023402        27.8482 
 421   0.0000       1.030799        28.0495 
 422   0.0000       1.033128        28.1128 
 423   0.0000       1.035947        28.1895 
 424   0.0000       1.040644        28.3174 
 425   0.0000       1.045954        28.4619 
 426   0.0000       1.052691        28.6452 
 427   0.0000       1.066159        29.0117 
 428   0.0000       1.072024        29.1712 
 429   0.0000       1.072563        29.1859 
 430   0.0000       1.075979        29.2789 
 431   0.0000       1.081069        29.4174 
 432   0.0000       1.084805        29.5190 
 433   0.0000       1.088009        29.6062 
 434   0.0000       1.093814        29.7642 
 435   0.0000       1.100198        29.9379 
 436   0.0000       1.110999        30.2318 
 437   0.0000       1.112126        30.2625 
 438   0.0000       1.115841        30.3636 
 439   0.0000       1.117999        30.4223 
 440   0.0000       1.123222        30.5644 
 441   0.0000       1.124302        30.5938 
 442   0.0000       1.130582        30.7647 
 443   0.0000       1.132834        30.8260 
 444   0.0000       1.134269        30.8650 
 445   0.0000       1.134994        30.8848 
 446   0.0000       1.138093        30.9691 
 447   0.0000       1.143097        31.1053 
 448   0.0000       1.143873        31.1264 
 449   0.0000       1.144919        31.1548 
 450   0.0000       1.148619        31.2555 
 451   0.0000       1.150492        31.3065 
 452   0.0000       1.151823        31.3427 
 453   0.0000       1.160289        31.5731 
 454   0.0000       1.160963        31.5914 
 455   0.0000       1.165567        31.7167 
 456   0.0000       1.174325        31.9550 
 457   0.0000       1.178501        32.0686 
 458   0.0000       1.180956        32.1354 
 459   0.0000       1.182992        32.1909 
 460   0.0000       1.189500        32.3679 
 461   0.0000       1.193926        32.4884 
 462   0.0000       1.200318        32.6623 
 463   0.0000       1.205774        32.8108 
 464   0.0000       1.207707        32.8634 
 465   0.0000       1.211589        32.9690 
 466   0.0000       1.212999        33.0074 
 467   0.0000       1.217639        33.1336 
 468   0.0000       1.223554        33.2946 
 469   0.0000       1.227700        33.4074 
 470   0.0000       1.234164        33.5833 
 471   0.0000       1.237681        33.6790 
 472   0.0000       1.238519        33.7018 
 473   0.0000       1.240748        33.7625 
 474   0.0000       1.242757        33.8171 
 475   0.0000       1.246964        33.9316 
 476   0.0000       1.247216        33.9385 
 477   0.0000       1.250223        34.0203 
 478   0.0000       1.251747        34.0618 
 479   0.0000       1.255683        34.1689 
 480   0.0000       1.259290        34.2670 
 481   0.0000       1.265764        34.4432 
 482   0.0000       1.269004        34.5313 
 483   0.0000       1.271119        34.5889 
 484   0.0000       1.274747        34.6876 
 485   0.0000       1.280148        34.8346 
 486   0.0000       1.281800        34.8795 
 487   0.0000       1.286556        35.0090 
 488   0.0000       1.288896        35.0727 
 489   0.0000       1.290517        35.1168 
 490   0.0000       1.291340        35.1391 
 491   0.0000       1.292260        35.1642 
 492   0.0000       1.302120        35.4325 
 493   0.0000       1.308171        35.5972 
 494   0.0000       1.313728        35.7484 
 495   0.0000       1.315801        35.8048 
 496   0.0000       1.321178        35.9511 
 497   0.0000       1.322481        35.9866 
 498   0.0000       1.324473        36.0407 
 499   0.0000       1.328532        36.1512 
 500   0.0000       1.335801        36.3490 
 501   0.0000       1.339284        36.4438 
 502   0.0000       1.343888        36.5691 
 503   0.0000       1.344876        36.5959 
 504   0.0000       1.346118        36.6297 
 505   0.0000       1.351684        36.7812 
 506   0.0000       1.353979        36.8436 
 507   0.0000       1.356842        36.9215 
 508   0.0000       1.358708        36.9723 
 509   0.0000       1.360735        37.0275 
 510   0.0000       1.365249        37.1503 
 511   0.0000       1.368117        37.2283 
 512   0.0000       1.370108        37.2825 
[...]
      pz      :     0.021941  p :     0.079519
      px      :     0.043227
      py      :     0.014351
 77 H s       :     0.890087  s :     0.890087
      pz      :     0.047546  p :     0.078802
      px      :     0.015010
      py      :     0.016246
 78 H s       :     0.890457  s :     0.890457
      pz      :     0.025664  p :     0.078741
      px      :     0.020580
      py      :     0.032497
 79 H s       :     0.908913  s :     0.908913
      pz      :     0.022192  p :     0.086783
      px      :     0.021790
      py      :     0.042801
 80 H s       :     0.872085  s :     0.872085
      pz      :     0.038760  p :     0.083957
      px      :     0.029845
      py      :     0.015352
 81 H s       :     0.887225  s :     0.887225
      pz      :     0.037736  p :     0.083787
      px      :     0.016121
      py      :     0.029930
 82 H s       :     0.914768  s :     0.914768
      pz      :     0.022134  p :     0.086908
      px      :     0.031309
      py      :     0.033464
 83 H s       :     0.872228  s :     0.872228
      pz      :     0.039278  p :     0.083966
      px      :     0.015243
      py      :     0.029445
 84 H s       :     0.886995  s :     0.886995
      pz      :     0.035818  p :     0.083825
      px      :     0.031752
      py      :     0.016255
 85 H s       :     0.893696  s :     0.893696
      pz      :     0.022509  p :     0.079731
      px      :     0.014086
      py      :     0.043136
 86 H s       :     0.890519  s :     0.890519
      pz      :     0.024730  p :     0.078886
      px      :     0.033011
      py      :     0.021145
 87 H s       :     0.890160  s :     0.890160
      pz      :     0.047955  p :     0.078704
      px      :     0.015617
      py      :     0.015133
 88 H s       :     0.914430  s :     0.914430
      pz      :     0.022068  p :     0.086907
      px      :     0.042472
      py      :     0.022366
 89 H s       :     0.872657  s :     0.872657
      pz      :     0.037897  p :     0.083929
      px      :     0.030505
      py      :     0.015528


                      *****************************
                      * MAYER POPULATION ANALYSIS *
                      *****************************

  NA   - Mulliken gross atomic population
  ZA   - Total nuclear charge
  QA   - Mulliken gross atomic charge
  VA   - Mayer's total valence
  BVA  - Mayer's bonded valence
  FA   - Mayer's free valence

  ATOM       NA         ZA         QA         VA         BVA        FA
  0 C      5.7898     6.0000     0.2102     3.8261     3.8261    -0.0000
  1 N      7.4403     7.0000    -0.4403     3.3773     3.3773    -0.0000
  2 C      6.0643     6.0000    -0.0643     3.9180     3.9180     0.0000
  3 N      7.3379     7.0000    -0.3379     3.4427     3.4427    -0.0000
  4 C      6.0665     6.0000    -0.0665     3.9811     3.9811    -0.0000
  5 N      7.5639     7.0000    -0.5639     3.0827     3.0827     0.0000
  6 C      6.0624     6.0000    -0.0624     3.9917     3.9917     0.0000
  7 N      7.3377     7.0000    -0.3377     3.4422     3.4422    -0.0000
  8 C      5.7915     6.0000     0.2085     3.8265     3.8265    -0.0000
  9 N      7.5635     7.0000    -0.5635     3.0843     3.0843     0.0000
 10 C      5.8863     6.0000     0.1137     3.8919     3.8919     0.0000
 11 N      7.4375     7.0000    -0.4375     3.3836     3.3836    -0.0000
 12 C      6.0703     6.0000    -0.0703     3.9166     3.9166     0.0000
 13 N      7.4406     7.0000    -0.4406     3.3746     3.3746    -0.0000
 14 C      5.7583     6.0000     0.2417     3.7914     3.7914    -0.0000
 15 N      7.4405     7.0000    -0.4405     3.3725     3.3725    -0.0000
 16 C      5.7644     6.0000     0.2356     3.7935     3.7935     0.0000
 17 C      6.0669     6.0000    -0.0669     3.9949     3.9949    -0.0000
 18 C      6.2127     6.0000    -0.2127     3.7478     3.7478    -0.0000
 19 C      5.7591     6.0000     0.2409     3.8715     3.8715    -0.0000
 20 C      5.7935     6.0000     0.2065     3.8250     3.8250    -0.0000
 21 C      6.0833     6.0000    -0.0833     3.9063     3.9063    -0.0000
 22 C      6.0869     6.0000    -0.0869     3.9842     3.9842     0.0000
 23 C      6.0501     6.0000    -0.0501     3.9899     3.9899     0.0000
 24 C      5.7934     6.0000     0.2066     3.8239     3.8239    -0.0000
 25 C      5.8861     6.0000     0.1139     3.8901     3.8901     0.0000
 26 C      6.0715     6.0000    -0.0715     3.9070     3.9070    -0.0000
 27 C      5.7745     6.0000     0.2255     3.8857     3.8857     0.0000
 28 C      6.0515     6.0000    -0.0515     3.9877     3.9877     0.0000
 29 C      6.1870     6.0000    -0.1870     3.7336     3.7336     0.0000
 30 C      5.7654     6.0000     0.2346     3.7926     3.7926     0.0000
 31 C      5.7913     6.0000     0.2087     3.8273     3.8273    -0.0000
 32 C      6.0658     6.0000    -0.0658     3.9168     3.9168     0.0000
 33 C      6.0827     6.0000    -0.0827     3.9846     3.9846    -0.0000
 34 C      6.0508     6.0000    -0.0508     3.9924     3.9924    -0.0000
 35 C      5.7969     6.0000     0.2031     3.8256     3.8256    -0.0000
 36 C      5.8854     6.0000     0.1146     3.8929     3.8929     0.0000
 37 C      6.0671     6.0000    -0.0671     3.9173     3.9173    -0.0000
 38 C      5.7631     6.0000     0.2369     3.7980     3.7980    -0.0000
 39 C      6.0611     6.0000    -0.0611     3.9917     3.9917     0.0000
 40 C      6.1911     6.0000    -0.1911     3.7416     3.7416    -0.0000
 41 C      5.7784     6.0000     0.2216     3.8811     3.8811    -0.0000
 42 C      5.7954     6.0000     0.2046     3.8279     3.8279    -0.0000
 43 C      6.0736     6.0000    -0.0736     3.9035     3.9035     0.0000
 44 C      6.0886     6.0000    -0.0886     3.9848     3.9848     0.0000
 45 C      6.0512     6.0000    -0.0512     3.9932     3.9932     0.0000
 46 C      5.7977     6.0000     0.2023     3.8249     3.8249    -0.0000
 47 C      5.8845     6.0000     0.1155     3.8935     3.8935     0.0000
 48 C      6.0746     6.0000    -0.0746     3.9036     3.9036     0.0000
 49 C      5.7750     6.0000     0.2250     3.8821     3.8821     0.0000
 50 C      6.0541     6.0000    -0.0541     3.9901     3.9901     0.0000
 51 C      6.1887     6.0000    -0.1887     3.7369     3.7369     0.0000
 52 H      0.9441     1.0000     0.0559     0.9848     0.9848    -0.0000
 53 H      1.0135     1.0000    -0.0135     0.9992     0.9992     0.0000
 54 H      0.9494     1.0000     0.0506     1.0088     1.0088    -0.0000
 55 H      0.9449     1.0000     0.0551     0.9858     0.9858     0.0000
 56 H      0.9386     1.0000     0.0614     0.9715     0.9715    -0.0000
 57 H      0.9416     1.0000     0.0584     0.9841     0.9841     0.0000
 58 H      0.9430     1.0000     0.0570     0.9855     0.9855     0.0000
 59 H      1.0134     1.0000    -0.0134     0.9990     0.9990    -0.0000
 60 H      0.9530     1.0000     0.0470     1.0079     1.0079    -0.0000
 61 H      0.8266     1.0000     0.1734     1.0427     1.0427     0.0000
 62 H      0.8277     1.0000     0.1723     1.0434     1.0434     0.0000
 63 H      0.9437     1.0000     0.0563     0.9855     0.9855     0.0000
 64 H      1.0201     1.0000    -0.0201     0.9958     0.9958     0.0000
 65 H      0.9531     1.0000     0.0469     1.0088     1.0088     0.0000
 66 H      0.9424     1.0000     0.0576     0.9849     0.9849    -0.0000
 67 H      0.9376     1.0000     0.0624     0.9719     0.9719    -0.0000
 68 H      0.9419     1.0000     0.0581     0.9867     0.9867     0.0000
 69 H      0.9411     1.0000     0.0589     0.9830     0.9830    -0.0000
 70 H      1.0238     1.0000    -0.0238     0.9947     0.9947    -0.0000
 71 H      0.9523     1.0000     0.0477     1.0068     1.0068    -0.0000
 72 H      0.9451     1.0000     0.0549     0.9851     0.9851     0.0000
 73 H      1.0149     1.0000    -0.0149     0.9985     0.9985    -0.0000
 74 H      0.9547     1.0000     0.0453     1.0098     1.0098    -0.0000
 75 H      0.9460     1.0000     0.0540     0.9856     0.9856    -0.0000
 76 H      0.9393     1.0000     0.0607     0.9715     0.9715     0.0000
 77 H      0.9428     1.0000     0.0572     0.9850     0.9850     0.0000
 78 H      0.9435     1.0000     0.0565     0.9846     0.9846     0.0000
 79 H      1.0140     1.0000    -0.0140     0.9995     0.9995    -0.0000
 80 H      0.9543     1.0000     0.0457     1.0070     1.0070     0.0000
 81 H      0.9465     1.0000     0.0535     0.9854     0.9854     0.0000
 82 H      1.0231     1.0000    -0.0231     0.9944     0.9944    -0.0000
 83 H      0.9564     1.0000     0.0436     1.0094     1.0094     0.0000
 84 H      0.9466     1.0000     0.0534     0.9856     0.9856     0.0000
 85 H      0.9409     1.0000     0.0591     0.9716     0.9716    -0.0000
 86 H      0.9434     1.0000     0.0566     0.9841     0.9841    -0.0000
 87 H      0.9433     1.0000     0.0567     0.9855     0.9855    -0.0000
 88 H      1.0223     1.0000    -0.0223     0.9942     0.9942     0.0000
 89 H      0.9560     1.0000     0.0440     1.0070     1.0070     0.0000

  Mayer bond orders larger than 0.100000
B(  0-C ,  1-N ) :   1.1221 B(  0-C , 17-C ) :   1.6304 B(  0-C , 52-H ) :   0.9694 
B(  1-N ,  8-C ) :   1.1173 B(  1-N , 10-C ) :   0.9601 B(  2-C , 12-C ) :   1.5372 
B(  2-C , 16-C ) :   1.3226 B(  2-C , 53-H ) :   0.9778 B(  3-N , 14-C ) :   1.2014 
B(  3-N , 16-C ) :   1.1962 B(  3-N , 61-H ) :   0.8979 B(  4-C ,  6-C ) :   1.2672 
B(  4-C , 17-C ) :   1.2705 B(  4-C , 18-C ) :   1.2641 B(  5-N , 19-C ) :   1.4161 
B(  5-N , 27-C ) :   1.4073 B(  6-C ,  8-C ) :   1.6332 B(  6-C , 54-H ) :   0.9705 
B(  7-N , 30-C ) :   1.1935 B(  7-N , 38-C ) :   1.2021 B(  7-N , 62-H ) :   0.8986 
B(  8-C , 55-H ) :   0.9696 B(  9-N , 41-C ) :   1.4117 B(  9-N , 49-C ) :   1.4120 
B( 10-C , 56-H ) :   0.9763 B( 10-C , 57-H ) :   0.9817 B( 10-C , 58-H ) :   0.9835 
B( 11-N , 20-C ) :   1.1231 B( 11-N , 24-C ) :   1.1239 B( 11-N , 25-C ) :   0.9584 
B( 12-C , 14-C ) :   1.3230 B( 12-C , 59-H ) :   0.9768 B( 13-N , 31-C ) :   1.1204 
B( 13-N , 35-C ) :   1.1145 B( 13-N , 36-C ) :   0.9613 B( 14-C , 18-C ) :   1.1951 
B( 15-N , 42-C ) :   1.1176 B( 15-N , 46-C ) :   1.1133 B( 15-N , 47-C ) :   0.9621 
B( 16-C , 51-C ) :   1.2009 B( 17-C , 60-H ) :   0.9713 B( 18-C , 19-C ) :   1.2166 
B( 19-C , 21-C ) :   1.2072 B( 20-C , 28-C ) :   1.6233 B( 20-C , 63-H ) :   0.9703 
B( 21-C , 26-C ) :   1.6451 B( 21-C , 64-H ) :   0.9716 B( 22-C , 23-C ) :   1.2819 
B( 22-C , 28-C ) :   1.2750 B( 22-C , 29-C ) :   1.2315 B( 23-C , 24-C ) :   1.6193 
B( 23-C , 65-H ) :   0.9710 B( 24-C , 66-H ) :   0.9691 B( 25-C , 67-H ) :   0.9762 
B( 25-C , 68-H ) :   0.9829 B( 25-C , 69-H ) :   0.9821 B( 26-C , 27-C ) :   1.2079 
B( 26-C , 70-H ) :   0.9734 B( 27-C , 29-C ) :   1.2321 B( 28-C , 71-H ) :   0.9714 
B( 29-C , 30-C ) :   1.2065 B( 30-C , 32-C ) :   1.3172 B( 31-C , 39-C ) :   1.6343 
B( 31-C , 72-H ) :   0.9697 B( 32-C , 37-C ) :   1.5408 B( 32-C , 73-H ) :   0.9778 
B( 33-C , 34-C ) :   1.2715 B( 33-C , 39-C ) :   1.2654 B( 33-C , 40-C ) :   1.2576 
B( 34-C , 35-C ) :   1.6317 B( 34-C , 74-H ) :   0.9705 B( 35-C , 75-H ) :   0.9697 
B( 36-C , 76-H ) :   0.9762 B( 36-C , 77-H ) :   0.9821 B( 36-C , 78-H ) :   0.9831 
B( 37-C , 38-C ) :   1.3184 B( 37-C , 79-H ) :   0.9778 B( 38-C , 40-C ) :   1.2040 
B( 39-C , 80-H ) :   0.9715 B( 40-C , 41-C ) :   1.2156 B( 41-C , 43-C ) :   1.2151 
B( 42-C , 50-C ) :   1.6330 B( 42-C , 81-H ) :   0.9696 B( 43-C , 48-C ) :   1.6366 
B( 43-C , 82-H ) :   0.9739 B( 44-C , 45-C ) :   1.2728 B( 44-C , 50-C ) :   1.2665 
B( 44-C , 51-C ) :   1.2523 B( 45-C , 46-C ) :   1.6312 B( 45-C , 83-H ) :   0.9711 
B( 46-C , 84-H ) :   0.9702 B( 47-C , 85-H ) :   0.9761 B( 47-C , 86-H ) :   0.9827 
B( 47-C , 87-H ) :   0.9826 B( 48-C , 49-C ) :   1.2143 B( 48-C , 88-H ) :   0.9737 
B( 49-C , 51-C ) :   1.2208 B( 50-C , 89-H ) :   0.9714 

-------
TIMINGS
-------

Total SCF time: 0 days 0 hours 21 min 0 sec 

Total time                  ....    1260.097 sec
Sum of individual times     ....    1256.504 sec  ( 99.7%)

Fock matrix formation       ....    1237.060 sec  ( 98.2%)
Diagonalization             ....       6.552 sec  (  0.5%)
Density matrix formation    ....       0.348 sec  (  0.0%)
Population analysis         ....       0.419 sec  (  0.0%)
Initial guess               ....       1.948 sec  (  0.2%)
Orbital Transformation      ....       0.000 sec  (  0.0%)
Orbital Orthonormalization  ....       0.000 sec  (  0.0%)
DIIS solution               ....       2.885 sec  (  0.2%)
SOSCF solution              ....       6.285 sec  (  0.5%)

Maximum memory used throughout the entire SCF-calculation: 302.5 MB


           ************************************************************
           *        Program running with 16 parallel MPI-processes    *
           *              working on a common directory               *
           ************************************************************

------------------------------------------------------------------------------
                                ORCA  MP2 
------------------------------------------------------------------------------

Freezing NCore=104 chemical core electrons

----------
MP2 ENERGY (disk based algorithm)
----------

Dimension of the basis                    ...  918
Memory devoted to MP2                     ... 2000 MB   
Data format for buffers                   ... DOUBLE
Compression type for matrix containers    ... UNCOMPRESSED

-------------------------------
PARTIAL EXCHANGE TRANSFORMATION
-------------------------------

Transformation type                        ... one-operator
Generation of integrals (i,mue|j,nue)      ... ON
Generation of integrals (mue,kappa|nue,tau)... OFF
Generation of integrals (i,mue|a,nue)      ... OFF
Dimension of the basis                     ...  918
Number of internal MOs                     ...  127 (  52- 178)
Pair cutoff                                ... 2.500e-12 Eh
Number of AO pairs in the trafo            ... 421821
Total Number of distinct AO pairs          ... 421821
Memory devoted for trafo                   ... 2000.0 MB 
Max. Number of MO pairs treated together   ...  311      
Number Format for Storage                  ... Double (8 Byte)
Integral package used                      ... LIBINT

Starting integral evaluation:
    ... done with AO integral generation
Closing buffer AOK     (38.46 GB; CompressionRatio= 1.32)
Collecting buffer AOK 
Number of MO pairs included in the trafo   ... 8128
------------------------
SORTING OF (i,mue|j,nue)
------------------------

IBATCH = 1 of  2
IBATCH = 2 of  2
Closing buffer KAO     (51.03 GB; CompressionRatio= 1.00)
Collecting buffer KAO 
N(AO-Batches) Done                         ...  84882288 
N(AO-Batches) Skipped                      ...  82789593 
N(IJ)-pairs Skipped                        ...         0 
TOTAL TIME for half transformation         ...  2507.459 sec
AO-integral generation                     ...   174.311 sec
Half transformation                        ...   308.534 sec
K-integral sorting                         ...  1867.319 sec
Process 13:   Internal MO 156

Finished integral transformation - now doing MP2 part

OPERATOR COMBINATION   0   0: ij=( 52..178, 52..178)
Process 10:   Internal MO 132
Process  1:   Internal MO  60
Process  4:   Internal MO  84
Process  7:   Internal MO 108
Process  2:   Internal MO  69
Process  1:   Internal MO  63
Process  0:   Internal MO  54
Process  8:   Internal MO 117
Process  3:   Internal MO  78
Process  2:   Internal MO  72
Process  1:   Internal MO  66
Process  0:   Internal MO  57
Process  5:   Internal MO  93
Process 14:   Internal MO 165
Process  4:   Internal MO  87
Process  2:   Internal MO  75
Process  9:   Internal MO 126
Process  3:   Internal MO  81
Process  7:   Internal MO 111
Process  6:   Internal MO 102
Process 12:   Internal MO 150
Process 11:   Internal MO 141
Process  4:   Internal MO  90
Process 15:   Internal MO 174
Process 10:   Internal MO 135
Process  5:   Internal MO  96
Process  8:   Internal MO 120
Process  7:   Internal MO 114
Process  6:   Internal MO 105
Process  9:   Internal MO 129
Process 13:   Internal MO 159
Process  5:   Internal MO  99
Process 14:   Internal MO 168
Process 12:   Internal MO 153
Process 10:   Internal MO 138
Process 11:   Internal MO 144
Process  8:   Internal MO 123
Process 15:   Internal MO 177
Process 13:   Internal MO 162
Process 11:   Internal MO 147
Process 14:   Internal MO 171
-----------------------------------------------
 MP2 CORRELATION ENERGY   :     -7.290802345 Eh
-----------------------------------------------


-------
TIMINGS
-------
Total time                : 2795.727 sec
Integral trafo            : 2509.354 sec ( 89.8%)
K(i,j)                    :   23.321 sec (  0.8%)
T(i,j)                    :    0.078 sec (  0.0%)

---------------------------------------
MP2 TOTAL ENERGY:    -2130.912055048 Eh
---------------------------------------

Maximum memory used throughout the entire MP2-calculation: 2275.2 MB

-------------------------   --------------------
FINAL SINGLE POINT ENERGY     -2130.912055048494
-------------------------   --------------------


                            ***************************************
                            *     ORCA property calculations      *
                            ***************************************


  WARNING: The energy has been calculated at the MP2 level but the densities
           used in the property calculations are still SCF densities
           MP2 response densities have not been calculated 
           use %mp2 Density relaxed end
           or  %mp2 Density unrelaxed end

                                    ---------------------
                                    Active property flags
                                    ---------------------
   (+) Dipole Moment


------------------------------------------------------------------------------
                       ORCA ELECTRIC PROPERTIES CALCULATION
------------------------------------------------------------------------------

Dipole Moment Calculation                       ... on
Quadrupole Moment Calculation                   ... off
Polarizability Calculation                      ... off
GBWName                                         ... /scratch/allen/tmpyp4_amber_gaff2/conf1/conf1/Conf62.orca.gbw
Electron density                                ... /scratch/allen/tmpyp4_amber_gaff2/conf1/conf1/Conf62.orca.scfp
The origin for moment calculation is the CENTER OF MASS  = ( 0.000565, -0.003765  0.004014)

-------------
DIPOLE MOMENT
-------------
                                X             Y             Z
Electronic contribution:     -0.41827      -0.27228      -0.14200
Nuclear contribution   :     -0.04715       0.15351       0.17669
                        -----------------------------------------
Total Dipole Moment    :     -0.46542      -0.11877       0.03469
                        -----------------------------------------
Magnitude (a.u.)       :      0.48158
Magnitude (Debye)      :      1.22409



--------------------
Rotational spectrum 
--------------------
 
Rotational constants in cm-1:     0.001499     0.001474     0.000762 
Rotational constants in MHz :    44.940760    44.182973    22.846229 

 Dipole components along the rotational axes: 
x,y,z [a.u.] :    -0.399514     0.266908     0.032726 
x,y,z [Debye]:    -1.015484     0.678426     0.083184 

 

Timings for individual modules:

Sum of individual times         ...     4077.221 sec (=  67.954 min)
GTO integral calculation        ...        2.664 sec (=   0.044 min)   0.1 %
SCF iterations                  ...     1261.026 sec (=  21.017 min)  30.9 %
MP2 module                      ...     2813.530 sec (=  46.892 min)  69.0 %
                             ****ORCA TERMINATED NORMALLY****
TOTAL RUN TIME: 0 days 1 hours 8 minutes 0 seconds 514 msec
# of primitive gaussian functions

