
                                 *****************
                                 * O   R   C   A *
                                 *****************

                                            #,                                       
                                            ###                                      
                                            ####                                     
                                            #####                                    
                                            ######                                   
                                           ########,                                 
                                     ,,################,,,,,                         
                               ,,#################################,,                 
                          ,,##########################################,,             
                       ,#########################################, ''#####,          
                    ,#############################################,,   '####,        
                  ,##################################################,,,,####,       
                ,###########''''           ''''###############################       
              ,#####''   ,,,,##########,,,,          '''####'''          '####       
            ,##' ,,,,###########################,,,                        '##       
           ' ,,###''''                  '''############,,,                           
         ,,##''                                '''############,,,,        ,,,,,,###''
      ,#''                                            '''#######################'''  
     '                                                          ''''####''''         
             ,#######,   #######,   ,#######,      ##                                
            ,#'     '#,  ##    ##  ,#'     '#,    #''#        ######   ,####,        
            ##       ##  ##   ,#'  ##            #'  '#       #        #'  '#        
            ##       ##  #######   ##           ,######,      #####,   #    #        
            '#,     ,#'  ##    ##  '#,     ,#' ,#      #,         ##   #,  ,#        
             '#######'   ##     ##  '#######'  #'      '#     #####' # '####'        



                  #######################################################
                  #                        -***-                        #
                  #          Department of theory and spectroscopy      #
                  #    Directorship and core code : Frank Neese         #
                  #        Max Planck Institute fuer Kohlenforschung    #
                  #                Kaiser Wilhelm Platz 1               #
                  #                 D-45470 Muelheim/Ruhr               #
                  #                      Germany                        #
                  #                                                     #
                  #                  All rights reserved                #
                  #                        -***-                        #
                  #######################################################


                         Program Version 5.0.4 -  RELEASE  -


 With contributions from (in alphabetic order):
   Daniel Aravena         : Magnetic Suceptibility
   Michael Atanasov       : Ab Initio Ligand Field Theory (pilot matlab implementation)
   Alexander A. Auer      : GIAO ZORA, VPT2 properties, NMR spectrum
   Ute Becker             : Parallelization
   Giovanni Bistoni       : ED, misc. LED, open-shell LED, HFLD
   Martin Brehm           : Molecular dynamics
   Dmytro Bykov           : SCF Hessian
   Vijay G. Chilkuri      : MRCI spin determinant printing, contributions to CSF-ICE
   Dipayan Datta          : RHF DLPNO-CCSD density
   Achintya Kumar Dutta   : EOM-CC, STEOM-CC
   Dmitry Ganyushin       : Spin-Orbit,Spin-Spin,Magnetic field MRCI
   Miquel Garcia          : C-PCM and meta-GGA Hessian, CC/C-PCM, Gaussian charge scheme
   Yang Guo               : DLPNO-NEVPT2, F12-NEVPT2, CIM, IAO-localization
   Andreas Hansen         : Spin unrestricted coupled pair/coupled cluster methods
   Benjamin Helmich-Paris : MC-RPA, TRAH-SCF, COSX integrals
   Lee Huntington         : MR-EOM, pCC
   Robert Izsak           : Overlap fitted RIJCOSX, COSX-SCS-MP3, EOM
   Marcus Kettner         : VPT2
   Christian Kollmar      : KDIIS, OOCD, Brueckner-CCSD(T), CCSD density, CASPT2, CASPT2-K
   Simone Kossmann        : Meta GGA functionals, TD-DFT gradient, OOMP2, MP2 Hessian
   Martin Krupicka        : Initial AUTO-CI
   Lucas Lang             : DCDCAS
   Marvin Lechner         : AUTO-CI (C++ implementation), FIC-MRCC
   Dagmar Lenk            : GEPOL surface, SMD
   Dimitrios Liakos       : Extrapolation schemes; Compound Job, initial MDCI parallelization
   Dimitrios Manganas     : Further ROCIS development; embedding schemes
   Dimitrios Pantazis     : SARC Basis sets
   Anastasios Papadopoulos: AUTO-CI, single reference methods and gradients
   Taras Petrenko         : DFT Hessian,TD-DFT gradient, ASA, ECA, R-Raman, ABS, FL, XAS/XES, NRVS
   Peter Pinski           : DLPNO-MP2, DLPNO-MP2 Gradient
   Christoph Reimann      : Effective Core Potentials
   Marius Retegan         : Local ZFS, SOC
   Christoph Riplinger    : Optimizer, TS searches, QM/MM, DLPNO-CCSD(T), (RO)-DLPNO pert. Triples
   Tobias Risthaus        : Range-separated hybrids, TD-DFT gradient, RPA, STAB
   Michael Roemelt        : Original ROCIS implementation
   Masaaki Saitow         : Open-shell DLPNO-CCSD energy and density
   Barbara Sandhoefer     : DKH picture change effects
   Avijit Sen             : IP-ROCIS
   Kantharuban Sivalingam : CASSCF convergence, NEVPT2, FIC-MRCI
   Bernardo de Souza      : ESD, SOC TD-DFT
   Georgi Stoychev        : AutoAux, RI-MP2 NMR, DLPNO-MP2 response
   Willem Van den Heuvel  : Paramagnetic NMR
   Boris Wezisla          : Elementary symmetry handling
   Frank Wennmohs         : Technical directorship


 We gratefully acknowledge several colleagues who have allowed us to
 interface, adapt or use parts of their codes:
   Stefan Grimme, W. Hujo, H. Kruse, P. Pracht,  : VdW corrections, initial TS optimization,
                  C. Bannwarth, S. Ehlert          DFT functionals, gCP, sTDA/sTD-DF
   Ed Valeev, F. Pavosevic, A. Kumar             : LibInt (2-el integral package), F12 methods
   Garnet Chan, S. Sharma, J. Yang, R. Olivares  : DMRG
   Ulf Ekstrom                                   : XCFun DFT Library
   Mihaly Kallay                                 : mrcc  (arbitrary order and MRCC methods)
   Jiri Pittner, Ondrej Demel                    : Mk-CCSD
   Frank Weinhold                                : gennbo (NPA and NBO analysis)
   Christopher J. Cramer and Donald G. Truhlar   : smd solvation model
   Lars Goerigk                                  : TD-DFT with DH, B97 family of functionals
   V. Asgeirsson, H. Jonsson                     : NEB implementation
   FAccTs GmbH                                   : IRC, NEB, NEB-TS, DLPNO-Multilevel, CI-OPT
                                                   MM, QMMM, 2- and 3-layer-ONIOM, Crystal-QMMM,
                                                   LR-CPCM, SF, NACMEs, symmetry and pop. for TD-DFT,
                                                   nearIR, NL-DFT gradient (VV10), updates on ESD,
                                                   ML-optimized integration grids
   S Lehtola, MJT Oliveira, MAL Marques          : LibXC Library
   Liviu Ungur et al                             : ANISO software


 Your calculation uses the libint2 library for the computation of 2-el integrals
 For citations please refer to: http://libint.valeyev.net

 Your ORCA version has been built with support for libXC version: 5.1.0
 For citations please refer to: https://tddft.org/programs/libxc/

 This ORCA versions uses:
   CBLAS   interface :  Fast vector & matrix operations
   LAPACKE interface :  Fast linear algebra routines
   SCALAPACK package :  Parallel linear algebra routines
   Shared memory     :  Shared parallel matrices
   BLAS/LAPACK       :  OpenBLAS 0.3.15  USE64BITINT DYNAMIC_ARCH NO_AFFINITY Sandybridge SINGLE_THREADED
        Core in use  :  Sandybridge
   Copyright (c) 2011-2014, The OpenBLAS Project


================================================================================

----- Orbital basis set information -----
Your calculation utilizes the basis: cc-pVDZ 
       H, B-Ne : Obtained from the ccRepo (grant-hill.group.shef.ac.uk/ccrepo) Feb. 2017
                 T. H. Dunning, Jr., J. Chem. Phys. 90, 1007 (1989)
            He : Obtained from the ccRepo (grant-hill.group.shef.ac.uk/ccrepo) Feb. 2017
                 D. E. Woon, T. H. Dunning, Jr., J. Chem. Phys. 100, 2975 (1994)
  Li-Be, Na-Mg : Obtained from the ccRepo (grant-hill.group.shef.ac.uk/ccrepo) Feb. 2017
                 B. P. Prascher, D. E. Woon, K. A. Peterson, T. H. Dunning, Jr., A. K. Wilson, Theor. Chem. Acc. 128, 69 (2011)
         Al-Ar : Obtained from the ccRepo (grant-hill.group.shef.ac.uk/ccrepo) Feb. 2017
                 D. E. Woon, T. H. Dunning, Jr., J. Chem. Phys. 98, 1358 (1993)
            Ca : Obtained from the Peterson Research Group Website (tyr0.chem.wsu.edu/~kipeters) Feb. 2017
                 J. Koput, K. A. Peterson, J. Phys. Chem. 106, 9595 (2002)
         Sc-Zn : Obtained from the ccRepo (grant-hill.group.shef.ac.uk/ccrepo) Feb. 2017
                 N. B. Balabanov, K. A. Peterson, J. Chem. Phys. 123, 064107 (2005)
                 N. B. Balabanov, K. A. Peterson, J. Chem. Phys. 125, 074110 (2006)
         Ga-Kr : Obtained from the ccRepo (grant-hill.group.shef.ac.uk/ccrepo) Feb. 2017
                 A. K. Wilson, D. E. Woon, K. A. Peterson, T. H. Dunning, Jr., J. Chem. Phys. 110, 7667 (1999)

================================================================================
                                        WARNINGS
                       Please study these warnings very carefully!
================================================================================


WARNING: No MP2 level density has been requested!
         To caclulate MP2 level properties use
         %mp2 Density relaxed end
         or
         %mp2 Density unrelaxed end

WARNING: Post HF methods need fully converged wavefunctions
  ===> : Setting SCFConvForced true
         You can overwrite this default with %scf ConvForced false 


INFO   : the flag for use of the SHARK integral package has been found!

================================================================================
                                       INPUT FILE
================================================================================
NAME = /scratch/allen/tmpyp4_amber_gaff2/2.Mdgx/conf11/conf11/Conf67.orca
|  1> ! PAL2
|  2> ! mp2 cc-pvdz TightSCF  NoKeepInts
|  3> 
|  4> %scf
|  5>   MaxCore 2000
|  6> end
|  7> %mp2
|  8>   MaxCore 2000
|  9> end
| 10> * xyz 0 1
| 11>    C       -3.59200         6.13500        -0.96700
| 12>    C        1.47400         4.04100         0.05700
| 13>    C       -2.80200         4.09300         0.04900
| 14>    C       -3.61200         4.39000         1.15600
| 15>    C       -4.38100         5.53700         1.16400
| 16>    C       -5.22600         7.59300         0.13900
| 17>    C        0.13200         4.30700         0.06100
| 18>    C       -0.56900         3.05600         0.04700
| 19>    C        1.64900         2.61800         0.02300
| 20>    C       -2.81000         4.99700        -1.02400
| 21>    N       -4.36200         6.39200         0.11500
| 22>    N        0.38800         2.06700         0.02500
| 23>    N       -2.01000         0.39500        -0.07500
| 24>    N       -0.38800        -2.07400        -0.02700
| 25>    N        2.01000        -0.40100         0.06500
| 26>    C       -1.96000         2.86100         0.02400
| 27>    C       -2.62300         1.61500        -0.01800
| 28>    C       -5.57300        -4.32900         1.06600
| 29>    C       -4.07300         1.47100         0.05600
| 30>    C       -4.10600        -2.75600        -0.02600
| 31>    C       -4.99500        -2.75700        -1.11100
| 32>    C       -6.13200        -3.54200        -1.07600
| 33>    C       -7.65100        -5.11300         0.04000
| 34>    C       -4.32400         0.14100         0.03700
| 35>    C       -3.02500        -0.52000        -0.04800
| 36>    C       -4.42200        -3.56600         1.07500
| 37>    N       -6.40700        -4.31300         0.00100
| 38>    C       -2.86700        -1.92200        -0.04000
| 39>    C       -1.65000        -2.62400        -0.02700
| 40>    C        3.56800        -6.14200        -1.04000
| 41>    C       -1.47600        -4.04900        -0.03400
| 42>    C        2.80300        -4.09900        -0.00800
| 43>    C        3.65700        -4.38400         1.06900
| 44>    C        4.42700        -5.53000         1.05900
| 45>    C        5.24500        -7.58800         0.01400
| 46>    C       -0.13400        -4.31500        -0.02200
| 47>    C        0.56800        -3.06400        -0.02700
| 48>    C        2.77500        -5.01200        -1.07400
| 49>    N        4.37600        -6.39100         0.01700
| 50>    C        1.95900        -2.86900        -0.00900
| 51>    C        2.62100        -1.62200         0.00900
| 52>    C        5.54300         4.33900        -1.13000
| 53>    C        4.07000        -1.47900        -0.09400
| 54>    C        4.10400         2.75100        -0.02100
| 55>    C        5.02700         2.72900         1.03600
| 56>    C        6.16600         3.50900         0.97800
| 57>    C        7.61900         5.15300        -0.11500
| 58>    C        4.32100        -0.14800        -0.09200
| 59>    C        3.02500         0.51400         0.01500
| 60>    C        4.38700         3.58200        -1.11500
| 61>    C        2.86600         1.91600         0.01300
| 62>    N        6.41300         4.29600        -0.09500
| 63>    H       -3.62100         6.86500        -1.76600
| 64>    H        2.27400         4.76600         0.08100
| 65>    H       -3.65600         3.72700         2.01100
| 66>    H       -5.02800         5.80300         1.99000
| 67>    H       -6.21800         7.32400        -0.23200
| 68>    H       -5.29400         7.95600         1.16400
| 69>    H       -4.78200         8.35700        -0.49900
| 70>    H       -0.33200         5.28200         0.06900
| 71>    H       -2.19500         4.83100        -1.90100
| 72>    H        0.18200         1.07200         0.00500
| 73>    H       -0.18300        -1.08000        -0.02100
| 74>    H       -5.86400        -4.96200         1.89500
| 75>    H       -4.79400         2.27200         0.13900
| 76>    H       -4.80000        -2.16000        -1.99400
| 77>    H       -6.84100        -3.58200        -1.89300
| 78>    H       -8.42800        -4.53600         0.54600
| 79>    H       -7.95600        -5.33700        -0.98100
| 80>    H       -7.45600        -6.03700         0.58400
| 81>    H       -5.28700        -0.34400         0.10000
| 82>    H       -3.78000        -3.60100         1.94700
| 83>    H        3.58700        -6.86800        -1.84300
| 84>    H       -2.27600        -4.77400        -0.05000
| 85>    H        3.71400        -3.72400         1.92600
| 86>    H        5.09200        -5.79500         1.87100
| 87>    H        6.20500        -7.32900        -0.43900
| 88>    H        5.39300        -7.91700         1.04200
| 89>    H        4.75900        -8.37300        -0.56400
| 90>    H        0.32900        -5.29000        -0.00800
| 91>    H        2.14600        -4.84200        -1.94000
| 92>    H        5.80800         4.98600        -1.95600
| 93>    H        4.78800        -2.28100        -0.18500
| 94>    H        4.86000         2.11400         1.91200
| 95>    H        6.90100         3.53100         1.77200
| 96>    H        7.38300         6.10900         0.35600
| 97>    H        8.41400         4.65200         0.43500
| 98>    H        7.92100         5.31000        -1.15000
| 99>    H        5.28300         0.33600        -0.17900
|100>    H        3.72000         3.63200        -1.96700
|101> *
|102> 
|103>                          ****END OF INPUT****
================================================================================

                       ****************************
                       * Single Point Calculation *
                       ****************************

---------------------------------
CARTESIAN COORDINATES (ANGSTROEM)
---------------------------------
  C     -3.592000    6.135000   -0.967000
  C      1.474000    4.041000    0.057000
  C     -2.802000    4.093000    0.049000
  C     -3.612000    4.390000    1.156000
  C     -4.381000    5.537000    1.164000
  C     -5.226000    7.593000    0.139000
  C      0.132000    4.307000    0.061000
  C     -0.569000    3.056000    0.047000
  C      1.649000    2.618000    0.023000
  C     -2.810000    4.997000   -1.024000
  N     -4.362000    6.392000    0.115000
  N      0.388000    2.067000    0.025000
  N     -2.010000    0.395000   -0.075000
  N     -0.388000   -2.074000   -0.027000
  N      2.010000   -0.401000    0.065000
  C     -1.960000    2.861000    0.024000
  C     -2.623000    1.615000   -0.018000
  C     -5.573000   -4.329000    1.066000
  C     -4.073000    1.471000    0.056000
  C     -4.106000   -2.756000   -0.026000
  C     -4.995000   -2.757000   -1.111000
  C     -6.132000   -3.542000   -1.076000
  C     -7.651000   -5.113000    0.040000
  C     -4.324000    0.141000    0.037000
  C     -3.025000   -0.520000   -0.048000
  C     -4.422000   -3.566000    1.075000
  N     -6.407000   -4.313000    0.001000
  C     -2.867000   -1.922000   -0.040000
  C     -1.650000   -2.624000   -0.027000
  C      3.568000   -6.142000   -1.040000
  C     -1.476000   -4.049000   -0.034000
  C      2.803000   -4.099000   -0.008000
  C      3.657000   -4.384000    1.069000
  C      4.427000   -5.530000    1.059000
  C      5.245000   -7.588000    0.014000
  C     -0.134000   -4.315000   -0.022000
  C      0.568000   -3.064000   -0.027000
  C      2.775000   -5.012000   -1.074000
  N      4.376000   -6.391000    0.017000
  C      1.959000   -2.869000   -0.009000
  C      2.621000   -1.622000    0.009000
  C      5.543000    4.339000   -1.130000
  C      4.070000   -1.479000   -0.094000
  C      4.104000    2.751000   -0.021000
  C      5.027000    2.729000    1.036000
  C      6.166000    3.509000    0.978000
  C      7.619000    5.153000   -0.115000
  C      4.321000   -0.148000   -0.092000
  C      3.025000    0.514000    0.015000
  C      4.387000    3.582000   -1.115000
  C      2.866000    1.916000    0.013000
  N      6.413000    4.296000   -0.095000
  H     -3.621000    6.865000   -1.766000
  H      2.274000    4.766000    0.081000
  H     -3.656000    3.727000    2.011000
  H     -5.028000    5.803000    1.990000
  H     -6.218000    7.324000   -0.232000
  H     -5.294000    7.956000    1.164000
  H     -4.782000    8.357000   -0.499000
  H     -0.332000    5.282000    0.069000
  H     -2.195000    4.831000   -1.901000
  H      0.182000    1.072000    0.005000
  H     -0.183000   -1.080000   -0.021000
  H     -5.864000   -4.962000    1.895000
  H     -4.794000    2.272000    0.139000
  H     -4.800000   -2.160000   -1.994000
  H     -6.841000   -3.582000   -1.893000
  H     -8.428000   -4.536000    0.546000
  H     -7.956000   -5.337000   -0.981000
  H     -7.456000   -6.037000    0.584000
  H     -5.287000   -0.344000    0.100000
  H     -3.780000   -3.601000    1.947000
  H      3.587000   -6.868000   -1.843000
  H     -2.276000   -4.774000   -0.050000
  H      3.714000   -3.724000    1.926000
  H      5.092000   -5.795000    1.871000
  H      6.205000   -7.329000   -0.439000
  H      5.393000   -7.917000    1.042000
  H      4.759000   -8.373000   -0.564000
  H      0.329000   -5.290000   -0.008000
  H      2.146000   -4.842000   -1.940000
  H      5.808000    4.986000   -1.956000
  H      4.788000   -2.281000   -0.185000
  H      4.860000    2.114000    1.912000
  H      6.901000    3.531000    1.772000
  H      7.383000    6.109000    0.356000
  H      8.414000    4.652000    0.435000
  H      7.921000    5.310000   -1.150000
  H      5.283000    0.336000   -0.179000
  H      3.720000    3.632000   -1.967000

----------------------------
CARTESIAN COORDINATES (A.U.)
----------------------------
  NO LB      ZA    FRAG     MASS         X           Y           Z
   0 C     6.0000    0    12.011   -6.787896   11.593470   -1.827365
   1 C     6.0000    0    12.011    2.785456    7.636383    0.107714
   2 C     6.0000    0    12.011   -5.295013    7.734649    0.092597
   3 C     6.0000    0    12.011   -6.825691    8.295898    2.184523
   4 C     6.0000    0    12.011   -8.278890   10.463414    2.199641
   5 C     6.0000    0    12.011   -9.875709   14.348691    0.262672
   6 C     6.0000    0    12.011    0.249444    8.139050    0.115273
   7 C     6.0000    0    12.011   -1.075254    5.775003    0.088817
   8 C     6.0000    0    12.011    3.116158    4.947303    0.043464
   9 C     6.0000    0    12.011   -5.310130    9.442961   -1.935080
  10 N     7.0000    0    14.007   -8.242985   12.079129    0.217319
  11 N     7.0000    0    14.007    0.733214    3.906064    0.047243
  12 N     7.0000    0    14.007   -3.798350    0.746442   -0.141729
  13 N     7.0000    0    14.007   -0.733214   -3.919292   -0.051023
  14 N     7.0000    0    14.007    3.798350   -0.757780    0.122832
  15 C     6.0000    0    12.011   -3.703863    5.406506    0.045353
  16 C     6.0000    0    12.011   -4.956752    3.051908   -0.034015
  17 C     6.0000    0    12.011  -10.531444   -8.180624    2.014448
  18 C     6.0000    0    12.011   -7.696855    2.779787    0.105825
  19 C     6.0000    0    12.011   -7.759216   -5.208085   -0.049133
  20 C     6.0000    0    12.011   -9.439182   -5.209975   -2.099486
  21 C     6.0000    0    12.011  -11.587801   -6.693410   -2.033345
  22 C     6.0000    0    12.011  -14.458295   -9.662170    0.075589
  23 C     6.0000    0    12.011   -8.171176    0.266451    0.069920
  24 C     6.0000    0    12.011   -5.716422   -0.982658   -0.090707
  25 C     6.0000    0    12.011   -8.356369   -6.738763    2.031456
  26 N     7.0000    0    14.007  -12.107475   -8.150389    0.001890
  27 C     6.0000    0    12.011   -5.417845   -3.632054   -0.075589
  28 C     6.0000    0    12.011   -3.118048   -4.958641   -0.051023
  29 C     6.0000    0    12.011    6.742543  -11.606698   -1.965315
  30 C     6.0000    0    12.011   -2.789236   -7.651501   -0.064251
  31 C     6.0000    0    12.011    5.296902   -7.745987   -0.015118
  32 C     6.0000    0    12.011    6.910728   -8.284559    2.020117
  33 C     6.0000    0    12.011    8.365818  -10.450186    2.001220
  34 C     6.0000    0    12.011    9.911614  -14.339242    0.026456
  35 C     6.0000    0    12.011   -0.253223   -8.154168   -0.041574
  36 C     6.0000    0    12.011    1.073364   -5.790121   -0.051023
  37 C     6.0000    0    12.011    5.243990   -9.471307   -2.029566
  38 N     7.0000    0    14.007    8.269442  -12.077240    0.032125
  39 C     6.0000    0    12.011    3.701973   -5.421624   -0.017008
  40 C     6.0000    0    12.011    4.952972   -3.065136    0.017008
  41 C     6.0000    0    12.011   10.474752    8.199522   -2.135391
  42 C     6.0000    0    12.011    7.691185   -2.794905   -0.177634
  43 C     6.0000    0    12.011    7.755436    5.198637   -0.039684
  44 C     6.0000    0    12.011    9.499653    5.157063    1.957756
  45 C     6.0000    0    12.011   11.652051    6.631049    1.848152
  46 C     6.0000    0    12.011   14.397823    9.737759   -0.217319
  47 C     6.0000    0    12.011    8.165507   -0.279679   -0.173855
  48 C     6.0000    0    12.011    5.716422    0.971319    0.028346
  49 C     6.0000    0    12.011    8.290229    6.768999   -2.107045
  50 C     6.0000    0    12.011    5.415955    3.620715    0.024566
  51 N     7.0000    0    14.007   12.118814    8.118263   -0.179524
  52 H     1.0000    0     1.008   -6.842698   12.972970   -3.337256
  53 H     1.0000    0     1.008    4.297237    9.006435    0.153068
  54 H     1.0000    0     1.008   -6.908839    7.043009    3.800239
  55 H     1.0000    0     1.008   -9.501543   10.966081    3.760555
  56 H     1.0000    0     1.008  -11.750317   13.840354   -0.438416
  57 H     1.0000    0     1.008  -10.004210   15.034661    2.199641
  58 H     1.0000    0     1.008   -9.036670   15.792441   -0.942973
  59 H     1.0000    0     1.008   -0.627389    9.981533    0.130391
  60 H     1.0000    0     1.008   -4.147949    9.129267   -3.592369
  61 H     1.0000    0     1.008    0.343930    2.025786    0.009449
  62 H     1.0000    0     1.008   -0.345820   -2.040904   -0.039684
  63 H     1.0000    0     1.008  -11.081354   -9.376821    3.581031
  64 H     1.0000    0     1.008   -9.059347    4.293458    0.262672
  65 H     1.0000    0     1.008   -9.070685   -4.081808   -3.768114
  66 H     1.0000    0     1.008  -12.927616   -6.768999   -3.577252
  67 H     1.0000    0     1.008  -15.926612   -8.571798    1.031790
  68 H     1.0000    0     1.008  -15.034661  -10.085468   -1.853821
  69 H     1.0000    0     1.008  -14.089798  -11.408277    1.103600
  70 H     1.0000    0     1.008   -9.990982   -0.650066    0.188973
  71 H     1.0000    0     1.008   -7.143165   -6.804904    3.679297
  72 H     1.0000    0     1.008    6.778448  -12.978639   -3.482765
  73 H     1.0000    0     1.008   -4.301017   -9.021553   -0.094486
  74 H     1.0000    0     1.008    7.018443   -7.037340    3.639613
  75 H     1.0000    0     1.008    9.622485  -10.950963    3.535678
  76 H     1.0000    0     1.008   11.725751  -13.849803   -0.829590
  77 H     1.0000    0     1.008   10.191293  -14.960962    1.969095
  78 H     1.0000    0     1.008    8.993207  -15.822677   -1.065806
  79 H     1.0000    0     1.008    0.621720   -9.996651   -0.015118
  80 H     1.0000    0     1.008    4.055352   -9.150054   -3.666069
  81 H     1.0000    0     1.008   10.975529    9.422175   -3.696304
  82 H     1.0000    0     1.008    9.048009   -4.310465   -0.349599
  83 H     1.0000    0     1.008    9.184069    3.994881    3.613156
  84 H     1.0000    0     1.008   13.041000    6.672623    3.348595
  85 H     1.0000    0     1.008   13.951848   11.544337    0.672743
  86 H     1.0000    0     1.008   15.900156    8.791006    0.822031
  87 H     1.0000    0     1.008   14.968521   10.034446   -2.173185
  88 H     1.0000    0     1.008    9.983423    0.634948   -0.338261
  89 H     1.0000    0     1.008    7.029781    6.863485   -3.717091

--------------------------------
INTERNAL COORDINATES (ANGSTROEM)
--------------------------------
 C      0   0   0     0.000000000000     0.00000000     0.00000000
 C      1   0   0     5.576537276841     0.00000000     0.00000000
 C      1   2   0     2.413735693899    46.18804918     0.00000000
 C      3   1   2     1.403480673184    87.94186036   127.00634456
 C      4   3   1     1.380954018061   120.11386849     0.16988430
 C      5   4   3     2.447812492819   152.55362882     1.58112027
 C      2   1   3     1.368114030335    15.51076760   341.29372138
 C      7   2   1     1.434084376876   108.05010202   135.15440263
 C      2   1   3     1.434123425651   118.62599477    31.90498014
 C      1   2   3     1.381961287446    35.34367168   315.90231260
 N      1   2   3     1.352654057769   116.20572132    62.85753971
 N      9   2   1     1.376127174356   106.58526707   346.67012429
 N     12   9   2     2.925062050624   168.53581413   171.12065651
 N     13  12   9     2.954513327098    91.55032014    11.12112580
 N     14  13  12     2.925371258490    88.43092389   359.84326247
 C      8   7   2     1.404790019896   127.24786865   181.11170171
 C     13  12   9     1.366535034311    81.72106996   188.00453233
 C     14  13  12     5.758810554272    80.56209567   166.76250791
 C     17  13  12     1.459010623676   111.08861209   183.82872609
 C     18  14  13     2.412235892279    27.27532823    36.33507194
 C     20  18  14     1.402692767501    87.95206320   148.94598259
 C     21  20  18     1.382106725257   120.14573887   359.70382047
 C     18  14  13     2.446510985056   144.15733107    82.80075377
 C     19  17  13     1.353610726908   106.29293361   359.75308708
 C     13  12   9     1.366813447402   172.21332906    33.46711076
 C     18  14  13     1.380960173213    15.08449437   309.23336894
 N     22  21  20     1.352773077792   120.73759875     0.27865223
 C     25  13  17     1.410897586645   125.60330303   182.37774668
 C     14  13  12     1.376642291955    80.24689249   177.85461986
 C     14  13  12     5.764089607215   164.51507311   312.20821879
 C     29  14  13     1.435600919476   106.58649366   178.76395472
 C     30  14  13     2.413316804732    27.10625047    82.12560436
 C     32  30  14     1.403734305344    87.90059683   149.76154742
 C     33  32  30     1.380694028378   120.14881443   359.74174632
 C     34  33  32     2.448777858443   152.49203239     2.45173620
 C     31  29  14     1.368160809262   108.16950133     0.70383075
 C     14  13  12     1.376239804685   169.26375223   353.09862627
 C     30  14  13     1.380907310430    14.68948582   353.70041132
 N     34  33  32     1.352658863128   120.85575621     0.19603406
 C     37  14  29     1.404717053360   126.01551127   180.90772073
 C     15  14  13     1.366491126938    81.61824056   183.09049352
 C      2   1   3     4.249062720177   142.40279808   159.36367805
 C     41  15  14     1.459677704153   111.05201287   175.08990246
 C     42   2   1     2.412953791518    41.78584867   200.60465694
 C     44  42   2     1.403446472082    87.95153797   233.97558675
 C     45  44  42     1.381696421071   120.11137308     0.19721020
 C     42   2   1     2.450019795838   135.97209175   110.91950605
 C     43  41  15     1.354461516618   106.26758155     0.30894352
 C     15  14  13     1.367461151185   171.87382904   332.35056460
 C     42   2   1     1.381886391857    32.59078432   249.45993614
 C      9   2   1     1.404988612053   126.98745415   167.67446182
 N     42   2   1     1.352765315936   113.57249190   138.65609524
 H      1   2   3     1.082655069724   114.39589328   203.23360670
 H      2   1   3     1.079907866440   115.14870581   200.87195607
 H      4   3   1     1.082834244010   121.10965278   179.55099323
 H      5   4   3     1.082423669364   122.77810765   179.38036283
 H      6   5   4     1.092733270291   104.40561206   100.10304649
 H      6   5   4     1.089503556672    84.68934464   209.59193368
 H      6   5   4     1.089897242863   133.88963355   322.42236167
 H      7   2   1     1.079807853278   126.66122480   315.39281641
 H     10   1   2     1.083932654735   118.72070592   273.66120453
 H     12   9   2     1.016297692608   125.29023241   180.00180175
 H     14  13  12     1.014936943854    44.97226959   359.42596618
 H     18  14  13     1.082871645210   128.03556573   234.20482432
 H     19  17  13     1.080893611786   126.41830519   178.11313280
 H     21  20  18     1.083569563987   121.05669627   180.67006309
 H     22  21  20     1.082483256222   122.73097286   180.59748951
 H     23  18  14     1.092105306278   103.92715769   234.93429879
 H     23  18  14     1.088871893291   134.19244188    12.25587044
 H     23  18  14     1.089833473518    84.85857450   125.45241208
 H     24  19  17     1.080075460327   127.28078426   178.44613241
 H     26  18  14     1.083408048706   118.76995697   244.94906660
 H     30  14  13     1.082703098730   127.99711412   279.66882698
 H     31  29  14     1.079759695488   125.22293469   180.92530585
 H     33  32  30     1.083188810873   121.01964473   180.74284758
 H     34  33  32     1.082494341787   122.70821597   180.59516895
 H     35  34  33     1.092652735319   105.73575241    97.19771933
 H     35  34  33     1.089462711615    84.05943581   206.43036958
 H     35  34  33     1.089268102902   133.08365142   318.50306270
 H     36  31  29     1.079439669458   126.61599965   178.98859863
 H     38  30  73     1.083742127999   118.77264435   359.90091293
 H     42   2   1     1.082178358682   119.31790784   355.28762569
 H     43  41  15     1.080281907652   126.36969097   182.06329380
 H     45  44  42     1.083277434455   121.10105945   179.58025624
 H     46  45  44     1.082194529648   122.72144639   179.46906377
 H     47  42   2     1.091546151109   106.65128841   315.16475048
 H     47  42   2     1.088818625851   132.46019523    94.52397119
 H     47  42   2     1.089531091801    83.63838232   206.04504406
 H     48  43  41     1.080402239909   127.23657387   181.62955349
 H     50  42   2     1.083186502870   118.77001737    94.71359229

---------------------------
INTERNAL COORDINATES (A.U.)
---------------------------
 C      0   0   0     0.000000000000     0.00000000     0.00000000
 C      1   0   0    10.538128228833     0.00000000     0.00000000
 C      1   2   0     4.561299421139    46.18804918     0.00000000
 C      3   1   2     2.652194106569    87.94186036   127.00634456
 C      4   3   1     2.609624897674   120.11386849     0.16988430
 C      5   4   3     4.625695238619   152.55362882     1.58112027
 C      2   1   3     2.585360837309    15.51076760   341.29372138
 C      7   2   1     2.710026725231   108.05010202   135.15440263
 C      2   1   3     2.710100516721   118.62599477    31.90498014
 C      1   2   3     2.611528360955    35.34367168   315.90231260
 N      1   2   3     2.556145723121   116.20572132    62.85753971
 N      9   2   1     2.600503484979   106.58526707   346.67012429
 N     12   9   2     5.527566200405   168.53581413   171.12065651
 N     13  12   9     5.583221047236    91.55032014    11.12112580
 N     14  13  12     5.528150518591    88.43092389   359.84326247
 C      8   7   2     2.654668413270   127.24786865   181.11170171
 C     13  12   9     2.582376967257    81.72106996   188.00453233
 C     14  13  12    10.882574804710    80.56209567   166.76250791
 C     17  13  12     2.757130505230   111.08861209   183.82872609
 C     18  14  13     4.558465206823    27.27532823    36.33507194
 C     20  18  14     2.650705180609    87.95206320   148.94598259
 C     21  20  18     2.611803198586   120.14573887   359.70382047
 C     18  14  13     4.623235745386   144.15733107    82.80075377
 C     19  17  13     2.557953565794   106.29293361   359.75308708
 C     13  12   9     2.582903091751   172.21332906    33.46711076
 C     18  14  13     2.609636529225    15.08449437   309.23336894
 N     22  21  20     2.556370638369   120.73759875     0.27865223
 C     25  13  17     2.666210041769   125.60330303   182.37774668
 C     14  13  12     2.601476916169    80.24689249   177.85461986
 C     14  13  12    10.892550769017   164.51507311   312.20821879
 C     29  14  13     2.712892575415   106.58649366   178.76395472
 C     30  14  13     4.560507835333    27.10625047    82.12560436
 C     32  30  14     2.652673401891    87.90059683   149.76154742
 C     33  32  30     2.609133588376   120.14881443   359.74174632
 C     34  33  32     4.627519515267   152.49203239     2.45173620
 C     31  29  14     2.585449236669   108.16950133     0.70383075
 C     14  13  12     2.600716325456   169.26375223   353.09862627
 C     30  14  13     2.609536633043    14.68948582   353.70041132
 N     34  33  32     2.556154803934   120.85575621     0.19603406
 C     37  14  29     2.654530526499   126.01551127   180.90772073
 C     15  14  13     2.582293994346    81.61824056   183.09049352
 C      2   1   3     8.029564866989   142.40279808   159.36367805
 C     41  15  14     2.758391104639   111.05201287   175.08990246
 C     42   2   1     4.559821839776    41.78584867   200.60465694
 C     44  42   2     2.652129475853    87.95153797   233.97558675
 C     45  44  42     2.611027836043   120.11137308     0.19721020
 C     42   2   1     4.629866436820   135.97209175   110.91950605
 C     43  41  15     2.559561325344   106.26758155     0.30894352
 C     15  14  13     2.584127074516   171.87382904   332.35056460
 C     42   2   1     2.611386828803    32.59078432   249.45993614
 C      9   2   1     2.655043698059   126.98745415   167.67446182
 N     42   2   1     2.556355970587   113.57249190   138.65609524
 H      1   2   3     2.045921579281   114.39589328   203.23360670
 H      2   1   3     2.040730117440   115.14870581   200.87195607
 H      4   3   1     2.046260169610   121.10965278   179.55099323
 H      5   4   3     2.045484295973   122.77810765   179.38036283
 H      6   5   4     2.064966618273   104.40561206   100.10304649
 H      6   5   4     2.058863344042    84.68934464   209.59193368
 H      6   5   4     2.059607303127   133.88963355   322.42236167
 H      7   2   1     2.040541119952   126.66122480   315.39281641
 H     10   1   2     2.048335865063   118.72070592   273.66120453
 H     12   9   2     1.920524309565   125.29023241   180.00180175
 H     14  13  12     1.917952867083    44.97226959   359.42596618
 H     18  14  13     2.046330847636   128.03556573   234.20482432
 H     19  17  13     2.042592906181   126.41830519   178.11313280
 H     21  20  18     2.047649722989   121.05669627   180.67006309
 H     22  21  20     2.045596898814   122.73097286   180.59748951
 H     23  18  14     2.063779938267   103.92715769   234.93429879
 H     23  18  14     2.057669673245   134.19244188    12.25587044
 H     23  18  14     2.059486796529    84.85857450   125.45241208
 H     24  19  17     2.041046823986   127.28078426   178.44613241
 H     26  18  14     2.047344503340   118.76995697   244.94906660
 H     30  14  13     2.046012340948   127.99711412   279.66882698
 H     31  29  14     2.040450114918   125.22293469   180.92530585
 H     33  32  30     2.046930203877   121.01964473   180.74284758
 H     34  33  32     2.045617847496   122.70821597   180.59516895
 H     35  34  33     2.064814429233   105.73575241    97.19771933
 H     35  34  33     2.058786158072    84.05943581   206.43036958
 H     35  34  33     2.058418400901   133.08365142   318.50306270
 H     36  31  29     2.039845353366   126.61599965   178.98859863
 H     38  30  73     2.047975821711   118.77264435   359.90091293
 H     42   2   1     2.045020725966   119.31790784   355.28762569
 H     43  41  15     2.041436952892   126.36969097   182.06329380
 H     45  44  42     2.047097678177   121.10105945   179.58025624
 H     46  45  44     2.045051284662   122.72144639   179.46906377
 H     47  42   2     2.062723288131   106.65128841   315.16475048
 H     47  42   2     2.057569012371   132.46019523    94.52397119
 H     47  42   2     2.058915377895    83.63838232   206.04504406
 H     48  43  41     2.041664347903   127.23657387   181.62955349
 H     50  42   2     2.046925842384   118.77001737    94.71359229

---------------------
BASIS SET INFORMATION
---------------------
There are 3 groups of distinct atoms

 Group   1 Type C   : 17s4p1d contracted to 3s2p1d pattern {881/31/1}
 Group   2 Type N   : 17s4p1d contracted to 3s2p1d pattern {881/31/1}
 Group   3 Type H   : 4s1p contracted to 2s1p pattern {31/1}

Atom   0C    basis set group =>   1
Atom   1N    basis set group =>   2
Atom   2C    basis set group =>   1
Atom   3N    basis set group =>   2
Atom   4C    basis set group =>   1
Atom   5N    basis set group =>   2
Atom   6C    basis set group =>   1
Atom   7N    basis set group =>   2
Atom   8C    basis set group =>   1
Atom   9N    basis set group =>   2
Atom  10C    basis set group =>   1
Atom  11N    basis set group =>   2
Atom  12C    basis set group =>   1
Atom  13N    basis set group =>   2
Atom  14C    basis set group =>   1
Atom  15N    basis set group =>   2
Atom  16C    basis set group =>   1
Atom  17C    basis set group =>   1
Atom  18C    basis set group =>   1
Atom  19C    basis set group =>   1
Atom  20C    basis set group =>   1
Atom  21C    basis set group =>   1
Atom  22C    basis set group =>   1
Atom  23C    basis set group =>   1
Atom  24C    basis set group =>   1
Atom  25C    basis set group =>   1
Atom  26C    basis set group =>   1
Atom  27C    basis set group =>   1
Atom  28C    basis set group =>   1
Atom  29C    basis set group =>   1
Atom  30C    basis set group =>   1
Atom  31C    basis set group =>   1
Atom  32C    basis set group =>   1
Atom  33C    basis set group =>   1
Atom  34C    basis set group =>   1
Atom  35C    basis set group =>   1
Atom  36C    basis set group =>   1
Atom  37C    basis set group =>   1
Atom  38C    basis set group =>   1
Atom  39C    basis set group =>   1
Atom  40C    basis set group =>   1
Atom  41C    basis set group =>   1
Atom  42C    basis set group =>   1
Atom  43C    basis set group =>   1
Atom  44C    basis set group =>   1
Atom  45C    basis set group =>   1
Atom  46C    basis set group =>   1
Atom  47C    basis set group =>   1
Atom  48C    basis set group =>   1
Atom  49C    basis set group =>   1
Atom  50C    basis set group =>   1
Atom  51C    basis set group =>   1
Atom  52H    basis set group =>   3
Atom  53H    basis set group =>   3
Atom  54H    basis set group =>   3
Atom  55H    basis set group =>   3
Atom  56H    basis set group =>   3
Atom  57H    basis set group =>   3
Atom  58H    basis set group =>   3
Atom  59H    basis set group =>   3
Atom  60H    basis set group =>   3
Atom  61H    basis set group =>   3
Atom  62H    basis set group =>   3
Atom  63H    basis set group =>   3
Atom  64H    basis set group =>   3
Atom  65H    basis set group =>   3
Atom  66H    basis set group =>   3
Atom  67H    basis set group =>   3
Atom  68H    basis set group =>   3
Atom  69H    basis set group =>   3
Atom  70H    basis set group =>   3
Atom  71H    basis set group =>   3
Atom  72H    basis set group =>   3
Atom  73H    basis set group =>   3
Atom  74H    basis set group =>   3
Atom  75H    basis set group =>   3
Atom  76H    basis set group =>   3
Atom  77H    basis set group =>   3
Atom  78H    basis set group =>   3
Atom  79H    basis set group =>   3
Atom  80H    basis set group =>   3
Atom  81H    basis set group =>   3
Atom  82H    basis set group =>   3
Atom  83H    basis set group =>   3
Atom  84H    basis set group =>   3
Atom  85H    basis set group =>   3
Atom  86H    basis set group =>   3
Atom  87H    basis set group =>   3
Atom  88H    basis set group =>   3
Atom  89H    basis set group =>   3


           ************************************************************
           *        Program running with 16 parallel MPI-processes    *
           *              working on a common directory               *
           ************************************************************
------------------------------------------------------------------------------
                           ORCA GTO INTEGRAL CALCULATION
------------------------------------------------------------------------------
------------------------------------------------------------------------------
                   ___                                                        
                  /   \      - P O W E R E D   B Y -                         
                 /     \                                                     
                 |  |  |   _    _      __       _____    __    __             
                 |  |  |  | |  | |    /  \     |  _  \  |  |  /  |          
                  \  \/   | |  | |   /    \    | | | |  |  | /  /          
                 / \  \   | |__| |  /  /\  \   | |_| |  |  |/  /          
                |  |  |   |  __  | /  /__\  \  |    /   |      \           
                |  |  |   | |  | | |   __   |  |    \   |  |\   \          
                \     /   | |  | | |  |  |  |  | |\  \  |  | \   \       
                 \___/    |_|  |_| |__|  |__|  |_| \__\ |__|  \__/        
                                                                              
                      - O R C A' S   B I G   F R I E N D -                    
                                      &                                       
                       - I N T E G R A L  F E E D E R -                       
                                                                              
 v1 FN, 2020, v2 2021                                                         
------------------------------------------------------------------------------


Reading SHARK input file /scratch/allen/tmpyp4_amber_gaff2/conf1/conf1/Conf67.orca.SHARKINP.tmp ... ok
----------------------
SHARK INTEGRAL PACKAGE
----------------------

Number of atoms                             ...     90
Number of basis functions                   ...   1230
Number of shells                            ...    738
Maximum angular momentum                    ...      2
Integral batch strategy                     ... SHARK/LIBINT Hybrid
RI-J (if used) integral strategy            ... SPLIT-RIJ (Revised 2003 algorithm where possible)
Printlevel                                  ...      1
Contraction scheme used                     ... PARTIAL GENERAL contraction
Coulomb Range Separation                    ... NOT USED
Exchange Range Separation                   ... NOT USED
Finite Nucleus Model                        ... NOT USED
Auxiliary Coulomb fitting basis             ... NOT available
Auxiliary J/K fitting basis                 ... NOT available
Auxiliary Correlation fitting basis         ... NOT available
Auxiliary 'external' fitting basis          ... NOT available
Integral threshold                          ...     2.500000e-11
Primitive cut-off                           ...     2.500000e-12
Primitive pair pre-selection threshold      ...     2.500000e-12

Calculating pre-screening integrals         ... done (  0.1 sec) Dimension = 738
Calculating pre-screening integrals (ORCA)  ... done (  0.3 sec) Dimension = 426
Organizing shell pair data                  ... done (  0.8 sec)
Shell pair information
Total number of shell pairs                 ...    272691
Shell pairs after pre-screening             ...     71590
Total number of primitive shell pairs       ...    422091
Primitive shell pairs kept                  ...     92346
          la=0 lb=0:  29405 shell pairs
          la=1 lb=0:  25958 shell pairs
          la=1 lb=1:   4693 shell pairs
          la=2 lb=0:   7877 shell pairs
          la=2 lb=1:   3126 shell pairs
          la=2 lb=2:    531 shell pairs

Calculating one electron integrals          ... done (  0.3 sec)
Calculating Nuclear repulsion               ... done (  0.0 sec) ENN=   6223.831409097003 Eh

SHARK setup successfully completed in   2.2 seconds

Maximum memory used throughout the entire GTOINT-calculation: 99.0 MB


           ************************************************************
           *        Program running with 16 parallel MPI-processes    *
           *              working on a common directory               *
           ************************************************************
-------------------------------------------------------------------------------
                                 ORCA SCF
-------------------------------------------------------------------------------

------------
SCF SETTINGS
------------
Hamiltonian:
 Ab initio Hamiltonian  Method          .... Hartree-Fock(GTOs)


General Settings:
 Integral files         IntName         .... /scratch/allen/tmpyp4_amber_gaff2/conf1/conf1/Conf67.orca
 Hartree-Fock type      HFTyp           .... RHF
 Total Charge           Charge          ....    0
 Multiplicity           Mult            ....    1
 Number of Electrons    NEL             ....  358
 Basis Dimension        Dim             ....  918
 Nuclear Repulsion      ENuc            ....   6223.8314090970 Eh

Convergence Acceleration:
 DIIS                   CNVDIIS         .... on
   Start iteration      DIISMaxIt       ....    12
   Startup error        DIISStart       ....  0.200000
   # of expansion vecs  DIISMaxEq       ....     5
   Bias factor          DIISBfac        ....   1.050
   Max. coefficient     DIISMaxC        ....  10.000
 Trust-Rad. Augm. Hess. CNVTRAH         .... auto
   Auto Start mean grad. ratio tolernc. ....  1.125000
   Auto Start start iteration           ....    20
   Auto Start num. interpolation iter.  ....    10
   Max. Number of Micro iterations      ....    16
   Max. Number of Macro iterations      .... Maxiter - #DIIS iter
   Number of Davidson start vectors     ....     2
   Converg. threshold I  (grad. norm)   ....   1.000e-05
   Converg. threshold II (energy diff.) ....   1.000e-08
   Grad. Scal. Fac. for Micro threshold ....   0.100
   Minimum threshold for Micro iter.    ....   0.010
   NR start threshold (gradient norm)   ....   0.001
   Initial trust radius                 ....   0.400
   Minimum AH scaling param. (alpha)    ....   1.000
   Maximum AH scaling param. (alpha)    .... 1000.000
   Orbital update algorithm             .... Taylor
   White noise on init. David. guess    .... on
   Maximum white noise                  ....   0.010
   Quad. conv. algorithm                .... NR
 SOSCF                  CNVSOSCF        .... on
   Start iteration      SOSCFMaxIt      ....   150
   Startup grad/error   SOSCFStart      ....  0.003300
 Level Shifting         CNVShift        .... on
   Level shift para.    LevelShift      ....    0.2500
   Turn off err/grad.   ShiftErr        ....    0.0010
 Zerner damping         CNVZerner       .... off
 Static damping         CNVDamp         .... on
   Fraction old density DampFac         ....    0.7000
   Max. Damping (<1)    DampMax         ....    0.9800
   Min. Damping (>=0)   DampMin         ....    0.0000
   Turn off err/grad.   DampErr         ....    0.1000
 Fernandez-Rico         CNVRico         .... off

SCF Procedure:
 Maximum # iterations   MaxIter         ....   125
 SCF integral mode      SCFMode         .... Direct
   Integral package                     .... SHARK and LIBINT hybrid scheme
 Reset frequency        DirectResetFreq ....    20
 Integral Threshold     Thresh          ....  2.500e-11 Eh
 Primitive CutOff       TCut            ....  2.500e-12 Eh

Convergence Tolerance:
 Convergence Check Mode ConvCheckMode   .... Total+1el-Energy
 Convergence forced     ConvForced      .... 1
 Energy Change          TolE            ....  1.000e-08 Eh
 1-El. energy change                    ....  1.000e-05 Eh
 Orbital Gradient       TolG            ....  1.000e-05
 Orbital Rotation angle TolX            ....  1.000e-05
 DIIS Error             TolErr          ....  5.000e-07


Diagonalization of the overlap matrix:
Smallest eigenvalue                        ... 2.255e-04
Time for diagonalization                   ...    0.412 sec
Threshold for overlap eigenvalues          ... 1.000e-08
Number of eigenvalues below threshold      ... 0
Time for construction of square roots      ...    0.252 sec
Total time needed                          ...    0.670 sec

Time for model grid setup =    1.060 sec

------------------------------
INITIAL GUESS: MODEL POTENTIAL
------------------------------
Loading Hartree-Fock densities                     ... done
Calculating cut-offs                               ... done
Initializing the effective Hamiltonian             ... done
Setting up the integral package (SHARK)            ... done
Starting the Coulomb interaction                   ... done (   1.2 sec)
Reading the grid                                   ... done
Mapping shells                                     ... done
Starting the XC term evaluation                    ... done (   0.2 sec)
Transforming the Hamiltonian                       ... done (   0.2 sec)
Diagonalizing the Hamiltonian                      ... done (   0.3 sec)
Back transforming the eigenvectors                 ... done (   0.1 sec)
Now organizing SCF variables                       ... done
                      ------------------
                      INITIAL GUESS DONE (   3.1 sec)
                      ------------------
--------------
SCF ITERATIONS
--------------
ITER       Energy         Delta-E        Max-DP      RMS-DP      [F,P]     Damp
               ***  Starting incremental Fock matrix formation  ***
  0  -2121.6580892025   0.000000000000 0.06919219  0.00121279  0.2337575 0.7000
  1  -2122.3259029295  -0.667813727016 0.05253446  0.00098402  0.1445318 0.7000
                               ***Turning on DIIS***
  2  -2122.7408720089  -0.414969079438 0.11672342  0.00222692  0.0803135 0.0000
  3  -2117.6911810370   5.049690971950 0.03234811  0.00068906  0.0443816 0.0000
  4  -2123.4018663884  -5.710685351391 0.00886210  0.00023032  0.0070066 0.0000
  5  -2123.5845446125  -0.182678224171 0.00510419  0.00013758  0.0049635 0.0000
  6  -2123.5671787773   0.017365835256 0.00329222  0.00009091  0.0020199 0.0000
  7  -2123.6743538462  -0.107175068862 0.00281173  0.00007352  0.0015007 0.0000
  8  -2123.6991896387  -0.024835792576 0.00265329  0.00007110  0.0013889 0.0000
  9  -2123.6598847146   0.039304924163 0.00227295  0.00004942  0.0010731 0.0000
 10  -2123.6796293742  -0.019744659674 0.00516542  0.00010266  0.0008051 0.0000
                      *** Initiating the SOSCF procedure ***
                           *** Shutting down DIIS ***
                      *** Re-Reading the Fockian *** 
                      *** Removing any level shift *** 
ITER      Energy       Delta-E        Grad      Rot      Max-DP    RMS-DP
 11  -2123.53984082   0.1397885554  0.000354  0.000354  0.000281  0.000007
               *** Restarting incremental Fock matrix formation ***
 12  -2123.61797828  -0.0781374570  0.001077  0.007453  0.001289  0.000031
 13  -2123.61806518  -0.0000869065  0.001165  0.029678  0.004725  0.000100
 14  -2123.61817237  -0.0001071916  0.000454  0.002840  0.000451  0.000013
 15  -2123.61818607  -0.0000136996  0.000195  0.002692  0.000455  0.000012
 16  -2123.61819140  -0.0000053276  0.000120  0.002687  0.000613  0.000013
 17  -2123.61819574  -0.0000043355  0.000155  0.003591  0.000633  0.000014
 18  -2123.61819876  -0.0000030280  0.000091  0.003668  0.000498  0.000014
 19  -2123.61820133  -0.0000025623  0.000110  0.002568  0.000438  0.000009
 20  -2123.61820255  -0.0000012267  0.000057  0.001170  0.000239  0.000005
 21  -2123.61820295  -0.0000003978  0.000040  0.000537  0.000115  0.000002
 22  -2123.61820320  -0.0000002493  0.000035  0.000391  0.000101  0.000002
 23  -2123.61820335  -0.0000001483  0.000022  0.000465  0.000096  0.000002
 24  -2123.61820341  -0.0000000629  0.000009  0.000262  0.000033  0.000001
 25  -2123.61820343  -0.0000000204  0.000008  0.000210  0.000029  0.000001
 26  -2123.61820344  -0.0000000109  0.000007  0.000138  0.000023  0.000001
 27  -2123.61820344   0.0000000030  0.000005  0.000177  0.000026  0.000001
 28  -2123.61820344   0.0000000018  0.000003  0.000159  0.000024  0.000001
 29  -2123.61820344   0.0000000007  0.000003  0.000076  0.000013  0.000000
                  ***Gradient check signals convergence***
              ***Rediagonalizing the Fockian in SOSCF/NRSCF***

               *****************************************************
               *                     SUCCESS                       *
               *           SCF CONVERGED AFTER  30 CYCLES          *
               *****************************************************


----------------
TOTAL SCF ENERGY
----------------

Total Energy       :        -2123.61820343 Eh          -57786.58913 eV

Components:
Nuclear Repulsion  :         6223.83140910 Eh          169359.06269 eV
Electronic Energy  :        -8347.44961253 Eh         -227145.65182 eV
One Electron Energy:       -15288.95642373 Eh         -416033.65503 eV
Two Electron Energy:         6941.50681120 Eh          188888.00321 eV

Virial components:
Potential Energy   :        -4245.60925793 Eh         -115528.90128 eV
Kinetic Energy     :         2121.99105449 Eh           57742.31216 eV
Virial Ratio       :            2.00076680


---------------
SCF CONVERGENCE
---------------

  Last Energy change         ...    3.7016e-09  Tolerance :   1.0000e-08
  Last MAX-Density change    ...    4.8716e-06  Tolerance :   1.0000e-07
  Last RMS-Density change    ...    1.2083e-07  Tolerance :   5.0000e-09
  Last Orbital Gradient      ...    1.3893e-06  Tolerance :   1.0000e-05
  Last Orbital Rotation      ...    3.0172e-05  Tolerance :   1.0000e-05

             **** THE GBW FILE WAS UPDATED (/scratch/allen/tmpyp4_amber_gaff2/conf1/conf1/Conf67.orca.gbw) ****
             **** DENSITY /scratch/allen/tmpyp4_amber_gaff2/conf1/conf1/Conf67.orca.scfp WAS UPDATED ****
             **** ENERGY FILE WAS UPDATED (/scratch/allen/tmpyp4_amber_gaff2/conf1/conf1/Conf67.orca.en.tmp) ****
             **** THE GBW FILE WAS UPDATED (/scratch/allen/tmpyp4_amber_gaff2/conf1/conf1/Conf67.orca.gbw) ****
             **** DENSITY /scratch/allen/tmpyp4_amber_gaff2/conf1/conf1/Conf67.orca.scfp WAS UPDATED ****
----------------
ORBITAL ENERGIES
----------------

  NO   OCC          E(Eh)            E(eV) 
   0   2.0000     -15.651000      -425.8854 
   1   2.0000     -15.637915      -425.5293 
   2   2.0000     -15.627955      -425.2583 
   3   2.0000     -15.618099      -424.9901 
   4   2.0000     -15.517449      -422.2512 
   5   2.0000     -15.514034      -422.1583 
   6   2.0000     -15.445654      -420.2976 
   7   2.0000     -15.438784      -420.1107 
   8   2.0000     -11.309838      -307.7563 
   9   2.0000     -11.304761      -307.6182 
  10   2.0000     -11.303427      -307.5819 
  11   2.0000     -11.301746      -307.5361 
  12   2.0000     -11.295426      -307.3642 
  13   2.0000     -11.294306      -307.3337 
  14   2.0000     -11.292031      -307.2718 
  15   2.0000     -11.289503      -307.2030 
  16   2.0000     -11.286256      -307.1147 
  17   2.0000     -11.283279      -307.0336 
  18   2.0000     -11.278037      -306.8910 
  19   2.0000     -11.275489      -306.8217 
  20   2.0000     -11.253443      -306.2218 
  21   2.0000     -11.242523      -305.9246 
  22   2.0000     -11.241965      -305.9094 
  23   2.0000     -11.241151      -305.8873 
  24   2.0000     -11.233188      -305.6706 
  25   2.0000     -11.232359      -305.6480 
  26   2.0000     -11.232168      -305.6428 
  27   2.0000     -11.225957      -305.4738 
  28   2.0000     -11.225730      -305.4677 
  29   2.0000     -11.223474      -305.4062 
  30   2.0000     -11.218969      -305.2837 
  31   2.0000     -11.218129      -305.2608 
  32   2.0000     -11.199072      -304.7422 
  33   2.0000     -11.198710      -304.7324 
  34   2.0000     -11.193203      -304.5825 
  35   2.0000     -11.192954      -304.5758 
  36   2.0000     -11.177461      -304.1542 
  37   2.0000     -11.176917      -304.1394 
  38   2.0000     -11.174679      -304.0785 
  39   2.0000     -11.169017      -303.9244 
  40   2.0000     -11.165876      -303.8389 
  41   2.0000     -11.163544      -303.7755 
  42   2.0000     -11.163417      -303.7720 
  43   2.0000     -11.160452      -303.6913 
  44   2.0000     -11.159519      -303.6659 
  45   2.0000     -11.156247      -303.5769 
  46   2.0000     -11.152698      -303.4803 
  47   2.0000     -11.149378      -303.3900 
  48   2.0000     -11.149254      -303.3866 
  49   2.0000     -11.147612      -303.3420 
  50   2.0000     -11.134976      -302.9981 
  51   2.0000     -11.133092      -302.9468 
  52   2.0000      -1.335410       -36.3384 
  53   2.0000      -1.324540       -36.0426 
  54   2.0000      -1.315792       -35.8045 
  55   2.0000      -1.307630       -35.5824 
  56   2.0000      -1.216467       -33.1017 
  57   2.0000      -1.211167       -32.9575 
  58   2.0000      -1.164161       -31.6784 
  59   2.0000      -1.152336       -31.3567 
  60   2.0000      -1.122095       -30.5337 
  61   2.0000      -1.111994       -30.2589 
  62   2.0000      -1.105274       -30.0760 
  63   2.0000      -1.097148       -29.8549 
  64   2.0000      -1.058698       -28.8086 
  65   2.0000      -1.048329       -28.5265 
  66   2.0000      -1.040344       -28.3092 
  67   2.0000      -1.032803       -28.1040 
  68   2.0000      -1.027623       -27.9630 
  69   2.0000      -1.011734       -27.5307 
  70   2.0000      -1.007151       -27.4060 
  71   2.0000      -0.996263       -27.1097 
  72   2.0000      -0.980598       -26.6834 
  73   2.0000      -0.974938       -26.5294 
  74   2.0000      -0.969686       -26.3865 
  75   2.0000      -0.961046       -26.1514 
  76   2.0000      -0.950201       -25.8563 
  77   2.0000      -0.946832       -25.7646 
  78   2.0000      -0.934931       -25.4408 
  79   2.0000      -0.922507       -25.1027 
  80   2.0000      -0.892593       -24.2887 
  81   2.0000      -0.883741       -24.0478 
  82   2.0000      -0.875219       -23.8159 
  83   2.0000      -0.867461       -23.6048 
  84   2.0000      -0.861201       -23.4345 
  85   2.0000      -0.857801       -23.3419 
  86   2.0000      -0.851638       -23.1743 
  87   2.0000      -0.839242       -22.8369 
  88   2.0000      -0.822137       -22.3715 
  89   2.0000      -0.797451       -21.6997 
  90   2.0000      -0.796861       -21.6837 
  91   2.0000      -0.739732       -20.1291 
  92   2.0000      -0.731133       -19.8951 
  93   2.0000      -0.727103       -19.7855 
  94   2.0000      -0.722539       -19.6613 
  95   2.0000      -0.717016       -19.5110 
  96   2.0000      -0.710682       -19.3386 
  97   2.0000      -0.708306       -19.2740 
  98   2.0000      -0.698030       -18.9944 
  99   2.0000      -0.691272       -18.8105 
 100   2.0000      -0.688002       -18.7215 
 101   2.0000      -0.682059       -18.5598 
 102   2.0000      -0.679238       -18.4830 
 103   2.0000      -0.671934       -18.2843 
 104   2.0000      -0.669351       -18.2140 
 105   2.0000      -0.665527       -18.1099 
 106   2.0000      -0.664255       -18.0753 
 107   2.0000      -0.660314       -17.9681 
 108   2.0000      -0.659227       -17.9385 
 109   2.0000      -0.655794       -17.8451 
 110   2.0000      -0.651033       -17.7155 
 111   2.0000      -0.648736       -17.6530 
 112   2.0000      -0.646678       -17.5970 
 113   2.0000      -0.641811       -17.4646 
 114   2.0000      -0.633517       -17.2389 
 115   2.0000      -0.624748       -17.0002 
 116   2.0000      -0.623391       -16.9633 
 117   2.0000      -0.615411       -16.7462 
 118   2.0000      -0.611750       -16.6466 
 119   2.0000      -0.608285       -16.5523 
 120   2.0000      -0.607485       -16.5305 
 121   2.0000      -0.601598       -16.3703 
 122   2.0000      -0.600019       -16.3274 
 123   2.0000      -0.593843       -16.1593 
 124   2.0000      -0.592232       -16.1154 
 125   2.0000      -0.584032       -15.8923 
 126   2.0000      -0.577715       -15.7204 
 127   2.0000      -0.571495       -15.5512 
 128   2.0000      -0.569744       -15.5035 
 129   2.0000      -0.563296       -15.3281 
 130   2.0000      -0.553532       -15.0624 
 131   2.0000      -0.546751       -14.8778 
 132   2.0000      -0.540049       -14.6955 
 133   2.0000      -0.534941       -14.5565 
 134   2.0000      -0.532110       -14.4795 
 135   2.0000      -0.528232       -14.3739 
 136   2.0000      -0.525497       -14.2995 
 137   2.0000      -0.522987       -14.2312 
 138   2.0000      -0.519491       -14.1361 
 139   2.0000      -0.514951       -14.0125 
 140   2.0000      -0.509282       -13.8583 
 141   2.0000      -0.504590       -13.7306 
 142   2.0000      -0.503690       -13.7061 
 143   2.0000      -0.501954       -13.6589 
 144   2.0000      -0.498460       -13.5638 
 145   2.0000      -0.496293       -13.5048 
 146   2.0000      -0.495090       -13.4721 
 147   2.0000      -0.493489       -13.4285 
 148   2.0000      -0.488773       -13.3002 
 149   2.0000      -0.467298       -12.7158 
 150   2.0000      -0.460438       -12.5292 
 151   2.0000      -0.452038       -12.3006 
 152   2.0000      -0.446782       -12.1576 
 153   2.0000      -0.445228       -12.1153 
 154   2.0000      -0.443148       -12.0587 
 155   2.0000      -0.439776       -11.9669 
 156   2.0000      -0.433910       -11.8073 
 157   2.0000      -0.427845       -11.6423 
 158   2.0000      -0.393004       -10.6942 
 159   2.0000      -0.380990       -10.3673 
 160   2.0000      -0.375784       -10.2256 
 161   2.0000      -0.370713       -10.0876 
 162   2.0000      -0.367271        -9.9939 
 163   2.0000      -0.358815        -9.7638 
 164   2.0000      -0.352057        -9.5800 
 165   2.0000      -0.345780        -9.4091 
 166   2.0000      -0.337925        -9.1954 
 167   2.0000      -0.333629        -9.0785 
 168   2.0000      -0.324980        -8.8432 
 169   2.0000      -0.300046        -8.1647 
 170   2.0000      -0.293834        -7.9956 
 171   2.0000      -0.288283        -7.8446 
 172   2.0000      -0.286643        -7.8000 
 173   2.0000      -0.257314        -7.0019 
 174   2.0000      -0.244345        -6.6490 
 175   2.0000      -0.186730        -5.0812 
 176   2.0000      -0.176516        -4.8032 
 177   2.0000      -0.063951        -1.7402 
 178   2.0000      -0.052621        -1.4319 
 179   0.0000       0.032588         0.8868 
 180   0.0000       0.068730         1.8702 
 181   0.0000       0.092268         2.5107 
 182   0.0000       0.095490         2.5984 
 183   0.0000       0.126093         3.4312 
 184   0.0000       0.135287         3.6813 
 185   0.0000       0.142470         3.8768 
 186   0.0000       0.149475         4.0674 
 187   0.0000       0.156371         4.2551 
 188   0.0000       0.161225         4.3872 
 189   0.0000       0.163134         4.4391 
 190   0.0000       0.168373         4.5817 
 191   0.0000       0.173444         4.7196 
 192   0.0000       0.195890         5.3304 
 193   0.0000       0.199412         5.4263 
 194   0.0000       0.202603         5.5131 
 195   0.0000       0.206915         5.6305 
 196   0.0000       0.208195         5.6653 
 197   0.0000       0.211946         5.7673 
 198   0.0000       0.213743         5.8162 
 199   0.0000       0.216926         5.9029 
 200   0.0000       0.231203         6.2913 
 201   0.0000       0.237684         6.4677 
 202   0.0000       0.242546         6.6000 
 203   0.0000       0.247342         6.7305 
 204   0.0000       0.248228         6.7546 
 205   0.0000       0.254556         6.9268 
 206   0.0000       0.257049         6.9947 
 207   0.0000       0.260929         7.1002 
 208   0.0000       0.263976         7.1832 
 209   0.0000       0.265232         7.2173 
 210   0.0000       0.266769         7.2592 
 211   0.0000       0.268066         7.2945 
 212   0.0000       0.272437         7.4134 
 213   0.0000       0.274851         7.4791 
 214   0.0000       0.277630         7.5547 
 215   0.0000       0.280567         7.6346 
 216   0.0000       0.281745         7.6667 
 217   0.0000       0.283274         7.7083 
 218   0.0000       0.285560         7.7705 
 219   0.0000       0.286936         7.8079 
 220   0.0000       0.290638         7.9087 
 221   0.0000       0.290973         7.9178 
 222   0.0000       0.294367         8.0101 
 223   0.0000       0.295273         8.0348 
 224   0.0000       0.299885         8.1603 
 225   0.0000       0.301842         8.2135 
 226   0.0000       0.302097         8.2205 
 227   0.0000       0.304948         8.2981 
 228   0.0000       0.306859         8.3501 
 229   0.0000       0.308941         8.4067 
 230   0.0000       0.315504         8.5853 
 231   0.0000       0.316794         8.6204 
 232   0.0000       0.326609         8.8875 
 233   0.0000       0.327192         8.9034 
 234   0.0000       0.332085         9.0365 
 235   0.0000       0.338933         9.2228 
 236   0.0000       0.357470         9.7272 
 237   0.0000       0.383314        10.4305 
 238   0.0000       0.396736        10.7957 
 239   0.0000       0.400035        10.8855 
 240   0.0000       0.404243        11.0000 
 241   0.0000       0.410440        11.1686 
 242   0.0000       0.419143        11.4055 
 243   0.0000       0.424441        11.5496 
 244   0.0000       0.429077        11.6758 
 245   0.0000       0.431023        11.7287 
 246   0.0000       0.433630        11.7997 
 247   0.0000       0.438669        11.9368 
 248   0.0000       0.441074        12.0022 
 249   0.0000       0.444694        12.1007 
 250   0.0000       0.446760        12.1569 
 251   0.0000       0.451519        12.2865 
 252   0.0000       0.454584        12.3699 
 253   0.0000       0.463961        12.6250 
 254   0.0000       0.470390        12.7999 
 255   0.0000       0.476475        12.9656 
 256   0.0000       0.481669        13.1069 
 257   0.0000       0.486544        13.2395 
 258   0.0000       0.489913        13.3312 
 259   0.0000       0.496466        13.5095 
 260   0.0000       0.499140        13.5823 
 261   0.0000       0.504236        13.7210 
 262   0.0000       0.506417        13.7803 
 263   0.0000       0.510990        13.9048 
 264   0.0000       0.512215        13.9381 
 265   0.0000       0.515973        14.0403 
 266   0.0000       0.517050        14.0696 
 267   0.0000       0.522371        14.2144 
 268   0.0000       0.535822        14.5805 
 269   0.0000       0.539091        14.6694 
 270   0.0000       0.541656        14.7392 
 271   0.0000       0.544078        14.8051 
 272   0.0000       0.548318        14.9205 
 273   0.0000       0.552153        15.0248 
 274   0.0000       0.562477        15.3058 
 275   0.0000       0.563171        15.3247 
 276   0.0000       0.573144        15.5961 
 277   0.0000       0.575179        15.6514 
 278   0.0000       0.580437        15.7945 
 279   0.0000       0.585384        15.9291 
 280   0.0000       0.588955        16.0263 
 281   0.0000       0.591520        16.0961 
 282   0.0000       0.592692        16.1280 
 283   0.0000       0.596528        16.2323 
 284   0.0000       0.600798        16.3485 
 285   0.0000       0.601275        16.3615 
 286   0.0000       0.607359        16.5271 
 287   0.0000       0.607587        16.5333 
 288   0.0000       0.611336        16.6353 
 289   0.0000       0.615281        16.7427 
 290   0.0000       0.616620        16.7791 
 291   0.0000       0.628109        17.0917 
 292   0.0000       0.635536        17.2938 
 293   0.0000       0.640276        17.4228 
 294   0.0000       0.647385        17.6162 
 295   0.0000       0.648224        17.6391 
 296   0.0000       0.653737        17.7891 
 297   0.0000       0.658902        17.9296 
 298   0.0000       0.663477        18.0541 
 299   0.0000       0.665508        18.1094 
 300   0.0000       0.668968        18.2035 
 301   0.0000       0.673119        18.3165 
 302   0.0000       0.674408        18.3516 
 303   0.0000       0.681793        18.5525 
 304   0.0000       0.683329        18.5943 
 305   0.0000       0.685793        18.6614 
 306   0.0000       0.689540        18.7633 
 307   0.0000       0.692449        18.8425 
 308   0.0000       0.699219        19.0267 
 309   0.0000       0.701187        19.0803 
 310   0.0000       0.703029        19.1304 
 311   0.0000       0.705434        19.1958 
 312   0.0000       0.707523        19.2527 
 313   0.0000       0.709436        19.3047 
 314   0.0000       0.711072        19.3492 
 315   0.0000       0.715279        19.4637 
 316   0.0000       0.716024        19.4840 
 317   0.0000       0.717966        19.5368 
 318   0.0000       0.718978        19.5644 
 319   0.0000       0.722350        19.6561 
 320   0.0000       0.726162        19.7599 
 321   0.0000       0.727993        19.8097 
 322   0.0000       0.731518        19.9056 
 323   0.0000       0.734831        19.9958 
 324   0.0000       0.738362        20.0919 
 325   0.0000       0.741482        20.1767 
 326   0.0000       0.742313        20.1994 
 327   0.0000       0.744960        20.2714 
 328   0.0000       0.747797        20.3486 
 329   0.0000       0.750622        20.4255 
 330   0.0000       0.752321        20.4717 
 331   0.0000       0.755503        20.5583 
 332   0.0000       0.757501        20.6127 
 333   0.0000       0.759674        20.6718 
 334   0.0000       0.764576        20.8052 
 335   0.0000       0.769005        20.9257 
 336   0.0000       0.771103        20.9828 
 337   0.0000       0.779295        21.2057 
 338   0.0000       0.784060        21.3354 
 339   0.0000       0.789649        21.4874 
 340   0.0000       0.790316        21.5056 
 341   0.0000       0.792528        21.5658 
 342   0.0000       0.795026        21.6338 
 343   0.0000       0.799008        21.7421 
 344   0.0000       0.804732        21.8979 
 345   0.0000       0.805516        21.9192 
 346   0.0000       0.807309        21.9680 
 347   0.0000       0.809937        22.0395 
 348   0.0000       0.816627        22.2216 
 349   0.0000       0.817544        22.2465 
 350   0.0000       0.820214        22.3191 
 351   0.0000       0.823806        22.4169 
 352   0.0000       0.824781        22.4434 
 353   0.0000       0.826506        22.4904 
 354   0.0000       0.831166        22.6172 
 355   0.0000       0.832361        22.6497 
 356   0.0000       0.833579        22.6828 
 357   0.0000       0.834160        22.6987 
 358   0.0000       0.836622        22.7657 
 359   0.0000       0.838604        22.8196 
 360   0.0000       0.840303        22.8658 
 361   0.0000       0.844982        22.9931 
 362   0.0000       0.846023        23.0215 
 363   0.0000       0.847045        23.0493 
 364   0.0000       0.848585        23.0912 
 365   0.0000       0.850721        23.1493 
 366   0.0000       0.852179        23.1890 
 367   0.0000       0.852664        23.2022 
 368   0.0000       0.855530        23.2802 
 369   0.0000       0.856900        23.3174 
 370   0.0000       0.863095        23.4860 
 371   0.0000       0.866627        23.5821 
 372   0.0000       0.870849        23.6970 
 373   0.0000       0.875333        23.8190 
 374   0.0000       0.879895        23.9431 
 375   0.0000       0.883340        24.0369 
 376   0.0000       0.884144        24.0588 
 377   0.0000       0.890854        24.2414 
 378   0.0000       0.891533        24.2599 
 379   0.0000       0.891895        24.2697 
 380   0.0000       0.895495        24.3677 
 381   0.0000       0.900526        24.5046 
 382   0.0000       0.903428        24.5835 
 383   0.0000       0.904917        24.6241 
 384   0.0000       0.905402        24.6372 
 385   0.0000       0.908007        24.7081 
 386   0.0000       0.908730        24.7278 
 387   0.0000       0.911214        24.7954 
 388   0.0000       0.912363        24.8266 
 389   0.0000       0.913577        24.8597 
 390   0.0000       0.918047        24.9813 
 391   0.0000       0.922213        25.0947 
 392   0.0000       0.923812        25.1382 
 393   0.0000       0.925339        25.1797 
 394   0.0000       0.928967        25.2785 
 395   0.0000       0.930273        25.3140 
 396   0.0000       0.932870        25.3847 
 397   0.0000       0.935079        25.4448 
 398   0.0000       0.937503        25.5107 
 399   0.0000       0.943204        25.6659 
 400   0.0000       0.944626        25.7046 
 401   0.0000       0.945977        25.7413 
 402   0.0000       0.947888        25.7934 
 403   0.0000       0.950096        25.8534 
 404   0.0000       0.954327        25.9686 
 405   0.0000       0.955999        26.0140 
 406   0.0000       0.959728        26.1155 
 407   0.0000       0.963361        26.2144 
 408   0.0000       0.968785        26.3620 
 409   0.0000       0.972983        26.4762 
 410   0.0000       0.974988        26.5308 
 411   0.0000       0.976802        26.5801 
 412   0.0000       0.981190        26.6995 
 413   0.0000       0.990226        26.9454 
 414   0.0000       0.991479        26.9795 
 415   0.0000       0.992031        26.9945 
 416   0.0000       0.995278        27.0829 
 417   0.0000       1.004352        27.3298 
 418   0.0000       1.006156        27.3789 
 419   0.0000       1.012736        27.5579 
 420   0.0000       1.024896        27.8888 
 421   0.0000       1.029442        28.0125 
 422   0.0000       1.033068        28.1112 
 423   0.0000       1.035947        28.1896 
 424   0.0000       1.039360        28.2824 
 425   0.0000       1.047033        28.4912 
 426   0.0000       1.054773        28.7018 
 427   0.0000       1.064965        28.9792 
 428   0.0000       1.070892        29.1405 
 429   0.0000       1.073738        29.2179 
 430   0.0000       1.074971        29.2514 
 431   0.0000       1.083060        29.4716 
 432   0.0000       1.083517        29.4840 
 433   0.0000       1.090988        29.6873 
 434   0.0000       1.093456        29.7545 
 435   0.0000       1.101334        29.9688 
 436   0.0000       1.108607        30.1667 
 437   0.0000       1.113388        30.2968 
 438   0.0000       1.116376        30.3781 
 439   0.0000       1.118142        30.4262 
 440   0.0000       1.121207        30.5096 
 441   0.0000       1.125339        30.6220 
 442   0.0000       1.127016        30.6677 
 443   0.0000       1.133021        30.8311 
 444   0.0000       1.134961        30.8839 
 445   0.0000       1.136400        30.9230 
 446   0.0000       1.139029        30.9946 
 447   0.0000       1.140762        31.0417 
 448   0.0000       1.142473        31.0883 
 449   0.0000       1.148663        31.2567 
 450   0.0000       1.149780        31.2871 
 451   0.0000       1.152310        31.3560 
 452   0.0000       1.152928        31.3728 
 453   0.0000       1.160554        31.5803 
 454   0.0000       1.161729        31.6122 
 455   0.0000       1.165633        31.7185 
 456   0.0000       1.172985        31.9185 
 457   0.0000       1.178313        32.0635 
 458   0.0000       1.181464        32.1493 
 459   0.0000       1.184652        32.2360 
 460   0.0000       1.189620        32.3712 
 461   0.0000       1.192751        32.4564 
 462   0.0000       1.197895        32.5964 
 463   0.0000       1.206362        32.8268 
 464   0.0000       1.209039        32.8996 
 465   0.0000       1.211225        32.9591 
 466   0.0000       1.212996        33.0073 
 467   0.0000       1.220671        33.2162 
 468   0.0000       1.223250        33.2863 
 469   0.0000       1.227820        33.4107 
 470   0.0000       1.232926        33.5496 
 471   0.0000       1.233448        33.5638 
 472   0.0000       1.237942        33.6861 
 473   0.0000       1.239508        33.7287 
 474   0.0000       1.241187        33.7744 
 475   0.0000       1.247233        33.9389 
 476   0.0000       1.249983        34.0138 
 477   0.0000       1.251339        34.0507 
 478   0.0000       1.254477        34.1361 
 479   0.0000       1.257412        34.2159 
 480   0.0000       1.261669        34.3318 
 481   0.0000       1.264369        34.4052 
 482   0.0000       1.267310        34.4853 
 483   0.0000       1.269612        34.5479 
 484   0.0000       1.273804        34.6620 
 485   0.0000       1.279388        34.8139 
 486   0.0000       1.281620        34.8746 
 487   0.0000       1.282214        34.8908 
 488   0.0000       1.289811        35.0976 
 489   0.0000       1.290744        35.1229 
 490   0.0000       1.291996        35.1570 
 491   0.0000       1.297465        35.3058 
 492   0.0000       1.298640        35.3378 
 493   0.0000       1.307936        35.5907 
 494   0.0000       1.312715        35.7208 
 495   0.0000       1.315283        35.7907 
 496   0.0000       1.321705        35.9654 
 497   0.0000       1.323006        36.0008 
 498   0.0000       1.328028        36.1375 
 499   0.0000       1.331034        36.2193 
 500   0.0000       1.332889        36.2698 
 501   0.0000       1.340243        36.4699 
 502   0.0000       1.341561        36.5057 
 503   0.0000       1.342310        36.5261 
 504   0.0000       1.347058        36.6553 
 505   0.0000       1.351190        36.7677 
 506   0.0000       1.353893        36.8413 
[...]
      pz      :     0.021892  p :     0.079448
      px      :     0.043121
      py      :     0.014435
 77 H s       :     0.891612  s :     0.891612
      pz      :     0.047427  p :     0.078671
      px      :     0.015008
      py      :     0.016236
 78 H s       :     0.891984  s :     0.891984
      pz      :     0.025603  p :     0.078603
      px      :     0.020615
      py      :     0.032385
 79 H s       :     0.908464  s :     0.908464
      pz      :     0.022304  p :     0.086912
      px      :     0.021823
      py      :     0.042785
 80 H s       :     0.874197  s :     0.874197
      pz      :     0.038590  p :     0.083731
      px      :     0.029735
      py      :     0.015406
 81 H s       :     0.887438  s :     0.887438
      pz      :     0.037701  p :     0.083661
      px      :     0.016101
      py      :     0.029860
 82 H s       :     0.914491  s :     0.914491
      pz      :     0.022207  p :     0.086970
      px      :     0.031210
      py      :     0.033553
 83 H s       :     0.872031  s :     0.872031
      pz      :     0.039266  p :     0.083902
      px      :     0.015238
      py      :     0.029398
 84 H s       :     0.887254  s :     0.887254
      pz      :     0.035826  p :     0.083971
      px      :     0.031770
      py      :     0.016375
 85 H s       :     0.894109  s :     0.894109
      pz      :     0.022512  p :     0.079705
      px      :     0.014097
      py      :     0.043097
 86 H s       :     0.890459  s :     0.890459
      pz      :     0.024727  p :     0.078898
      px      :     0.033015
      py      :     0.021156
 87 H s       :     0.890334  s :     0.890334
      pz      :     0.047927  p :     0.078685
      px      :     0.015627
      py      :     0.015131
 88 H s       :     0.915506  s :     0.915506
      pz      :     0.022189  p :     0.086877
      px      :     0.042341
      py      :     0.022348
 89 H s       :     0.873158  s :     0.873158
      pz      :     0.037881  p :     0.083967
      px      :     0.030508
      py      :     0.015578


                      *****************************
                      * MAYER POPULATION ANALYSIS *
                      *****************************

  NA   - Mulliken gross atomic population
  ZA   - Total nuclear charge
  QA   - Mulliken gross atomic charge
  VA   - Mayer's total valence
  BVA  - Mayer's bonded valence
  FA   - Mayer's free valence

  ATOM       NA         ZA         QA         VA         BVA        FA
  0 C      5.7854     6.0000     0.2146     3.8211     3.8211     0.0000
  1 N      7.4350     7.0000    -0.4350     3.3980     3.3980    -0.0000
  2 C      6.0652     6.0000    -0.0652     3.9181     3.9181     0.0000
  3 N      7.3391     7.0000    -0.3391     3.4379     3.4379    -0.0000
  4 C      6.0713     6.0000    -0.0713     3.9789     3.9789    -0.0000
  5 N      7.5645     7.0000    -0.5645     3.0791     3.0791    -0.0000
  6 C      6.0500     6.0000    -0.0500     3.9844     3.9844    -0.0000
  7 N      7.3373     7.0000    -0.3373     3.4436     3.4436    -0.0000
  8 C      5.7875     6.0000     0.2125     3.8217     3.8217    -0.0000
  9 N      7.5641     7.0000    -0.5641     3.0862     3.0862    -0.0000
 10 C      5.8884     6.0000     0.1116     3.8851     3.8851     0.0000
 11 N      7.4377     7.0000    -0.4377     3.3832     3.3832    -0.0000
 12 C      6.0665     6.0000    -0.0665     3.9147     3.9147     0.0000
 13 N      7.4435     7.0000    -0.4435     3.3597     3.3597    -0.0000
 14 C      5.7628     6.0000     0.2372     3.7964     3.7964    -0.0000
 15 N      7.4406     7.0000    -0.4406     3.3715     3.3715    -0.0000
 16 C      5.7598     6.0000     0.2402     3.7974     3.7974     0.0000
 17 C      6.0552     6.0000    -0.0552     3.9875     3.9875    -0.0000
 18 C      6.2057     6.0000    -0.2057     3.7319     3.7319     0.0000
 19 C      5.7607     6.0000     0.2393     3.8787     3.8787    -0.0000
 20 C      5.7969     6.0000     0.2031     3.8238     3.8238    -0.0000
 21 C      6.0788     6.0000    -0.0788     3.9035     3.9035    -0.0000
 22 C      6.0864     6.0000    -0.0864     3.9847     3.9847    -0.0000
 23 C      6.0540     6.0000    -0.0540     3.9891     3.9891     0.0000
 24 C      5.7897     6.0000     0.2103     3.8250     3.8250    -0.0000
 25 C      5.8861     6.0000     0.1139     3.8903     3.8903     0.0000
 26 C      6.0708     6.0000    -0.0708     3.9067     3.9067    -0.0000
 27 C      5.7690     6.0000     0.2310     3.8914     3.8914    -0.0000
 28 C      6.0484     6.0000    -0.0484     3.9878     3.9878     0.0000
 29 C      6.1898     6.0000    -0.1898     3.7305     3.7305    -0.0000
 30 C      5.7688     6.0000     0.2312     3.7898     3.7898    -0.0000
 31 C      5.7972     6.0000     0.2028     3.8293     3.8293    -0.0000
 32 C      6.0664     6.0000    -0.0664     3.9152     3.9152    -0.0000
 33 C      6.0883     6.0000    -0.0883     3.9858     3.9858    -0.0000
 34 C      6.0509     6.0000    -0.0509     3.9944     3.9944    -0.0000
 35 C      5.8035     6.0000     0.1965     3.8272     3.8272     0.0000
 36 C      5.8837     6.0000     0.1163     3.8977     3.8977     0.0000
 37 C      6.0680     6.0000    -0.0680     3.9169     3.9169    -0.0000
 38 C      5.7615     6.0000     0.2385     3.7972     3.7972    -0.0000
 39 C      6.0621     6.0000    -0.0621     3.9938     3.9938    -0.0000
 40 C      6.1944     6.0000    -0.1944     3.7449     3.7449    -0.0000
 41 C      5.7795     6.0000     0.2205     3.8796     3.8796     0.0000
 42 C      5.7931     6.0000     0.2069     3.8288     3.8288    -0.0000
 43 C      6.0743     6.0000    -0.0743     3.9043     3.9043     0.0000
 44 C      6.0887     6.0000    -0.0887     3.9846     3.9846    -0.0000
 45 C      6.0479     6.0000    -0.0479     3.9938     3.9938    -0.0000
 46 C      5.8015     6.0000     0.1985     3.8237     3.8237     0.0000
 47 C      5.8843     6.0000     0.1157     3.8940     3.8940     0.0000
 48 C      6.0765     6.0000    -0.0765     3.9019     3.9019    -0.0000
 49 C      5.7792     6.0000     0.2208     3.8779     3.8779    -0.0000
 50 C      6.0571     6.0000    -0.0571     3.9899     3.9899    -0.0000
 51 C      6.1886     6.0000    -0.1886     3.7377     3.7377    -0.0000
 52 H      0.9382     1.0000     0.0618     0.9843     0.9843    -0.0000
 53 H      1.0123     1.0000    -0.0123     0.9999     0.9999     0.0000
 54 H      0.9474     1.0000     0.0526     1.0082     1.0082    -0.0000
 55 H      0.9392     1.0000     0.0608     0.9853     0.9853     0.0000
 56 H      0.9336     1.0000     0.0664     0.9720     0.9720     0.0000
 57 H      0.9377     1.0000     0.0623     0.9844     0.9844     0.0000
 58 H      0.9392     1.0000     0.0608     0.9858     0.9858    -0.0000
 59 H      1.0174     1.0000    -0.0174     0.9980     0.9980     0.0000
 60 H      0.9496     1.0000     0.0504     1.0071     1.0071    -0.0000
 61 H      0.8257     1.0000     0.1743     1.0429     1.0429     0.0000
 62 H      0.8288     1.0000     0.1712     1.0434     1.0434    -0.0000
 63 H      0.9439     1.0000     0.0561     0.9856     0.9856    -0.0000
 64 H      1.0238     1.0000    -0.0238     0.9948     0.9948    -0.0000
 65 H      0.9539     1.0000     0.0461     1.0085     1.0085     0.0000
 66 H      0.9424     1.0000     0.0576     0.9848     0.9848     0.0000
 67 H      0.9381     1.0000     0.0619     0.9719     0.9719     0.0000
 68 H      0.9420     1.0000     0.0580     0.9867     0.9867     0.0000
 69 H      0.9407     1.0000     0.0593     0.9830     0.9830     0.0000
 70 H      1.0218     1.0000    -0.0218     0.9954     0.9954    -0.0000
 71 H      0.9520     1.0000     0.0480     1.0070     1.0070     0.0000
 72 H      0.9497     1.0000     0.0503     0.9854     0.9854    -0.0000
 73 H      1.0166     1.0000    -0.0166     0.9978     0.9978    -0.0000
 74 H      0.9589     1.0000     0.0411     1.0096     1.0096    -0.0000
 75 H      0.9507     1.0000     0.0493     0.9860     0.9860     0.0000
 76 H      0.9432     1.0000     0.0568     0.9712     0.9712    -0.0000
 77 H      0.9458     1.0000     0.0542     0.9848     0.9848    -0.0000
 78 H      0.9465     1.0000     0.0535     0.9843     0.9843    -0.0000
 79 H      1.0134     1.0000    -0.0134     1.0001     1.0001    -0.0000
 80 H      0.9586     1.0000     0.0414     1.0069     1.0069    -0.0000
 81 H      0.9469     1.0000     0.0531     0.9853     0.9853    -0.0000
 82 H      1.0228     1.0000    -0.0228     0.9947     0.9947    -0.0000
 83 H      0.9562     1.0000     0.0438     1.0097     1.0097    -0.0000
 84 H      0.9472     1.0000     0.0528     0.9858     0.9858     0.0000
 85 H      0.9418     1.0000     0.0582     0.9715     0.9715    -0.0000
 86 H      0.9432     1.0000     0.0568     0.9841     0.9841    -0.0000
 87 H      0.9437     1.0000     0.0563     0.9855     0.9855    -0.0000
 88 H      1.0245     1.0000    -0.0245     0.9934     0.9934    -0.0000
 89 H      0.9569     1.0000     0.0431     1.0068     1.0068    -0.0000

  Mayer bond orders larger than 0.100000
B(  0-C ,  1-N ) :   1.1367 B(  0-C , 17-C ) :   1.6072 B(  0-C , 52-H ) :   0.9691 
B(  1-N ,  8-C ) :   1.1326 B(  1-N , 10-C ) :   0.9530 B(  2-C , 12-C ) :   1.5457 
B(  2-C , 16-C ) :   1.3126 B(  2-C , 53-H ) :   0.9781 B(  3-N , 14-C ) :   1.1949 
B(  3-N , 16-C ) :   1.1984 B(  3-N , 61-H ) :   0.8973 B(  4-C ,  6-C ) :   1.2878 
B(  4-C , 17-C ) :   1.2905 B(  4-C , 18-C ) :   1.2119 B(  5-N , 19-C ) :   1.4028 
B(  5-N , 27-C ) :   1.4179 B(  6-C ,  8-C ) :   1.6089 B(  6-C , 54-H ) :   0.9710 
B(  7-N , 30-C ) :   1.1920 B(  7-N , 38-C ) :   1.2053 B(  7-N , 62-H ) :   0.8993 
B(  8-C , 55-H ) :   0.9694 B(  9-N , 41-C ) :   1.4178 B(  9-N , 49-C ) :   1.4069 
B( 10-C , 56-H ) :   0.9763 B( 10-C , 57-H ) :   0.9815 B( 10-C , 58-H ) :   0.9832 
B( 11-N , 20-C ) :   1.1189 B( 11-N , 24-C ) :   1.1282 B( 11-N , 25-C ) :   0.9584 
B( 12-C , 14-C ) :   1.3125 B( 12-C , 59-H ) :   0.9773 B( 13-N , 31-C ) :   1.1100 
B( 13-N , 35-C ) :   1.1033 B( 13-N , 36-C ) :   0.9667 B( 14-C , 18-C ) :   1.2116 
B( 15-N , 42-C ) :   1.1205 B( 15-N , 46-C ) :   1.1087 B( 15-N , 47-C ) :   0.9626 
B( 16-C , 51-C ) :   1.2098 B( 17-C , 60-H ) :   0.9716 B( 18-C , 19-C ) :   1.2408 
B( 19-C , 21-C ) :   1.1967 B( 20-C , 28-C ) :   1.6230 B( 20-C , 63-H ) :   0.9704 
B( 21-C , 26-C ) :   1.6534 B( 21-C , 64-H ) :   0.9722 B( 22-C , 23-C ) :   1.2773 
B( 22-C , 28-C ) :   1.2774 B( 22-C , 29-C ) :   1.2368 B( 23-C , 24-C ) :   1.6212 
B( 23-C , 65-H ) :   0.9712 B( 24-C , 66-H ) :   0.9690 B( 25-C , 67-H ) :   0.9762 
B( 25-C , 68-H ) :   0.9830 B( 25-C , 69-H ) :   0.9820 B( 26-C , 27-C ) :   1.1994 
B( 26-C , 70-H ) :   0.9739 B( 27-C , 29-C ) :   1.2345 B( 28-C , 71-H ) :   0.9712 
B( 29-C , 30-C ) :   1.1977 B( 30-C , 32-C ) :   1.3267 B( 31-C , 39-C ) :   1.6470 
B( 31-C , 72-H ) :   0.9701 B( 32-C , 37-C ) :   1.5314 B( 32-C , 73-H ) :   0.9775 
B( 33-C , 34-C ) :   1.2615 B( 33-C , 39-C ) :   1.2552 B( 33-C , 40-C ) :   1.2818 
B( 34-C , 35-C ) :   1.6446 B( 34-C , 74-H ) :   0.9707 B( 35-C , 75-H ) :   0.9701 
B( 36-C , 76-H ) :   0.9761 B( 36-C , 77-H ) :   0.9823 B( 36-C , 78-H ) :   0.9833 
B( 37-C , 38-C ) :   1.3266 B( 37-C , 79-H ) :   0.9782 B( 38-C , 40-C ) :   1.1966 
B( 39-C , 80-H ) :   0.9717 B( 40-C , 41-C ) :   1.2046 B( 41-C , 43-C ) :   1.2243 
B( 42-C , 50-C ) :   1.6340 B( 42-C , 81-H ) :   0.9696 B( 43-C , 48-C ) :   1.6273 
B( 43-C , 82-H ) :   0.9744 B( 44-C , 45-C ) :   1.2756 B( 44-C , 50-C ) :   1.2634 
B( 44-C , 51-C ) :   1.2503 B( 45-C , 46-C ) :   1.6306 B( 45-C , 83-H ) :   0.9709 
B( 46-C , 84-H ) :   0.9703 B( 47-C , 85-H ) :   0.9761 B( 47-C , 86-H ) :   0.9827 
B( 47-C , 87-H ) :   0.9827 B( 48-C , 49-C ) :   1.2220 B( 48-C , 88-H ) :   0.9734 
B( 49-C , 51-C ) :   1.2150 B( 50-C , 89-H ) :   0.9716 

-------
TIMINGS
-------

Total SCF time: 0 days 0 hours 27 min 53 sec 

Total time                  ....    1673.755 sec
Sum of individual times     ....    1668.929 sec  ( 99.7%)

Fock matrix formation       ....    1644.020 sec  ( 98.2%)
Diagonalization             ....       7.047 sec  (  0.4%)
Density matrix formation    ....       0.712 sec  (  0.0%)
Population analysis         ....       0.563 sec  (  0.0%)
Initial guess               ....       2.083 sec  (  0.1%)
Orbital Transformation      ....       0.000 sec  (  0.0%)
Orbital Orthonormalization  ....       0.000 sec  (  0.0%)
DIIS solution               ....       3.671 sec  (  0.2%)
SOSCF solution              ....       9.773 sec  (  0.6%)

Maximum memory used throughout the entire SCF-calculation: 302.5 MB


           ************************************************************
           *        Program running with 16 parallel MPI-processes    *
           *              working on a common directory               *
           ************************************************************

------------------------------------------------------------------------------
                                ORCA  MP2 
------------------------------------------------------------------------------

Freezing NCore=104 chemical core electrons

----------
MP2 ENERGY (disk based algorithm)
----------

Dimension of the basis                    ...  918
Memory devoted to MP2                     ... 2000 MB   
Data format for buffers                   ... DOUBLE
Compression type for matrix containers    ... UNCOMPRESSED

-------------------------------
PARTIAL EXCHANGE TRANSFORMATION
-------------------------------

Transformation type                        ... one-operator
Generation of integrals (i,mue|j,nue)      ... ON
Generation of integrals (mue,kappa|nue,tau)... OFF
Generation of integrals (i,mue|a,nue)      ... OFF
Dimension of the basis                     ...  918
Number of internal MOs                     ...  127 (  52- 178)
Pair cutoff                                ... 2.500e-12 Eh
Number of AO pairs in the trafo            ... 421821
Total Number of distinct AO pairs          ... 421821
Memory devoted for trafo                   ... 2000.0 MB 
Max. Number of MO pairs treated together   ...  311      
Number Format for Storage                  ... Double (8 Byte)
Integral package used                      ... LIBINT

Starting integral evaluation:
    ... done with AO integral generation
Closing buffer AOK     (38.14 GB; CompressionRatio= 1.33)
Collecting buffer AOK 
Number of MO pairs included in the trafo   ... 8128
------------------------
SORTING OF (i,mue|j,nue)
------------------------

IBATCH = 1 of  2
IBATCH = 2 of  2
Closing buffer KAO     (51.03 GB; CompressionRatio= 1.00)
Collecting buffer KAO 
N(AO-Batches) Done                         ...  85446999 
N(AO-Batches) Skipped                      ...  82310015 
N(IJ)-pairs Skipped                        ...         0 
TOTAL TIME for half transformation         ...  3171.412 sec
AO-integral generation                     ...   192.071 sec
Half transformation                        ...   380.351 sec
K-integral sorting                         ...  2431.645 sec
Process 10:   Internal MO 132
Process 13:   Internal MO 156

Finished integral transformation - now doing MP2 part

OPERATOR COMBINATION   0   0: ij=( 52..178, 52..178)
Process  4:   Internal MO  84
Process  1:   Internal MO  60
Process  7:   Internal MO 108
Process  0:   Internal MO  54
Process  0:   Internal MO  57
Process  1:   Internal MO  63
Process  2:   Internal MO  69
Process  3:   Internal MO  78
Process  5:   Internal MO  93
Process  8:   Internal MO 117
Process  1:   Internal MO  66
Process  6:   Internal MO 102
Process 11:   Internal MO 141
Process 14:   Internal MO 165
Process  2:   Internal MO  72
Process  9:   Internal MO 126
Process  4:   Internal MO  87
Process  3:   Internal MO  81
Process  2:   Internal MO  75
Process  7:   Internal MO 111
Process  5:   Internal MO  96
Process 12:   Internal MO 150
Process 15:   Internal MO 174
Process 10:   Internal MO 135
Process  6:   Internal MO 105
Process  4:   Internal MO  90
Process  8:   Internal MO 120
Process 13:   Internal MO 159
Process  5:   Internal MO  99
Process  7:   Internal MO 114
Process  9:   Internal MO 129
Process 11:   Internal MO 144
Process 14:   Internal MO 168
Process  8:   Internal MO 123
Process 10:   Internal MO 138
Process 12:   Internal MO 153
Process 15:   Internal MO 177
Process 13:   Internal MO 162
Process 11:   Internal MO 147
Process 14:   Internal MO 171
-----------------------------------------------
 MP2 CORRELATION ENERGY   :     -7.289167999 Eh
-----------------------------------------------


-------
TIMINGS
-------
Total time                : 3732.047 sec
Integral trafo            : 3173.633 sec ( 85.0%)
K(i,j)                    :   10.043 sec (  0.3%)
T(i,j)                    :    0.501 sec (  0.0%)

---------------------------------------
MP2 TOTAL ENERGY:    -2130.907371433 Eh
---------------------------------------

Maximum memory used throughout the entire MP2-calculation: 2275.2 MB

-------------------------   --------------------
FINAL SINGLE POINT ENERGY     -2130.907371433092
-------------------------   --------------------


                            ***************************************
                            *     ORCA property calculations      *
                            ***************************************


  WARNING: The energy has been calculated at the MP2 level but the densities
           used in the property calculations are still SCF densities
           MP2 response densities have not been calculated 
           use %mp2 Density relaxed end
           or  %mp2 Density unrelaxed end

                                    ---------------------
                                    Active property flags
                                    ---------------------
   (+) Dipole Moment


------------------------------------------------------------------------------
                       ORCA ELECTRIC PROPERTIES CALCULATION
------------------------------------------------------------------------------

Dipole Moment Calculation                       ... on
Quadrupole Moment Calculation                   ... off
Polarizability Calculation                      ... off
GBWName                                         ... /scratch/allen/tmpyp4_amber_gaff2/conf1/conf1/Conf67.orca.gbw
Electron density                                ... /scratch/allen/tmpyp4_amber_gaff2/conf1/conf1/Conf67.orca.scfp
The origin for moment calculation is the CENTER OF MASS  = ( 0.000790, -0.003612  0.004098)

-------------
DIPOLE MOMENT
-------------
                                X             Y             Z
Electronic contribution:     -1.37774       0.97533      -0.14503
Nuclear contribution   :     -0.04484       0.15531       0.18261
                        -----------------------------------------
Total Dipole Moment    :     -1.42258       1.13064       0.03758
                        -----------------------------------------
Magnitude (a.u.)       :      1.81755
Magnitude (Debye)      :      4.61985



--------------------
Rotational spectrum 
--------------------
 
Rotational constants in cm-1:     0.001499     0.001473     0.000762 
Rotational constants in MHz :    44.929329    44.168445    22.852990 

 Dipole components along the rotational axes: 
x,y,z [a.u.] :    -1.727742    -0.563261     0.033792 
x,y,z [Debye]:    -4.391572    -1.431696     0.085894 

 

Timings for individual modules:

Sum of individual times         ...     5426.018 sec (=  90.434 min)
GTO integral calculation        ...        3.244 sec (=   0.054 min)   0.1 %
SCF iterations                  ...     1674.821 sec (=  27.914 min)  30.9 %
MP2 module                      ...     3747.953 sec (=  62.466 min)  69.1 %
                             ****ORCA TERMINATED NORMALLY****
TOTAL RUN TIME: 0 days 1 hours 30 minutes 29 seconds 438 msec
# of primitive gaussian functions

