
                                 *****************
                                 * O   R   C   A *
                                 *****************

                                            #,                                       
                                            ###                                      
                                            ####                                     
                                            #####                                    
                                            ######                                   
                                           ########,                                 
                                     ,,################,,,,,                         
                               ,,#################################,,                 
                          ,,##########################################,,             
                       ,#########################################, ''#####,          
                    ,#############################################,,   '####,        
                  ,##################################################,,,,####,       
                ,###########''''           ''''###############################       
              ,#####''   ,,,,##########,,,,          '''####'''          '####       
            ,##' ,,,,###########################,,,                        '##       
           ' ,,###''''                  '''############,,,                           
         ,,##''                                '''############,,,,        ,,,,,,###''
      ,#''                                            '''#######################'''  
     '                                                          ''''####''''         
             ,#######,   #######,   ,#######,      ##                                
            ,#'     '#,  ##    ##  ,#'     '#,    #''#        ######   ,####,        
            ##       ##  ##   ,#'  ##            #'  '#       #        #'  '#        
            ##       ##  #######   ##           ,######,      #####,   #    #        
            '#,     ,#'  ##    ##  '#,     ,#' ,#      #,         ##   #,  ,#        
             '#######'   ##     ##  '#######'  #'      '#     #####' # '####'        



                  #######################################################
                  #                        -***-                        #
                  #          Department of theory and spectroscopy      #
                  #    Directorship and core code : Frank Neese         #
                  #        Max Planck Institute fuer Kohlenforschung    #
                  #                Kaiser Wilhelm Platz 1               #
                  #                 D-45470 Muelheim/Ruhr               #
                  #                      Germany                        #
                  #                                                     #
                  #                  All rights reserved                #
                  #                        -***-                        #
                  #######################################################


                         Program Version 5.0.4 -  RELEASE  -


 With contributions from (in alphabetic order):
   Daniel Aravena         : Magnetic Suceptibility
   Michael Atanasov       : Ab Initio Ligand Field Theory (pilot matlab implementation)
   Alexander A. Auer      : GIAO ZORA, VPT2 properties, NMR spectrum
   Ute Becker             : Parallelization
   Giovanni Bistoni       : ED, misc. LED, open-shell LED, HFLD
   Martin Brehm           : Molecular dynamics
   Dmytro Bykov           : SCF Hessian
   Vijay G. Chilkuri      : MRCI spin determinant printing, contributions to CSF-ICE
   Dipayan Datta          : RHF DLPNO-CCSD density
   Achintya Kumar Dutta   : EOM-CC, STEOM-CC
   Dmitry Ganyushin       : Spin-Orbit,Spin-Spin,Magnetic field MRCI
   Miquel Garcia          : C-PCM and meta-GGA Hessian, CC/C-PCM, Gaussian charge scheme
   Yang Guo               : DLPNO-NEVPT2, F12-NEVPT2, CIM, IAO-localization
   Andreas Hansen         : Spin unrestricted coupled pair/coupled cluster methods
   Benjamin Helmich-Paris : MC-RPA, TRAH-SCF, COSX integrals
   Lee Huntington         : MR-EOM, pCC
   Robert Izsak           : Overlap fitted RIJCOSX, COSX-SCS-MP3, EOM
   Marcus Kettner         : VPT2
   Christian Kollmar      : KDIIS, OOCD, Brueckner-CCSD(T), CCSD density, CASPT2, CASPT2-K
   Simone Kossmann        : Meta GGA functionals, TD-DFT gradient, OOMP2, MP2 Hessian
   Martin Krupicka        : Initial AUTO-CI
   Lucas Lang             : DCDCAS
   Marvin Lechner         : AUTO-CI (C++ implementation), FIC-MRCC
   Dagmar Lenk            : GEPOL surface, SMD
   Dimitrios Liakos       : Extrapolation schemes; Compound Job, initial MDCI parallelization
   Dimitrios Manganas     : Further ROCIS development; embedding schemes
   Dimitrios Pantazis     : SARC Basis sets
   Anastasios Papadopoulos: AUTO-CI, single reference methods and gradients
   Taras Petrenko         : DFT Hessian,TD-DFT gradient, ASA, ECA, R-Raman, ABS, FL, XAS/XES, NRVS
   Peter Pinski           : DLPNO-MP2, DLPNO-MP2 Gradient
   Christoph Reimann      : Effective Core Potentials
   Marius Retegan         : Local ZFS, SOC
   Christoph Riplinger    : Optimizer, TS searches, QM/MM, DLPNO-CCSD(T), (RO)-DLPNO pert. Triples
   Tobias Risthaus        : Range-separated hybrids, TD-DFT gradient, RPA, STAB
   Michael Roemelt        : Original ROCIS implementation
   Masaaki Saitow         : Open-shell DLPNO-CCSD energy and density
   Barbara Sandhoefer     : DKH picture change effects
   Avijit Sen             : IP-ROCIS
   Kantharuban Sivalingam : CASSCF convergence, NEVPT2, FIC-MRCI
   Bernardo de Souza      : ESD, SOC TD-DFT
   Georgi Stoychev        : AutoAux, RI-MP2 NMR, DLPNO-MP2 response
   Willem Van den Heuvel  : Paramagnetic NMR
   Boris Wezisla          : Elementary symmetry handling
   Frank Wennmohs         : Technical directorship


 We gratefully acknowledge several colleagues who have allowed us to
 interface, adapt or use parts of their codes:
   Stefan Grimme, W. Hujo, H. Kruse, P. Pracht,  : VdW corrections, initial TS optimization,
                  C. Bannwarth, S. Ehlert          DFT functionals, gCP, sTDA/sTD-DF
   Ed Valeev, F. Pavosevic, A. Kumar             : LibInt (2-el integral package), F12 methods
   Garnet Chan, S. Sharma, J. Yang, R. Olivares  : DMRG
   Ulf Ekstrom                                   : XCFun DFT Library
   Mihaly Kallay                                 : mrcc  (arbitrary order and MRCC methods)
   Jiri Pittner, Ondrej Demel                    : Mk-CCSD
   Frank Weinhold                                : gennbo (NPA and NBO analysis)
   Christopher J. Cramer and Donald G. Truhlar   : smd solvation model
   Lars Goerigk                                  : TD-DFT with DH, B97 family of functionals
   V. Asgeirsson, H. Jonsson                     : NEB implementation
   FAccTs GmbH                                   : IRC, NEB, NEB-TS, DLPNO-Multilevel, CI-OPT
                                                   MM, QMMM, 2- and 3-layer-ONIOM, Crystal-QMMM,
                                                   LR-CPCM, SF, NACMEs, symmetry and pop. for TD-DFT,
                                                   nearIR, NL-DFT gradient (VV10), updates on ESD,
                                                   ML-optimized integration grids
   S Lehtola, MJT Oliveira, MAL Marques          : LibXC Library
   Liviu Ungur et al                             : ANISO software


 Your calculation uses the libint2 library for the computation of 2-el integrals
 For citations please refer to: http://libint.valeyev.net

 Your ORCA version has been built with support for libXC version: 5.1.0
 For citations please refer to: https://tddft.org/programs/libxc/

 This ORCA versions uses:
   CBLAS   interface :  Fast vector & matrix operations
   LAPACKE interface :  Fast linear algebra routines
   SCALAPACK package :  Parallel linear algebra routines
   Shared memory     :  Shared parallel matrices
   BLAS/LAPACK       :  OpenBLAS 0.3.15  USE64BITINT DYNAMIC_ARCH NO_AFFINITY Sandybridge SINGLE_THREADED
        Core in use  :  Sandybridge
   Copyright (c) 2011-2014, The OpenBLAS Project


================================================================================

----- Orbital basis set information -----
Your calculation utilizes the basis: cc-pVDZ 
       H, B-Ne : Obtained from the ccRepo (grant-hill.group.shef.ac.uk/ccrepo) Feb. 2017
                 T. H. Dunning, Jr., J. Chem. Phys. 90, 1007 (1989)
            He : Obtained from the ccRepo (grant-hill.group.shef.ac.uk/ccrepo) Feb. 2017
                 D. E. Woon, T. H. Dunning, Jr., J. Chem. Phys. 100, 2975 (1994)
  Li-Be, Na-Mg : Obtained from the ccRepo (grant-hill.group.shef.ac.uk/ccrepo) Feb. 2017
                 B. P. Prascher, D. E. Woon, K. A. Peterson, T. H. Dunning, Jr., A. K. Wilson, Theor. Chem. Acc. 128, 69 (2011)
         Al-Ar : Obtained from the ccRepo (grant-hill.group.shef.ac.uk/ccrepo) Feb. 2017
                 D. E. Woon, T. H. Dunning, Jr., J. Chem. Phys. 98, 1358 (1993)
            Ca : Obtained from the Peterson Research Group Website (tyr0.chem.wsu.edu/~kipeters) Feb. 2017
                 J. Koput, K. A. Peterson, J. Phys. Chem. 106, 9595 (2002)
         Sc-Zn : Obtained from the ccRepo (grant-hill.group.shef.ac.uk/ccrepo) Feb. 2017
                 N. B. Balabanov, K. A. Peterson, J. Chem. Phys. 123, 064107 (2005)
                 N. B. Balabanov, K. A. Peterson, J. Chem. Phys. 125, 074110 (2006)
         Ga-Kr : Obtained from the ccRepo (grant-hill.group.shef.ac.uk/ccrepo) Feb. 2017
                 A. K. Wilson, D. E. Woon, K. A. Peterson, T. H. Dunning, Jr., J. Chem. Phys. 110, 7667 (1999)

================================================================================
                                        WARNINGS
                       Please study these warnings very carefully!
================================================================================


WARNING: No MP2 level density has been requested!
         To caclulate MP2 level properties use
         %mp2 Density relaxed end
         or
         %mp2 Density unrelaxed end

WARNING: Post HF methods need fully converged wavefunctions
  ===> : Setting SCFConvForced true
         You can overwrite this default with %scf ConvForced false 


INFO   : the flag for use of the SHARK integral package has been found!

================================================================================
                                       INPUT FILE
================================================================================
NAME = /scratch/allen/tmpyp4_amber_gaff2/2.Mdgx/conf11/conf11/Conf4.orca
|  1> ! PAL2
|  2> ! mp2 cc-pvdz TightSCF  NoKeepInts
|  3> 
|  4> %scf
|  5>   MaxCore 2000
|  6> end
|  7> %mp2
|  8>   MaxCore 2000
|  9> end
| 10> * xyz 0 1
| 11>    C       -3.03400         6.49500         0.05300
| 12>    C        1.47400         4.04100         0.05700
| 13>    C       -2.80200         4.09300         0.04900
| 14>    C       -4.20200         4.00900         0.11000
| 15>    C       -4.96500         5.15900         0.13800
| 16>    C       -5.22800         7.59200         0.10500
| 17>    C        0.13200         4.30700         0.06100
| 18>    C       -0.56900         3.05600         0.04700
| 19>    C        1.64900         2.61800         0.02300
| 20>    C       -2.22900         5.37400         0.01800
| 21>    N       -4.38000         6.37900         0.11300
| 22>    N        0.38800         2.06700         0.02500
| 23>    N       -2.01000         0.39500        -0.07500
| 24>    N       -0.38800        -2.07400        -0.02700
| 25>    N        2.01000        -0.40100         0.06500
| 26>    C       -1.96000         2.86100         0.02400
| 27>    C       -2.62300         1.61500        -0.01800
| 28>    C       -5.57300        -4.32900         1.06600
| 29>    C       -4.07300         1.47100         0.05600
| 30>    C       -4.10600        -2.75600        -0.02600
| 31>    C       -4.99500        -2.75700        -1.11100
| 32>    C       -6.13200        -3.54200        -1.07600
| 33>    C       -7.65100        -5.11300         0.04000
| 34>    C       -4.32400         0.14100         0.03700
| 35>    C       -3.02500        -0.52000        -0.04800
| 36>    C       -4.42200        -3.56600         1.07500
| 37>    N       -6.40700        -4.31300         0.00100
| 38>    C       -2.86700        -1.92200        -0.04000
| 39>    C       -1.65000        -2.62400        -0.02700
| 40>    C        3.56800        -6.14200        -1.04000
| 41>    C       -1.47600        -4.04900        -0.03400
| 42>    C        2.80300        -4.09900        -0.00800
| 43>    C        3.65700        -4.38400         1.06900
| 44>    C        4.42700        -5.53000         1.05900
| 45>    C        5.24500        -7.58800         0.01400
| 46>    C       -0.13400        -4.31500        -0.02200
| 47>    C        0.56800        -3.06400        -0.02700
| 48>    C        2.77500        -5.01200        -1.07400
| 49>    N        4.37600        -6.39100         0.01700
| 50>    C        1.95900        -2.86900        -0.00900
| 51>    C        2.62100        -1.62200         0.00900
| 52>    C        5.54300         4.33900        -1.13000
| 53>    C        4.07000        -1.47900        -0.09400
| 54>    C        4.10400         2.75100        -0.02100
| 55>    C        5.02700         2.72900         1.03600
| 56>    C        6.16600         3.50900         0.97800
| 57>    C        7.61900         5.15300        -0.11500
| 58>    C        4.32100        -0.14800        -0.09200
| 59>    C        3.02500         0.51400         0.01500
| 60>    C        4.38700         3.58200        -1.11500
| 61>    C        2.86600         1.91600         0.01300
| 62>    N        6.41300         4.29600        -0.09500
| 63>    H       -2.63500         7.50200         0.04300
| 64>    H        2.27400         4.76600         0.08100
| 65>    H       -4.70300         3.04900         0.12700
| 66>    H       -6.04700         5.14400         0.17600
| 67>    H       -5.51100         7.82200        -0.92500
| 68>    H       -6.11800         7.40200         0.70500
| 69>    H       -4.66000         8.41900         0.53000
| 70>    H       -0.33200         5.28200         0.06900
| 71>    H       -1.15300         5.50500        -0.01600
| 72>    H        0.18200         1.07200         0.00500
| 73>    H       -0.18300        -1.08000        -0.02100
| 74>    H       -5.86400        -4.96200         1.89500
| 75>    H       -4.79400         2.27200         0.13900
| 76>    H       -4.80000        -2.16000        -1.99400
| 77>    H       -6.84100        -3.58200        -1.89300
| 78>    H       -8.42800        -4.53600         0.54600
| 79>    H       -7.95600        -5.33700        -0.98100
| 80>    H       -7.45600        -6.03700         0.58400
| 81>    H       -5.28700        -0.34400         0.10000
| 82>    H       -3.78000        -3.60100         1.94700
| 83>    H        3.58700        -6.86800        -1.84300
| 84>    H       -2.27600        -4.77400        -0.05000
| 85>    H        3.71400        -3.72400         1.92600
| 86>    H        5.09200        -5.79500         1.87100
| 87>    H        6.20500        -7.32900        -0.43900
| 88>    H        5.39300        -7.91700         1.04200
| 89>    H        4.75900        -8.37300        -0.56400
| 90>    H        0.32900        -5.29000        -0.00800
| 91>    H        2.14600        -4.84200        -1.94000
| 92>    H        5.80800         4.98600        -1.95600
| 93>    H        4.78800        -2.28100        -0.18500
| 94>    H        4.86000         2.11400         1.91200
| 95>    H        6.90100         3.53100         1.77200
| 96>    H        7.38300         6.10900         0.35600
| 97>    H        8.41400         4.65200         0.43500
| 98>    H        7.92100         5.31000        -1.15000
| 99>    H        5.28300         0.33600        -0.17900
|100>    H        3.72000         3.63200        -1.96700
|101> *
|102> 
|103>                          ****END OF INPUT****
================================================================================

                       ****************************
                       * Single Point Calculation *
                       ****************************

---------------------------------
CARTESIAN COORDINATES (ANGSTROEM)
---------------------------------
  C     -3.034000    6.495000    0.053000
  C      1.474000    4.041000    0.057000
  C     -2.802000    4.093000    0.049000
  C     -4.202000    4.009000    0.110000
  C     -4.965000    5.159000    0.138000
  C     -5.228000    7.592000    0.105000
  C      0.132000    4.307000    0.061000
  C     -0.569000    3.056000    0.047000
  C      1.649000    2.618000    0.023000
  C     -2.229000    5.374000    0.018000
  N     -4.380000    6.379000    0.113000
  N      0.388000    2.067000    0.025000
  N     -2.010000    0.395000   -0.075000
  N     -0.388000   -2.074000   -0.027000
  N      2.010000   -0.401000    0.065000
  C     -1.960000    2.861000    0.024000
  C     -2.623000    1.615000   -0.018000
  C     -5.573000   -4.329000    1.066000
  C     -4.073000    1.471000    0.056000
  C     -4.106000   -2.756000   -0.026000
  C     -4.995000   -2.757000   -1.111000
  C     -6.132000   -3.542000   -1.076000
  C     -7.651000   -5.113000    0.040000
  C     -4.324000    0.141000    0.037000
  C     -3.025000   -0.520000   -0.048000
  C     -4.422000   -3.566000    1.075000
  N     -6.407000   -4.313000    0.001000
  C     -2.867000   -1.922000   -0.040000
  C     -1.650000   -2.624000   -0.027000
  C      3.568000   -6.142000   -1.040000
  C     -1.476000   -4.049000   -0.034000
  C      2.803000   -4.099000   -0.008000
  C      3.657000   -4.384000    1.069000
  C      4.427000   -5.530000    1.059000
  C      5.245000   -7.588000    0.014000
  C     -0.134000   -4.315000   -0.022000
  C      0.568000   -3.064000   -0.027000
  C      2.775000   -5.012000   -1.074000
  N      4.376000   -6.391000    0.017000
  C      1.959000   -2.869000   -0.009000
  C      2.621000   -1.622000    0.009000
  C      5.543000    4.339000   -1.130000
  C      4.070000   -1.479000   -0.094000
  C      4.104000    2.751000   -0.021000
  C      5.027000    2.729000    1.036000
  C      6.166000    3.509000    0.978000
  C      7.619000    5.153000   -0.115000
  C      4.321000   -0.148000   -0.092000
  C      3.025000    0.514000    0.015000
  C      4.387000    3.582000   -1.115000
  C      2.866000    1.916000    0.013000
  N      6.413000    4.296000   -0.095000
  H     -2.635000    7.502000    0.043000
  H      2.274000    4.766000    0.081000
  H     -4.703000    3.049000    0.127000
  H     -6.047000    5.144000    0.176000
  H     -5.511000    7.822000   -0.925000
  H     -6.118000    7.402000    0.705000
  H     -4.660000    8.419000    0.530000
  H     -0.332000    5.282000    0.069000
  H     -1.153000    5.505000   -0.016000
  H      0.182000    1.072000    0.005000
  H     -0.183000   -1.080000   -0.021000
  H     -5.864000   -4.962000    1.895000
  H     -4.794000    2.272000    0.139000
  H     -4.800000   -2.160000   -1.994000
  H     -6.841000   -3.582000   -1.893000
  H     -8.428000   -4.536000    0.546000
  H     -7.956000   -5.337000   -0.981000
  H     -7.456000   -6.037000    0.584000
  H     -5.287000   -0.344000    0.100000
  H     -3.780000   -3.601000    1.947000
  H      3.587000   -6.868000   -1.843000
  H     -2.276000   -4.774000   -0.050000
  H      3.714000   -3.724000    1.926000
  H      5.092000   -5.795000    1.871000
  H      6.205000   -7.329000   -0.439000
  H      5.393000   -7.917000    1.042000
  H      4.759000   -8.373000   -0.564000
  H      0.329000   -5.290000   -0.008000
  H      2.146000   -4.842000   -1.940000
  H      5.808000    4.986000   -1.956000
  H      4.788000   -2.281000   -0.185000
  H      4.860000    2.114000    1.912000
  H      6.901000    3.531000    1.772000
  H      7.383000    6.109000    0.356000
  H      8.414000    4.652000    0.435000
  H      7.921000    5.310000   -1.150000
  H      5.283000    0.336000   -0.179000
  H      3.720000    3.632000   -1.967000

----------------------------
CARTESIAN COORDINATES (A.U.)
----------------------------
  NO LB      ZA    FRAG     MASS         X           Y           Z
   0 C     6.0000    0    12.011   -5.733429   12.273771    0.100155
   1 C     6.0000    0    12.011    2.785456    7.636383    0.107714
   2 C     6.0000    0    12.011   -5.295013    7.734649    0.092597
   3 C     6.0000    0    12.011   -7.940629    7.575912    0.207870
   4 C     6.0000    0    12.011   -9.382490    9.749097    0.260782
   5 C     6.0000    0    12.011   -9.879488   14.346801    0.198421
   6 C     6.0000    0    12.011    0.249444    8.139050    0.115273
   7 C     6.0000    0    12.011   -1.075254    5.775003    0.088817
   8 C     6.0000    0    12.011    3.116158    4.947303    0.043464
   9 C     6.0000    0    12.011   -4.212200   10.155388    0.034015
  10 N     7.0000    0    14.007   -8.277000   12.054563    0.213539
  11 N     7.0000    0    14.007    0.733214    3.906064    0.047243
  12 N     7.0000    0    14.007   -3.798350    0.746442   -0.141729
  13 N     7.0000    0    14.007   -0.733214   -3.919292   -0.051023
  14 N     7.0000    0    14.007    3.798350   -0.757780    0.122832
  15 C     6.0000    0    12.011   -3.703863    5.406506    0.045353
  16 C     6.0000    0    12.011   -4.956752    3.051908   -0.034015
  17 C     6.0000    0    12.011  -10.531444   -8.180624    2.014448
  18 C     6.0000    0    12.011   -7.696855    2.779787    0.105825
  19 C     6.0000    0    12.011   -7.759216   -5.208085   -0.049133
  20 C     6.0000    0    12.011   -9.439182   -5.209975   -2.099486
  21 C     6.0000    0    12.011  -11.587801   -6.693410   -2.033345
  22 C     6.0000    0    12.011  -14.458295   -9.662170    0.075589
  23 C     6.0000    0    12.011   -8.171176    0.266451    0.069920
  24 C     6.0000    0    12.011   -5.716422   -0.982658   -0.090707
  25 C     6.0000    0    12.011   -8.356369   -6.738763    2.031456
  26 N     7.0000    0    14.007  -12.107475   -8.150389    0.001890
  27 C     6.0000    0    12.011   -5.417845   -3.632054   -0.075589
  28 C     6.0000    0    12.011   -3.118048   -4.958641   -0.051023
  29 C     6.0000    0    12.011    6.742543  -11.606698   -1.965315
  30 C     6.0000    0    12.011   -2.789236   -7.651501   -0.064251
  31 C     6.0000    0    12.011    5.296902   -7.745987   -0.015118
  32 C     6.0000    0    12.011    6.910728   -8.284559    2.020117
  33 C     6.0000    0    12.011    8.365818  -10.450186    2.001220
  34 C     6.0000    0    12.011    9.911614  -14.339242    0.026456
  35 C     6.0000    0    12.011   -0.253223   -8.154168   -0.041574
  36 C     6.0000    0    12.011    1.073364   -5.790121   -0.051023
  37 C     6.0000    0    12.011    5.243990   -9.471307   -2.029566
  38 N     7.0000    0    14.007    8.269442  -12.077240    0.032125
  39 C     6.0000    0    12.011    3.701973   -5.421624   -0.017008
  40 C     6.0000    0    12.011    4.952972   -3.065136    0.017008
  41 C     6.0000    0    12.011   10.474752    8.199522   -2.135391
  42 C     6.0000    0    12.011    7.691185   -2.794905   -0.177634
  43 C     6.0000    0    12.011    7.755436    5.198637   -0.039684
  44 C     6.0000    0    12.011    9.499653    5.157063    1.957756
  45 C     6.0000    0    12.011   11.652051    6.631049    1.848152
  46 C     6.0000    0    12.011   14.397823    9.737759   -0.217319
  47 C     6.0000    0    12.011    8.165507   -0.279679   -0.173855
  48 C     6.0000    0    12.011    5.716422    0.971319    0.028346
  49 C     6.0000    0    12.011    8.290229    6.768999   -2.107045
  50 C     6.0000    0    12.011    5.415955    3.620715    0.024566
  51 N     7.0000    0    14.007   12.118814    8.118263   -0.179524
  52 H     1.0000    0     1.008   -4.979428   14.176725    0.081258
  53 H     1.0000    0     1.008    4.297237    9.006435    0.153068
  54 H     1.0000    0     1.008   -8.887382    5.761775    0.239995
  55 H     1.0000    0     1.008  -11.427174    9.720751    0.332592
  56 H     1.0000    0     1.008  -10.414281   14.781438   -1.747997
  57 H     1.0000    0     1.008  -11.561344   13.987753    1.332257
  58 H     1.0000    0     1.008   -8.806124   15.909604    1.001555
  59 H     1.0000    0     1.008   -0.627389    9.981533    0.130391
  60 H     1.0000    0     1.008   -2.178854   10.402942   -0.030236
  61 H     1.0000    0     1.008    0.343930    2.025786    0.009449
  62 H     1.0000    0     1.008   -0.345820   -2.040904   -0.039684
  63 H     1.0000    0     1.008  -11.081354   -9.376821    3.581031
  64 H     1.0000    0     1.008   -9.059347    4.293458    0.262672
  65 H     1.0000    0     1.008   -9.070685   -4.081808   -3.768114
  66 H     1.0000    0     1.008  -12.927616   -6.768999   -3.577252
  67 H     1.0000    0     1.008  -15.926612   -8.571798    1.031790
  68 H     1.0000    0     1.008  -15.034661  -10.085468   -1.853821
  69 H     1.0000    0     1.008  -14.089798  -11.408277    1.103600
  70 H     1.0000    0     1.008   -9.990982   -0.650066    0.188973
  71 H     1.0000    0     1.008   -7.143165   -6.804904    3.679297
  72 H     1.0000    0     1.008    6.778448  -12.978639   -3.482765
  73 H     1.0000    0     1.008   -4.301017   -9.021553   -0.094486
  74 H     1.0000    0     1.008    7.018443   -7.037340    3.639613
  75 H     1.0000    0     1.008    9.622485  -10.950963    3.535678
  76 H     1.0000    0     1.008   11.725751  -13.849803   -0.829590
  77 H     1.0000    0     1.008   10.191293  -14.960962    1.969095
  78 H     1.0000    0     1.008    8.993207  -15.822677   -1.065806
  79 H     1.0000    0     1.008    0.621720   -9.996651   -0.015118
  80 H     1.0000    0     1.008    4.055352   -9.150054   -3.666069
  81 H     1.0000    0     1.008   10.975529    9.422175   -3.696304
  82 H     1.0000    0     1.008    9.048009   -4.310465   -0.349599
  83 H     1.0000    0     1.008    9.184069    3.994881    3.613156
  84 H     1.0000    0     1.008   13.041000    6.672623    3.348595
  85 H     1.0000    0     1.008   13.951848   11.544337    0.672743
  86 H     1.0000    0     1.008   15.900156    8.791006    0.822031
  87 H     1.0000    0     1.008   14.968521   10.034446   -2.173185
  88 H     1.0000    0     1.008    9.983423    0.634948   -0.338261
  89 H     1.0000    0     1.008    7.029781    6.863485   -3.717091

--------------------------------
INTERNAL COORDINATES (ANGSTROEM)
--------------------------------
 C      0   0   0     0.000000000000     0.00000000     0.00000000
 C      1   0   0     5.132659739355     0.00000000     0.00000000
 C      1   2   0     2.413181302762    55.92093606     0.00000000
 C      3   1   2     1.403843652263    87.91460482   177.39323836
 C      4   3   1     1.380381469015   120.14992745     0.10653427
 C      5   4   3     2.447395963060   152.53935546     1.71043069
 C      2   1   3     1.368114030335    17.35225477   359.15053264
 C      7   2   1     1.434084376876   108.05010202   178.67125067
 C      2   1   3     1.434123425651   125.56052969     1.55707075
 C      1   2   3     1.380540111695    25.79597093   356.71244471
 N      1   2   3     1.352320967818   146.42320001     4.81379411
 N      9   2   1     1.376127174356   106.58526707   358.48209767
 N     12   9   2     2.925062050624   168.53581413   171.12065651
 N     13  12   9     2.954513327098    91.55032014    11.12112580
 N     14  13  12     2.925371258490    88.43092389   359.84326247
 C      8   7   2     1.404790019896   127.24786865   181.11170171
 C     13  12   9     1.366535034311    81.72106996   188.00453233
 C     14  13  12     5.758810554272    80.56209567   166.76250791
 C     17  13  12     1.459010623676   111.08861209   183.82872609
 C     18  14  13     2.412235892279    27.27532823    36.33507194
 C     20  18  14     1.402692767501    87.95206320   148.94598259
 C     21  20  18     1.382106725257   120.14573887   359.70382047
 C     18  14  13     2.446510985056   144.15733107    82.80075377
 C     19  17  13     1.353610726908   106.29293361   359.75308708
 C     13  12   9     1.366813447402   172.21332906    33.46711076
 C     18  14  13     1.380960173213    15.08449437   309.23336894
 N     22  21  20     1.352773077792   120.73759875     0.27865223
 C     25  13  17     1.410897586645   125.60330303   182.37774668
 C     14  13  12     1.376642291955    80.24689249   177.85461986
 C     14  13  12     5.764089607215   164.51507311   312.20821879
 C     29  14  13     1.435600919476   106.58649366   178.76395472
 C     30  14  13     2.413316804732    27.10625047    82.12560436
 C     32  30  14     1.403734305344    87.90059683   149.76154742
 C     33  32  30     1.380694028378   120.14881443   359.74174632
 C     34  33  32     2.448777858443   152.49203239     2.45173620
 C     31  29  14     1.368160809262   108.16950133     0.70383075
 C     14  13  12     1.376239804685   169.26375223   353.09862627
 C     30  14  13     1.380907310430    14.68948582   353.70041132
 N     34  33  32     1.352658863128   120.85575621     0.19603406
 C     37  14  29     1.404717053360   126.01551127   180.90772073
 C     15  14  13     1.366491126938    81.61824056   183.09049352
 C      2   1   3     4.249062720177   143.83569052   151.53040678
 C     41  15  14     1.459677704153   111.05201287   175.08990246
 C     42   2   1     2.412953791518    41.78584867   180.41432537
 C     44  42   2     1.403446472082    87.95153797   233.97558675
 C     45  44  42     1.381696421071   120.11137308     0.19721020
 C     42   2   1     2.450019795838   135.97209175    90.72917447
 C     43  41  15     1.354461516618   106.26758155     0.30894352
 C     15  14  13     1.367461151185   171.87382904   332.35056460
 C     42   2   1     1.381886391857    32.59078432   229.26960456
 C      9   2   1     1.404988612053   126.98745415   179.48643520
 N     42   2   1     1.352765315936   113.57249190   118.46576366
 H      1   2   3     1.083212813809    96.94768757   180.67229317
 H      2   1   3     1.079907866440   109.24930817   181.18841006
 H      4   3   1     1.083000461680   121.00140693   179.55721804
 H      5   4   3     1.082770982249   122.78736214   179.43872975
 H      6   5   4     1.092652277717   104.46580227   100.02782317
 H      6   5   4     1.090045870594    84.66600251   209.46778162
 H      6   5   4     1.089576982136   133.88921964   322.32986605
 H      7   2   1     1.079807853278   126.66122480   358.90966445
 H     60   7   2     0.854982455960   130.34573347   172.24789535
 H     12   9   2     1.016297692608   125.29023241   180.00180175
 H     14  13  12     1.014936943854    44.97226959   359.42596618
 H     18  14  13     1.082871645210   128.03556573   234.20482432
 H     55   4   3     0.782402709607   159.12348771     2.47291011
 H     21  20  18     1.083569563987   121.05669627   180.67006309
 H     22  21  20     1.082483256222   122.73097286   180.59748951
 H     23  18  14     1.092105306278   103.92715769   234.93429879
 H     23  18  14     1.088871893291   134.19244188    12.25587044
 H     23  18  14     1.089833473518    84.85857450   125.45241208
 H     24  19  17     1.080075460327   127.28078426   178.44613241
 H     26  18  14     1.083408048706   118.76995697   244.94906660
 H     30  14  13     1.082703098730   127.99711412   279.66882698
 H     31  29  14     1.079759695488   125.22293469   180.92530585
 H     33  32  30     1.083188810873   121.01964473   180.74284758
 H     34  33  32     1.082494341787   122.70821597   180.59516895
 H     35  34  33     1.092652735319   105.73575241    97.19771933
 H     35  34  33     1.089462711615    84.05943581   206.43036958
 H     35  34  33     1.089268102902   133.08365142   318.50306270
 H     36  31  29     1.079439669458   126.61599965   178.98859863
 H     38  30  73     1.083742127999   118.77264435   359.90091293
 H     42   2   1     1.082178358682   119.31790784   335.09729412
 H     43  41  15     1.080281907652   126.36969097   182.06329380
 H     45  44  42     1.083277434455   121.10105945   179.58025624
 H     46  45  44     1.082194529648   122.72144639   179.46906377
 H     47  42   2     1.091546151109   106.65128841   315.16475048
 H     47  42   2     1.088818625851   132.46019523    94.52397119
 H     47  42   2     1.089531091801    83.63838232   206.04504406
 H     48  43  41     1.080402239909   127.23657387   181.62955349
 H     50  42   2     1.083186502870   118.77001737    94.71359229

---------------------------
INTERNAL COORDINATES (A.U.)
---------------------------
 C      0   0   0     0.000000000000     0.00000000     0.00000000
 C      1   0   0     9.699321245985     0.00000000     0.00000000
 C      1   2   0     4.560251773719    55.92093606     0.00000000
 C      3   1   2     2.652880037621    87.91460482   177.39323836
 C      4   3   1     2.608542936778   120.14992745     0.10653427
 C      5   4   3     4.624908111447   152.53935546     1.71043069
 C      2   1   3     2.585360837309    17.35225477   359.15053264
 C      7   2   1     2.710026725231   108.05010202   178.67125067
 C      2   1   3     2.710100516721   125.56052969     1.55707075
 C      1   2   3     2.608842727997    25.79597093   356.71244471
 N      1   2   3     2.555516274335   146.42320001     4.81379411
 N      9   2   1     2.600503484979   106.58526707   358.48209767
 N     12   9   2     5.527566200405   168.53581413   171.12065651
 N     13  12   9     5.583221047236    91.55032014    11.12112580
 N     14  13  12     5.528150518591    88.43092389   359.84326247
 C      8   7   2     2.654668413270   127.24786865   181.11170171
 C     13  12   9     2.582376967257    81.72106996   188.00453233
 C     14  13  12    10.882574804710    80.56209567   166.76250791
 C     17  13  12     2.757130505230   111.08861209   183.82872609
 C     18  14  13     4.558465206823    27.27532823    36.33507194
 C     20  18  14     2.650705180609    87.95206320   148.94598259
 C     21  20  18     2.611803198586   120.14573887   359.70382047
 C     18  14  13     4.623235745386   144.15733107    82.80075377
 C     19  17  13     2.557953565794   106.29293361   359.75308708
 C     13  12   9     2.582903091751   172.21332906    33.46711076
 C     18  14  13     2.609636529225    15.08449437   309.23336894
 N     22  21  20     2.556370638369   120.73759875     0.27865223
 C     25  13  17     2.666210041769   125.60330303   182.37774668
 C     14  13  12     2.601476916169    80.24689249   177.85461986
 C     14  13  12    10.892550769017   164.51507311   312.20821879
 C     29  14  13     2.712892575415   106.58649366   178.76395472
 C     30  14  13     4.560507835333    27.10625047    82.12560436
 C     32  30  14     2.652673401891    87.90059683   149.76154742
 C     33  32  30     2.609133588376   120.14881443   359.74174632
 C     34  33  32     4.627519515267   152.49203239     2.45173620
 C     31  29  14     2.585449236669   108.16950133     0.70383075
 C     14  13  12     2.600716325456   169.26375223   353.09862627
 C     30  14  13     2.609536633043    14.68948582   353.70041132
 N     34  33  32     2.556154803934   120.85575621     0.19603406
 C     37  14  29     2.654530526499   126.01551127   180.90772073
 C     15  14  13     2.582293994346    81.61824056   183.09049352
 C      2   1   3     8.029564866989   143.83569052   151.53040678
 C     41  15  14     2.758391104639   111.05201287   175.08990246
 C     42   2   1     4.559821839776    41.78584867   180.41432537
 C     44  42   2     2.652129475853    87.95153797   233.97558675
 C     45  44  42     2.611027836043   120.11137308     0.19721020
 C     42   2   1     4.629866436820   135.97209175    90.72917447
 C     43  41  15     2.559561325344   106.26758155     0.30894352
 C     15  14  13     2.584127074516   171.87382904   332.35056460
 C     42   2   1     2.611386828803    32.59078432   229.26960456
 C      9   2   1     2.655043698059   126.98745415   179.48643520
 N     42   2   1     2.556355970587   113.57249190   118.46576366
 H      1   2   3     2.046975562853    96.94768757   180.67229317
 H      2   1   3     2.040730117440   109.24930817   181.18841006
 H      4   3   1     2.046574275486   121.00140693   179.55721804
 H      5   4   3     2.046140622207   122.78736214   179.43872975
 H      6   5   4     2.064813564490   104.46580227   100.02782317
 H      6   5   4     2.059888168835    84.66600251   209.46778162
 H      6   5   4     2.059002098061   133.88921964   322.32986605
 H      7   2   1     2.040541119952   126.66122480   358.90966445
 H     60   7   2     1.615682691072   130.34573347   172.24789535
 H     12   9   2     1.920524309565   125.29023241   180.00180175
 H     14  13  12     1.917952867083    44.97226959   359.42596618
 H     18  14  13     2.046330847636   128.03556573   234.20482432
 H     55   4   3     1.478526847595   159.12348771     2.47291011
 H     21  20  18     2.047649722989   121.05669627   180.67006309
 H     22  21  20     2.045596898814   122.73097286   180.59748951
 H     23  18  14     2.063779938267   103.92715769   234.93429879
 H     23  18  14     2.057669673245   134.19244188    12.25587044
 H     23  18  14     2.059486796529    84.85857450   125.45241208
 H     24  19  17     2.041046823986   127.28078426   178.44613241
 H     26  18  14     2.047344503340   118.76995697   244.94906660
 H     30  14  13     2.046012340948   127.99711412   279.66882698
 H     31  29  14     2.040450114918   125.22293469   180.92530585
 H     33  32  30     2.046930203877   121.01964473   180.74284758
 H     34  33  32     2.045617847496   122.70821597   180.59516895
 H     35  34  33     2.064814429233   105.73575241    97.19771933
 H     35  34  33     2.058786158072    84.05943581   206.43036958
 H     35  34  33     2.058418400901   133.08365142   318.50306270
 H     36  31  29     2.039845353366   126.61599965   178.98859863
 H     38  30  73     2.047975821711   118.77264435   359.90091293
 H     42   2   1     2.045020725966   119.31790784   335.09729412
 H     43  41  15     2.041436952892   126.36969097   182.06329380
 H     45  44  42     2.047097678177   121.10105945   179.58025624
 H     46  45  44     2.045051284662   122.72144639   179.46906377
 H     47  42   2     2.062723288131   106.65128841   315.16475048
 H     47  42   2     2.057569012371   132.46019523    94.52397119
 H     47  42   2     2.058915377895    83.63838232   206.04504406
 H     48  43  41     2.041664347903   127.23657387   181.62955349
 H     50  42   2     2.046925842384   118.77001737    94.71359229

---------------------
BASIS SET INFORMATION
---------------------
There are 3 groups of distinct atoms

 Group   1 Type C   : 17s4p1d contracted to 3s2p1d pattern {881/31/1}
 Group   2 Type N   : 17s4p1d contracted to 3s2p1d pattern {881/31/1}
 Group   3 Type H   : 4s1p contracted to 2s1p pattern {31/1}

Atom   0C    basis set group =>   1
Atom   1N    basis set group =>   2
Atom   2C    basis set group =>   1
Atom   3N    basis set group =>   2
Atom   4C    basis set group =>   1
Atom   5N    basis set group =>   2
Atom   6C    basis set group =>   1
Atom   7N    basis set group =>   2
Atom   8C    basis set group =>   1
Atom   9N    basis set group =>   2
Atom  10C    basis set group =>   1
Atom  11N    basis set group =>   2
Atom  12C    basis set group =>   1
Atom  13N    basis set group =>   2
Atom  14C    basis set group =>   1
Atom  15N    basis set group =>   2
Atom  16C    basis set group =>   1
Atom  17C    basis set group =>   1
Atom  18C    basis set group =>   1
Atom  19C    basis set group =>   1
Atom  20C    basis set group =>   1
Atom  21C    basis set group =>   1
Atom  22C    basis set group =>   1
Atom  23C    basis set group =>   1
Atom  24C    basis set group =>   1
Atom  25C    basis set group =>   1
Atom  26C    basis set group =>   1
Atom  27C    basis set group =>   1
Atom  28C    basis set group =>   1
Atom  29C    basis set group =>   1
Atom  30C    basis set group =>   1
Atom  31C    basis set group =>   1
Atom  32C    basis set group =>   1
Atom  33C    basis set group =>   1
Atom  34C    basis set group =>   1
Atom  35C    basis set group =>   1
Atom  36C    basis set group =>   1
Atom  37C    basis set group =>   1
Atom  38C    basis set group =>   1
Atom  39C    basis set group =>   1
Atom  40C    basis set group =>   1
Atom  41C    basis set group =>   1
Atom  42C    basis set group =>   1
Atom  43C    basis set group =>   1
Atom  44C    basis set group =>   1
Atom  45C    basis set group =>   1
Atom  46C    basis set group =>   1
Atom  47C    basis set group =>   1
Atom  48C    basis set group =>   1
Atom  49C    basis set group =>   1
Atom  50C    basis set group =>   1
Atom  51C    basis set group =>   1
Atom  52H    basis set group =>   3
Atom  53H    basis set group =>   3
Atom  54H    basis set group =>   3
Atom  55H    basis set group =>   3
Atom  56H    basis set group =>   3
Atom  57H    basis set group =>   3
Atom  58H    basis set group =>   3
Atom  59H    basis set group =>   3
Atom  60H    basis set group =>   3
Atom  61H    basis set group =>   3
Atom  62H    basis set group =>   3
Atom  63H    basis set group =>   3
Atom  64H    basis set group =>   3
Atom  65H    basis set group =>   3
Atom  66H    basis set group =>   3
Atom  67H    basis set group =>   3
Atom  68H    basis set group =>   3
Atom  69H    basis set group =>   3
Atom  70H    basis set group =>   3
Atom  71H    basis set group =>   3
Atom  72H    basis set group =>   3
Atom  73H    basis set group =>   3
Atom  74H    basis set group =>   3
Atom  75H    basis set group =>   3
Atom  76H    basis set group =>   3
Atom  77H    basis set group =>   3
Atom  78H    basis set group =>   3
Atom  79H    basis set group =>   3
Atom  80H    basis set group =>   3
Atom  81H    basis set group =>   3
Atom  82H    basis set group =>   3
Atom  83H    basis set group =>   3
Atom  84H    basis set group =>   3
Atom  85H    basis set group =>   3
Atom  86H    basis set group =>   3
Atom  87H    basis set group =>   3
Atom  88H    basis set group =>   3
Atom  89H    basis set group =>   3


           ************************************************************
           *        Program running with 16 parallel MPI-processes    *
           *              working on a common directory               *
           ************************************************************
------------------------------------------------------------------------------
                           ORCA GTO INTEGRAL CALCULATION
------------------------------------------------------------------------------
------------------------------------------------------------------------------
                   ___                                                        
                  /   \      - P O W E R E D   B Y -                         
                 /     \                                                     
                 |  |  |   _    _      __       _____    __    __             
                 |  |  |  | |  | |    /  \     |  _  \  |  |  /  |          
                  \  \/   | |  | |   /    \    | | | |  |  | /  /          
                 / \  \   | |__| |  /  /\  \   | |_| |  |  |/  /          
                |  |  |   |  __  | /  /__\  \  |    /   |      \           
                |  |  |   | |  | | |   __   |  |    \   |  |\   \          
                \     /   | |  | | |  |  |  |  | |\  \  |  | \   \       
                 \___/    |_|  |_| |__|  |__|  |_| \__\ |__|  \__/        
                                                                              
                      - O R C A' S   B I G   F R I E N D -                    
                                      &                                       
                       - I N T E G R A L  F E E D E R -                       
                                                                              
 v1 FN, 2020, v2 2021                                                         
------------------------------------------------------------------------------


Reading SHARK input file /scratch/allen/tmpyp4_amber_gaff2/conf1/conf1/Conf4.orca.SHARKINP.tmp ... ok
----------------------
SHARK INTEGRAL PACKAGE
----------------------

Number of atoms                             ...     90
Number of basis functions                   ...   1230
Number of shells                            ...    738
Maximum angular momentum                    ...      2
Integral batch strategy                     ... SHARK/LIBINT Hybrid
RI-J (if used) integral strategy            ... SPLIT-RIJ (Revised 2003 algorithm where possible)
Printlevel                                  ...      1
Contraction scheme used                     ... PARTIAL GENERAL contraction
Coulomb Range Separation                    ... NOT USED
Exchange Range Separation                   ... NOT USED
Finite Nucleus Model                        ... NOT USED
Auxiliary Coulomb fitting basis             ... NOT available
Auxiliary J/K fitting basis                 ... NOT available
Auxiliary Correlation fitting basis         ... NOT available
Auxiliary 'external' fitting basis          ... NOT available
Integral threshold                          ...     2.500000e-11
Primitive cut-off                           ...     2.500000e-12
Primitive pair pre-selection threshold      ...     2.500000e-12

Calculating pre-screening integrals         ... done (  0.1 sec) Dimension = 738
Calculating pre-screening integrals (ORCA)  ... done (  0.3 sec) Dimension = 426
Organizing shell pair data                  ... done (  0.8 sec)
Shell pair information
Total number of shell pairs                 ...    272691
Shell pairs after pre-screening             ...     71740
Total number of primitive shell pairs       ...    422091
Primitive shell pairs kept                  ...     92638
          la=0 lb=0:  29445 shell pairs
          la=1 lb=0:  26042 shell pairs
          la=1 lb=1:   4700 shell pairs
          la=2 lb=0:   7894 shell pairs
          la=2 lb=1:   3130 shell pairs
          la=2 lb=2:    529 shell pairs

Calculating one electron integrals          ... done (  0.3 sec)
Calculating Nuclear repulsion               ... done (  0.0 sec) ENN=   6235.862994770696 Eh

SHARK setup successfully completed in   2.3 seconds

Maximum memory used throughout the entire GTOINT-calculation: 99.1 MB


           ************************************************************
           *        Program running with 16 parallel MPI-processes    *
           *              working on a common directory               *
           ************************************************************
-------------------------------------------------------------------------------
                                 ORCA SCF
-------------------------------------------------------------------------------

------------
SCF SETTINGS
------------
Hamiltonian:
 Ab initio Hamiltonian  Method          .... Hartree-Fock(GTOs)


General Settings:
 Integral files         IntName         .... /scratch/allen/tmpyp4_amber_gaff2/conf1/conf1/Conf4.orca
 Hartree-Fock type      HFTyp           .... RHF
 Total Charge           Charge          ....    0
 Multiplicity           Mult            ....    1
 Number of Electrons    NEL             ....  358
 Basis Dimension        Dim             ....  918
 Nuclear Repulsion      ENuc            ....   6235.8629947707 Eh

Convergence Acceleration:
 DIIS                   CNVDIIS         .... on
   Start iteration      DIISMaxIt       ....    12
   Startup error        DIISStart       ....  0.200000
   # of expansion vecs  DIISMaxEq       ....     5
   Bias factor          DIISBfac        ....   1.050
   Max. coefficient     DIISMaxC        ....  10.000
 Trust-Rad. Augm. Hess. CNVTRAH         .... auto
   Auto Start mean grad. ratio tolernc. ....  1.125000
   Auto Start start iteration           ....    20
   Auto Start num. interpolation iter.  ....    10
   Max. Number of Micro iterations      ....    16
   Max. Number of Macro iterations      .... Maxiter - #DIIS iter
   Number of Davidson start vectors     ....     2
   Converg. threshold I  (grad. norm)   ....   1.000e-05
   Converg. threshold II (energy diff.) ....   1.000e-08
   Grad. Scal. Fac. for Micro threshold ....   0.100
   Minimum threshold for Micro iter.    ....   0.010
   NR start threshold (gradient norm)   ....   0.001
   Initial trust radius                 ....   0.400
   Minimum AH scaling param. (alpha)    ....   1.000
   Maximum AH scaling param. (alpha)    .... 1000.000
   Orbital update algorithm             .... Taylor
   White noise on init. David. guess    .... on
   Maximum white noise                  ....   0.010
   Quad. conv. algorithm                .... NR
 SOSCF                  CNVSOSCF        .... on
   Start iteration      SOSCFMaxIt      ....   150
   Startup grad/error   SOSCFStart      ....  0.003300
 Level Shifting         CNVShift        .... on
   Level shift para.    LevelShift      ....    0.2500
   Turn off err/grad.   ShiftErr        ....    0.0010
 Zerner damping         CNVZerner       .... off
 Static damping         CNVDamp         .... on
   Fraction old density DampFac         ....    0.7000
   Max. Damping (<1)    DampMax         ....    0.9800
   Min. Damping (>=0)   DampMin         ....    0.0000
   Turn off err/grad.   DampErr         ....    0.1000
 Fernandez-Rico         CNVRico         .... off

SCF Procedure:
 Maximum # iterations   MaxIter         ....   125
 SCF integral mode      SCFMode         .... Direct
   Integral package                     .... SHARK and LIBINT hybrid scheme
 Reset frequency        DirectResetFreq ....    20
 Integral Threshold     Thresh          ....  2.500e-11 Eh
 Primitive CutOff       TCut            ....  2.500e-12 Eh

Convergence Tolerance:
 Convergence Check Mode ConvCheckMode   .... Total+1el-Energy
 Convergence forced     ConvForced      .... 1
 Energy Change          TolE            ....  1.000e-08 Eh
 1-El. energy change                    ....  1.000e-05 Eh
 Orbital Gradient       TolG            ....  1.000e-05
 Orbital Rotation angle TolX            ....  1.000e-05
 DIIS Error             TolErr          ....  5.000e-07


Diagonalization of the overlap matrix:
Smallest eigenvalue                        ... 1.615e-04
Time for diagonalization                   ...    0.394 sec
Threshold for overlap eigenvalues          ... 1.000e-08
Number of eigenvalues below threshold      ... 0
Time for construction of square roots      ...    0.247 sec
Total time needed                          ...    0.646 sec

Time for model grid setup =    1.056 sec

------------------------------
INITIAL GUESS: MODEL POTENTIAL
------------------------------
Loading Hartree-Fock densities                     ... done
Calculating cut-offs                               ... done
Initializing the effective Hamiltonian             ... done
Setting up the integral package (SHARK)            ... done
Starting the Coulomb interaction                   ... done (   1.2 sec)
Reading the grid                                   ... done
Mapping shells                                     ... done
Starting the XC term evaluation                    ... done (   0.2 sec)
Transforming the Hamiltonian                       ... done (   0.2 sec)
Diagonalizing the Hamiltonian                      ... done (   0.3 sec)
Back transforming the eigenvectors                 ... done (   0.1 sec)
Now organizing SCF variables                       ... done
                      ------------------
                      INITIAL GUESS DONE (   3.1 sec)
                      ------------------
--------------
SCF ITERATIONS
--------------
ITER       Energy         Delta-E        Max-DP      RMS-DP      [F,P]     Damp
               ***  Starting incremental Fock matrix formation  ***
  0  -2121.5483434454   0.000000000000 0.07990631  0.00130041  0.2310333 0.7000
  1  -2122.1857123040  -0.637368858559 0.06112276  0.00104288  0.1434327 0.7000
                               ***Turning on DIIS***
  2  -2122.5843058754  -0.398593571424 0.14270567  0.00238879  0.0803390 0.0000
  3  -2118.0579129603   4.526392915099 0.04132037  0.00064798  0.0433820 0.0000
  4  -2123.2927756106  -5.234862650277 0.01636069  0.00022373  0.0094246 0.0000
  5  -2123.4109585358  -0.118182925282 0.00729600  0.00013040  0.0048036 0.0000
  6  -2123.3949581612   0.016000374640 0.00393619  0.00008166  0.0022853 0.0000
  7  -2123.4865793152  -0.091621153984 0.00313058  0.00006393  0.0016424 0.0000
  8  -2123.4918599501  -0.005280634938 0.00335147  0.00006122  0.0015397 0.0000
  9  -2123.4662636543   0.025596295804 0.00270115  0.00004413  0.0012400 0.0000
 10  -2123.4734310124  -0.007167358084 0.00544870  0.00009340  0.0009742 0.0000
                      *** Initiating the SOSCF procedure ***
                           *** Shutting down DIIS ***
                      *** Re-Reading the Fockian *** 
                      *** Removing any level shift *** 
ITER      Energy       Delta-E        Grad      Rot      Max-DP    RMS-DP
 11  -2123.36792652   0.1055044954  0.000187  0.000187  0.000251  0.000005
               *** Restarting incremental Fock matrix formation ***
 12  -2123.43373837  -0.0658118514  0.000955  0.006388  0.001519  0.000034
 13  -2123.43385091  -0.0001125427  0.001161  0.031635  0.006915  0.000134
 14  -2123.43403610  -0.0001851889  0.000400  0.002014  0.000633  0.000012
 15  -2123.43405134  -0.0000152429  0.000190  0.002256  0.000488  0.000012
 16  -2123.43405785  -0.0000065046  0.000129  0.001984  0.000506  0.000008
 17  -2123.43406051  -0.0000026641  0.000128  0.002030  0.000292  0.000007
 18  -2123.43406174  -0.0000012312  0.000059  0.001177  0.000210  0.000004
 19  -2123.43406251  -0.0000007680  0.000046  0.001827  0.000265  0.000006
 20  -2123.43406304  -0.0000005289  0.000028  0.001013  0.000143  0.000003
 21  -2123.43406327  -0.0000002329  0.000027  0.001224  0.000174  0.000004
 22  -2123.43406350  -0.0000002289  0.000024  0.001059  0.000163  0.000003
 23  -2123.43406364  -0.0000001376  0.000015  0.000377  0.000065  0.000001
 24  -2123.43406369  -0.0000000502  0.000008  0.000250  0.000053  0.000001
 25  -2123.43406372  -0.0000000300  0.000008  0.000122  0.000040  0.000000
 26  -2123.43406373  -0.0000000144  0.000006  0.000073  0.000027  0.000000
 27  -2123.43406373  -0.0000000001  0.000003  0.000059  0.000019  0.000000
                  ***Gradient check signals convergence***
              ***Rediagonalizing the Fockian in SOSCF/NRSCF***

               *****************************************************
               *                     SUCCESS                       *
               *           SCF CONVERGED AFTER  28 CYCLES          *
               *****************************************************


----------------
TOTAL SCF ENERGY
----------------

Total Energy       :        -2123.43406373 Eh          -57781.57843 eV

Components:
Nuclear Repulsion  :         6235.86299477 Eh          169686.45878 eV
Electronic Energy  :        -8359.29705850 Eh         -227468.03721 eV
One Electron Energy:       -15312.12274567 Eh         -416664.04270 eV
Two Electron Energy:         6952.82568716 Eh          189196.00549 eV

Virial components:
Potential Energy   :        -4246.10020919 Eh         -115542.26075 eV
Kinetic Energy     :         2122.66614545 Eh           57760.68231 eV
Virial Ratio       :            2.00036177


---------------
SCF CONVERGENCE
---------------

  Last Energy change         ...    2.7285e-11  Tolerance :   1.0000e-08
  Last MAX-Density change    ...    9.6791e-06  Tolerance :   1.0000e-07
  Last RMS-Density change    ...    1.6150e-07  Tolerance :   5.0000e-09
  Last Orbital Gradient      ...    1.7543e-06  Tolerance :   1.0000e-05
  Last Orbital Rotation      ...    3.3212e-05  Tolerance :   1.0000e-05

             **** THE GBW FILE WAS UPDATED (/scratch/allen/tmpyp4_amber_gaff2/conf1/conf1/Conf4.orca.gbw) ****
             **** DENSITY /scratch/allen/tmpyp4_amber_gaff2/conf1/conf1/Conf4.orca.scfp WAS UPDATED ****
             **** ENERGY FILE WAS UPDATED (/scratch/allen/tmpyp4_amber_gaff2/conf1/conf1/Conf4.orca.en.tmp) ****
             **** THE GBW FILE WAS UPDATED (/scratch/allen/tmpyp4_amber_gaff2/conf1/conf1/Conf4.orca.gbw) ****
             **** DENSITY /scratch/allen/tmpyp4_amber_gaff2/conf1/conf1/Conf4.orca.scfp WAS UPDATED ****
----------------
ORBITAL ENERGIES
----------------

  NO   OCC          E(Eh)            E(eV) 
   0   2.0000     -15.679759      -426.6679 
   1   2.0000     -15.632954      -425.3943 
   2   2.0000     -15.632500      -425.3819 
   3   2.0000     -15.588002      -424.1711 
   4   2.0000     -15.524795      -422.4511 
   5   2.0000     -15.515348      -422.1941 
   6   2.0000     -15.453859      -420.5209 
   7   2.0000     -15.439358      -420.1263 
   8   2.0000     -11.329282      -308.2854 
   9   2.0000     -11.328429      -308.2622 
  10   2.0000     -11.327896      -308.2477 
  11   2.0000     -11.298794      -307.4558 
  12   2.0000     -11.298721      -307.4538 
  13   2.0000     -11.292185      -307.2760 
  14   2.0000     -11.291816      -307.2659 
  15   2.0000     -11.287029      -307.1357 
  16   2.0000     -11.285660      -307.0984 
  17   2.0000     -11.281989      -306.9985 
  18   2.0000     -11.269514      -306.6591 
  19   2.0000     -11.263268      -306.4891 
  20   2.0000     -11.262267      -306.4619 
  21   2.0000     -11.251071      -306.1572 
  22   2.0000     -11.247418      -306.0578 
  23   2.0000     -11.237230      -305.7806 
  24   2.0000     -11.236776      -305.7682 
  25   2.0000     -11.230403      -305.5948 
  26   2.0000     -11.230241      -305.5904 
  27   2.0000     -11.230068      -305.5857 
  28   2.0000     -11.229724      -305.5763 
  29   2.0000     -11.210714      -305.0590 
  30   2.0000     -11.209194      -305.0177 
  31   2.0000     -11.194134      -304.6079 
  32   2.0000     -11.192298      -304.5579 
  33   2.0000     -11.191143      -304.5265 
  34   2.0000     -11.188602      -304.4574 
  35   2.0000     -11.187978      -304.4404 
  36   2.0000     -11.187050      -304.4151 
  37   2.0000     -11.174308      -304.0684 
  38   2.0000     -11.171829      -304.0009 
  39   2.0000     -11.171283      -303.9861 
  40   2.0000     -11.170902      -303.9757 
  41   2.0000     -11.167982      -303.8962 
  42   2.0000     -11.165166      -303.8196 
  43   2.0000     -11.161948      -303.7321 
  44   2.0000     -11.161241      -303.7128 
  45   2.0000     -11.156919      -303.5952 
  46   2.0000     -11.156202      -303.5757 
  47   2.0000     -11.150569      -303.4224 
  48   2.0000     -11.147367      -303.3353 
  49   2.0000     -11.135828      -303.0213 
  50   2.0000     -11.129653      -302.8532 
  51   2.0000     -11.118106      -302.5390 
  52   2.0000      -1.360340       -37.0167 
  53   2.0000      -1.320358       -35.9288 
  54   2.0000      -1.320187       -35.9241 
  55   2.0000      -1.279898       -34.8278 
  56   2.0000      -1.225857       -33.3573 
  57   2.0000      -1.210347       -32.9352 
  58   2.0000      -1.173542       -31.9337 
  59   2.0000      -1.150741       -31.3132 
  60   2.0000      -1.143582       -31.1185 
  61   2.0000      -1.110180       -30.2095 
  62   2.0000      -1.108831       -30.1728 
  63   2.0000      -1.082015       -29.4431 
  64   2.0000      -1.077319       -29.3153 
  65   2.0000      -1.044804       -28.4306 
  66   2.0000      -1.044603       -28.4251 
  67   2.0000      -1.041005       -28.3272 
  68   2.0000      -1.015356       -27.6292 
  69   2.0000      -1.014763       -27.6131 
  70   2.0000      -1.009108       -27.4592 
  71   2.0000      -0.993241       -27.0275 
  72   2.0000      -0.985641       -26.8207 
  73   2.0000      -0.981698       -26.7133 
  74   2.0000      -0.974089       -26.5063 
  75   2.0000      -0.962410       -26.1885 
  76   2.0000      -0.955006       -25.9870 
  77   2.0000      -0.947105       -25.7720 
  78   2.0000      -0.940092       -25.5812 
  79   2.0000      -0.916618       -24.9424 
  80   2.0000      -0.910567       -24.7778 
  81   2.0000      -0.898570       -24.4513 
  82   2.0000      -0.877285       -23.8721 
  83   2.0000      -0.871701       -23.7202 
  84   2.0000      -0.871226       -23.7073 
  85   2.0000      -0.861902       -23.4536 
  86   2.0000      -0.846662       -23.0389 
  87   2.0000      -0.838211       -22.8089 
  88   2.0000      -0.829607       -22.5748 
  89   2.0000      -0.796247       -21.6670 
  90   2.0000      -0.789465       -21.4824 
  91   2.0000      -0.776597       -21.1323 
  92   2.0000      -0.752993       -20.4900 
  93   2.0000      -0.734256       -19.9801 
  94   2.0000      -0.729376       -19.8473 
  95   2.0000      -0.727132       -19.7863 
  96   2.0000      -0.720552       -19.6072 
  97   2.0000      -0.717978       -19.5372 
  98   2.0000      -0.714372       -19.4390 
  99   2.0000      -0.700429       -19.0597 
 100   2.0000      -0.698195       -18.9988 
 101   2.0000      -0.694776       -18.9058 
 102   2.0000      -0.685348       -18.6493 
 103   2.0000      -0.684309       -18.6210 
 104   2.0000      -0.678771       -18.4703 
 105   2.0000      -0.674493       -18.3539 
 106   2.0000      -0.672887       -18.3102 
 107   2.0000      -0.661039       -17.9878 
 108   2.0000      -0.658104       -17.9079 
 109   2.0000      -0.652692       -17.7607 
 110   2.0000      -0.652085       -17.7441 
 111   2.0000      -0.646167       -17.5831 
 112   2.0000      -0.645734       -17.5713 
 113   2.0000      -0.637998       -17.3608 
 114   2.0000      -0.635326       -17.2881 
 115   2.0000      -0.628931       -17.1141 
 116   2.0000      -0.623258       -16.9597 
 117   2.0000      -0.620386       -16.8816 
 118   2.0000      -0.612755       -16.6739 
 119   2.0000      -0.612010       -16.6536 
 120   2.0000      -0.611676       -16.6446 
 121   2.0000      -0.611487       -16.6394 
 122   2.0000      -0.601644       -16.3716 
 123   2.0000      -0.589384       -16.0380 
 124   2.0000      -0.581228       -15.8160 
 125   2.0000      -0.580927       -15.8078 
 126   2.0000      -0.580203       -15.7881 
 127   2.0000      -0.571027       -15.5384 
 128   2.0000      -0.566510       -15.4155 
 129   2.0000      -0.559998       -15.2383 
 130   2.0000      -0.555738       -15.1224 
 131   2.0000      -0.547705       -14.9038 
 132   2.0000      -0.542637       -14.7659 
 133   2.0000      -0.540061       -14.6958 
 134   2.0000      -0.538419       -14.6511 
 135   2.0000      -0.536314       -14.5938 
 136   2.0000      -0.531866       -14.4728 
 137   2.0000      -0.518012       -14.0958 
 138   2.0000      -0.516496       -14.0546 
 139   2.0000      -0.514336       -13.9958 
 140   2.0000      -0.512032       -13.9331 
 141   2.0000      -0.509777       -13.8717 
 142   2.0000      -0.507016       -13.7966 
 143   2.0000      -0.505692       -13.7606 
 144   2.0000      -0.502480       -13.6732 
 145   2.0000      -0.495466       -13.4823 
 146   2.0000      -0.488232       -13.2855 
 147   2.0000      -0.480989       -13.0884 
 148   2.0000      -0.476508       -12.9664 
 149   2.0000      -0.467771       -12.7287 
 150   2.0000      -0.466125       -12.6839 
 151   2.0000      -0.456277       -12.4159 
 152   2.0000      -0.451522       -12.2866 
 153   2.0000      -0.445211       -12.1148 
 154   2.0000      -0.437905       -11.9160 
 155   2.0000      -0.427798       -11.6410 
 156   2.0000      -0.409109       -11.1324 
 157   2.0000      -0.390735       -10.6325 
 158   2.0000      -0.387770       -10.5517 
 159   2.0000      -0.384844       -10.4721 
 160   2.0000      -0.378370       -10.2960 
 161   2.0000      -0.372748       -10.1430 
 162   2.0000      -0.356475        -9.7002 
 163   2.0000      -0.356278        -9.6948 
 164   2.0000      -0.355632        -9.6772 
 165   2.0000      -0.341873        -9.3029 
 166   2.0000      -0.337465        -9.1829 
 167   2.0000      -0.324639        -8.8339 
 168   2.0000      -0.321718        -8.7544 
 169   2.0000      -0.305049        -8.3008 
 170   2.0000      -0.299324        -8.1450 
 171   2.0000      -0.286045        -7.7837 
 172   2.0000      -0.278140        -7.5686 
 173   2.0000      -0.263558        -7.1718 
 174   2.0000      -0.242323        -6.5939 
 175   2.0000      -0.189956        -5.1690 
 176   2.0000      -0.181411        -4.9364 
 177   2.0000      -0.080144        -2.1808 
 178   2.0000      -0.059691        -1.6243 
 179   0.0000       0.028515         0.7759 
 180   0.0000       0.065459         1.7812 
 181   0.0000       0.090274         2.4565 
 182   0.0000       0.106321         2.8931 
 183   0.0000       0.117227         3.1899 
 184   0.0000       0.137269         3.7353 
 185   0.0000       0.139405         3.7934 
 186   0.0000       0.140986         3.8364 
 187   0.0000       0.164540         4.4774 
 188   0.0000       0.165331         4.4989 
 189   0.0000       0.165615         4.5066 
 190   0.0000       0.175558         4.7772 
 191   0.0000       0.180423         4.9096 
 192   0.0000       0.183830         5.0023 
 193   0.0000       0.189217         5.1489 
 194   0.0000       0.205013         5.5787 
 195   0.0000       0.205545         5.5932 
 196   0.0000       0.208283         5.6677 
 197   0.0000       0.208732         5.6799 
 198   0.0000       0.216595         5.8938 
 199   0.0000       0.227900         6.2015 
 200   0.0000       0.233801         6.3620 
 201   0.0000       0.233828         6.3628 
 202   0.0000       0.239095         6.5061 
 203   0.0000       0.239734         6.5235 
 204   0.0000       0.246311         6.7025 
 205   0.0000       0.255121         6.9422 
 206   0.0000       0.256408         6.9772 
 207   0.0000       0.257800         7.0151 
 208   0.0000       0.259212         7.0535 
 209   0.0000       0.260681         7.0935 
 210   0.0000       0.263975         7.1831 
 211   0.0000       0.265767         7.2319 
 212   0.0000       0.268703         7.3118 
 213   0.0000       0.270471         7.3599 
 214   0.0000       0.273231         7.4350 
 215   0.0000       0.275844         7.5061 
 216   0.0000       0.278412         7.5760 
 217   0.0000       0.283239         7.7073 
 218   0.0000       0.286666         7.8006 
 219   0.0000       0.287684         7.8283 
 220   0.0000       0.290028         7.8921 
 221   0.0000       0.292781         7.9670 
 222   0.0000       0.294677         8.0186 
 223   0.0000       0.296950         8.0804 
 224   0.0000       0.297258         8.0888 
 225   0.0000       0.301898         8.2151 
 226   0.0000       0.306047         8.3280 
 227   0.0000       0.307467         8.3666 
 228   0.0000       0.320473         8.7205 
 229   0.0000       0.324683         8.8351 
 230   0.0000       0.328513         8.9393 
 231   0.0000       0.335491         9.1292 
 232   0.0000       0.342438         9.3182 
 233   0.0000       0.357227         9.7206 
 234   0.0000       0.373028        10.1506 
 235   0.0000       0.374368        10.1871 
 236   0.0000       0.390303        10.6207 
 237   0.0000       0.391391        10.6503 
 238   0.0000       0.398376        10.8404 
 239   0.0000       0.402024        10.9396 
 240   0.0000       0.411151        11.1880 
 241   0.0000       0.412255        11.2180 
 242   0.0000       0.416286        11.3277 
 243   0.0000       0.426618        11.6089 
 244   0.0000       0.430004        11.7010 
 245   0.0000       0.431613        11.7448 
 246   0.0000       0.440250        11.9798 
 247   0.0000       0.440636        11.9903 
 248   0.0000       0.441633        12.0175 
 249   0.0000       0.443933        12.0800 
 250   0.0000       0.449581        12.2337 
 251   0.0000       0.458766        12.4837 
 252   0.0000       0.464432        12.6378 
 253   0.0000       0.469927        12.7874 
 254   0.0000       0.472709        12.8631 
 255   0.0000       0.474595        12.9144 
 256   0.0000       0.476604        12.9691 
 257   0.0000       0.486093        13.2273 
 258   0.0000       0.489523        13.3206 
 259   0.0000       0.494991        13.4694 
 260   0.0000       0.503888        13.7115 
 261   0.0000       0.504637        13.7319 
 262   0.0000       0.506416        13.7803 
 263   0.0000       0.512193        13.9375 
 264   0.0000       0.515598        14.0301 
 265   0.0000       0.520034        14.1508 
 266   0.0000       0.526957        14.3392 
 267   0.0000       0.528492        14.3810 
 268   0.0000       0.535392        14.5688 
 269   0.0000       0.542276        14.7561 
 270   0.0000       0.554383        15.0855 
 271   0.0000       0.556248        15.1363 
 272   0.0000       0.559202        15.2167 
 273   0.0000       0.562972        15.3193 
 274   0.0000       0.567247        15.4356 
 275   0.0000       0.573600        15.6085 
 276   0.0000       0.574876        15.6432 
 277   0.0000       0.580994        15.8097 
 278   0.0000       0.583611        15.8809 
 279   0.0000       0.587464        15.9857 
 280   0.0000       0.593237        16.1428 
 281   0.0000       0.593741        16.1565 
 282   0.0000       0.595253        16.1977 
 283   0.0000       0.597824        16.2676 
 284   0.0000       0.598343        16.2817 
 285   0.0000       0.602308        16.3896 
 286   0.0000       0.605557        16.4780 
 287   0.0000       0.612195        16.6587 
 288   0.0000       0.618005        16.8168 
 289   0.0000       0.622557        16.9406 
 290   0.0000       0.625839        17.0300 
 291   0.0000       0.631579        17.1861 
 292   0.0000       0.636437        17.3183 
 293   0.0000       0.641967        17.4688 
 294   0.0000       0.646652        17.5963 
 295   0.0000       0.652118        17.7450 
 296   0.0000       0.655189        17.8286 
 297   0.0000       0.659093        17.9348 
 298   0.0000       0.664245        18.0750 
 299   0.0000       0.666402        18.1337 
 300   0.0000       0.670984        18.2584 
 301   0.0000       0.675771        18.3887 
 302   0.0000       0.680901        18.5283 
 303   0.0000       0.684338        18.6218 
 304   0.0000       0.686104        18.6698 
 305   0.0000       0.689162        18.7531 
 306   0.0000       0.693212        18.8633 
 307   0.0000       0.693983        18.8842 
 308   0.0000       0.697905        18.9910 
 309   0.0000       0.702533        19.1169 
 310   0.0000       0.702956        19.1284 
 311   0.0000       0.706777        19.2324 
 312   0.0000       0.709086        19.2952 
 313   0.0000       0.711134        19.3509 
 314   0.0000       0.711931        19.3726 
 315   0.0000       0.715937        19.4816 
 316   0.0000       0.718878        19.5617 
 317   0.0000       0.720125        19.5956 
 318   0.0000       0.722959        19.6727 
 319   0.0000       0.724614        19.7178 
 320   0.0000       0.727903        19.8072 
 321   0.0000       0.728799        19.8316 
 322   0.0000       0.731135        19.8952 
 323   0.0000       0.733580        19.9617 
 324   0.0000       0.734849        19.9963 
 325   0.0000       0.736788        20.0490 
 326   0.0000       0.743176        20.2228 
 327   0.0000       0.746954        20.3256 
 328   0.0000       0.750588        20.4245 
 329   0.0000       0.754401        20.5283 
 330   0.0000       0.758685        20.6449 
 331   0.0000       0.765151        20.8208 
 332   0.0000       0.767507        20.8849 
 333   0.0000       0.767778        20.8923 
 334   0.0000       0.770123        20.9561 
 335   0.0000       0.774008        21.0618 
 336   0.0000       0.776463        21.1286 
 337   0.0000       0.780714        21.2443 
 338   0.0000       0.785413        21.3722 
 339   0.0000       0.790209        21.5027 
 340   0.0000       0.792622        21.5684 
 341   0.0000       0.793053        21.5801 
 342   0.0000       0.799579        21.7577 
 343   0.0000       0.801113        21.7994 
 344   0.0000       0.804272        21.8854 
 345   0.0000       0.808704        22.0059 
 346   0.0000       0.812475        22.1086 
 347   0.0000       0.814640        22.1675 
 348   0.0000       0.816122        22.2078 
 349   0.0000       0.817365        22.2416 
 350   0.0000       0.821311        22.3490 
 351   0.0000       0.824300        22.4303 
 352   0.0000       0.827665        22.5219 
 353   0.0000       0.828759        22.5517 
 354   0.0000       0.831110        22.6157 
 355   0.0000       0.832047        22.6412 
 356   0.0000       0.834724        22.7140 
 357   0.0000       0.835976        22.7481 
 358   0.0000       0.838880        22.8271 
 359   0.0000       0.841018        22.8853 
 360   0.0000       0.842587        22.9280 
 361   0.0000       0.843562        22.9545 
 362   0.0000       0.845714        23.0131 
 363   0.0000       0.849265        23.1097 
 364   0.0000       0.852356        23.1938 
 365   0.0000       0.855764        23.2865 
 366   0.0000       0.863011        23.4837 
 367   0.0000       0.864217        23.5165 
 368   0.0000       0.868012        23.6198 
 369   0.0000       0.869992        23.6737 
 370   0.0000       0.870295        23.6819 
 371   0.0000       0.875176        23.8147 
 372   0.0000       0.875950        23.8358 
 373   0.0000       0.877963        23.8906 
 374   0.0000       0.882307        24.0088 
 375   0.0000       0.883893        24.0520 
 376   0.0000       0.889906        24.2156 
 377   0.0000       0.892179        24.2774 
 378   0.0000       0.894158        24.3313 
 379   0.0000       0.896027        24.3821 
 380   0.0000       0.897440        24.4206 
 381   0.0000       0.899065        24.4648 
 382   0.0000       0.901689        24.5362 
 383   0.0000       0.902815        24.5669 
 384   0.0000       0.906623        24.6705 
 385   0.0000       0.907941        24.7063 
 386   0.0000       0.911381        24.7999 
 387   0.0000       0.915174        24.9032 
 388   0.0000       0.915743        24.9186 
 389   0.0000       0.919110        25.0102 
 390   0.0000       0.924648        25.1610 
 391   0.0000       0.926346        25.2071 
 392   0.0000       0.927945        25.2507 
 393   0.0000       0.929481        25.2925 
 394   0.0000       0.930919        25.3316 
 395   0.0000       0.934740        25.4356 
 396   0.0000       0.939000        25.5515 
 397   0.0000       0.941875        25.6297 
 398   0.0000       0.948403        25.8074 
 399   0.0000       0.949184        25.8286 
 400   0.0000       0.952100        25.9079 
 401   0.0000       0.954198        25.9650 
 402   0.0000       0.955115        25.9900 
 403   0.0000       0.959063        26.0974 
 404   0.0000       0.962073        26.1793 
 405   0.0000       0.963200        26.2100 
 406   0.0000       0.972764        26.4702 
 407   0.0000       0.979842        26.6628 
 408   0.0000       0.981619        26.7112 
 409   0.0000       0.987582        26.8735 
 410   0.0000       0.990946        26.9650 
 411   0.0000       0.993420        27.0323 
 412   0.0000       0.999925        27.2093 
 413   0.0000       1.006975        27.4012 
 414   0.0000       1.012960        27.5641 
 415   0.0000       1.015434        27.6314 
 416   0.0000       1.019759        27.7490 
 417   0.0000       1.026630        27.9360 
 418   0.0000       1.031434        28.0667 
 419   0.0000       1.033665        28.1274 
 420   0.0000       1.041208        28.3327 
 421   0.0000       1.043718        28.4010 
 422   0.0000       1.051621        28.6161 
 423   0.0000       1.056111        28.7383 
 424   0.0000       1.062751        28.9189 
 425   0.0000       1.072379        29.1809 
 426   0.0000       1.077692        29.3255 
 427   0.0000       1.078506        29.3476 
 428   0.0000       1.081164        29.4200 
 429   0.0000       1.087052        29.5802 
 430   0.0000       1.089245        29.6399 
 431   0.0000       1.095406        29.8075 
 432   0.0000       1.099369        29.9154 
 433   0.0000       1.104638        30.0587 
 434   0.0000       1.109826        30.1999 
 435   0.0000       1.112404        30.2701 
 436   0.0000       1.115863        30.3642 
 437   0.0000       1.120986        30.5036 
 438   0.0000       1.121921        30.5290 
 439   0.0000       1.123314        30.5669 
 440   0.0000       1.127342        30.6765 
 441   0.0000       1.131510        30.7900 
 442   0.0000       1.135803        30.9068 
 443   0.0000       1.136937        30.9376 
 444   0.0000       1.139349        31.0032 
 445   0.0000       1.145155        31.1613 
 446   0.0000       1.145868        31.1807 
 447   0.0000       1.152420        31.3590 
 448   0.0000       1.155435        31.4410 
 449   0.0000       1.158903        31.5353 
 450   0.0000       1.160783        31.5865 
 451   0.0000       1.166339        31.7377 
 452   0.0000       1.168478        31.7959 
 453   0.0000       1.170891        31.8616 
 454   0.0000       1.172644        31.9093 
 455   0.0000       1.181201        32.1421 
 456   0.0000       1.183484        32.2042 
 457   0.0000       1.195871        32.5413 
 458   0.0000       1.200854        32.6769 
 459   0.0000       1.201773        32.7019 
 460   0.0000       1.202528        32.7225 
 461   0.0000       1.208250        32.8781 
 462   0.0000       1.210094        32.9283 
 463   0.0000       1.213556        33.0225 
 464   0.0000       1.215020        33.0624 
 465   0.0000       1.217305        33.1246 
 466   0.0000       1.223297        33.2876 
 467   0.0000       1.228589        33.4316 
 468   0.0000       1.229244        33.4494 
 469   0.0000       1.233664        33.5697 
 470   0.0000       1.237856        33.6838 
 471   0.0000       1.241173        33.7740 
 472   0.0000       1.244464        33.8636 
 473   0.0000       1.246540        33.9201 
 474   0.0000       1.250142        34.0181 
 475   0.0000       1.251112        34.0445 
 476   0.0000       1.253876        34.1197 
 477   0.0000       1.256856        34.2008 
 478   0.0000       1.260449        34.2985 
 479   0.0000       1.264290        34.4031 
 480   0.0000       1.267776        34.4979 
 481   0.0000       1.268843        34.5270 
 482   0.0000       1.271961        34.6118 
 483   0.0000       1.276653        34.7395 
 484   0.0000       1.282908        34.9097 
 485   0.0000       1.285775        34.9877 
 486   0.0000       1.288900        35.0727 
 487   0.0000       1.291700        35.1490 
 488   0.0000       1.294917        35.2365 
 489   0.0000       1.296398        35.2768 
 490   0.0000       1.302030        35.4300 
 491   0.0000       1.305225        35.5170 
 492   0.0000       1.310449        35.6591 
 493   0.0000       1.311795        35.6958 
 494   0.0000       1.317924        35.8625 
 495   0.0000       1.321716        35.9657 
 496   0.0000       1.323324        36.0095 
 497   0.0000       1.327791        36.1310 
 498   0.0000       1.329929        36.1892 
 499   0.0000       1.337982        36.4083 
 500   0.0000       1.338483        36.4220 
 501   0.0000       1.340111        36.4663 
 502   0.0000       1.343111        36.5479 
 503   0.0000       1.347391        36.6644 
 504   0.0000       1.349404        36.7191 
 505   0.0000       1.350658        36.7533 
 506   0.0000       1.353232        36.8233 
 507   0.0000       1.358053        36.9545 
 508   0.0000       1.360046        37.0087 
 509   0.0000       1.363770        37.1101 
[...]
      px      :     0.043611
      py      :     0.014046
 77 H s       :     0.884467  s :     0.884467
      pz      :     0.047979  p :     0.079295
      px      :     0.015024
      py      :     0.016292
 78 H s       :     0.884796  s :     0.884796
      pz      :     0.025886  p :     0.079269
      px      :     0.020455
      py      :     0.032929
 79 H s       :     0.910878  s :     0.910878
      pz      :     0.021807  p :     0.086296
      px      :     0.021654
      py      :     0.042835
 80 H s       :     0.864310  s :     0.864310
      pz      :     0.039395  p :     0.084833
      px      :     0.030286
      py      :     0.015152
 81 H s       :     0.886667  s :     0.886667
      pz      :     0.037837  p :     0.084137
      px      :     0.016174
      py      :     0.030126
 82 H s       :     0.916025  s :     0.916025
      pz      :     0.021962  p :     0.086734
      px      :     0.031655
      py      :     0.033117
 83 H s       :     0.873266  s :     0.873266
      pz      :     0.039289  p :     0.084124
      px      :     0.015272
      py      :     0.029563
 84 H s       :     0.886534  s :     0.886534
      pz      :     0.035777  p :     0.083422
      px      :     0.031703
      py      :     0.015943
 85 H s       :     0.892707  s :     0.892707
      pz      :     0.022493  p :     0.079791
      px      :     0.014063
      py      :     0.043235
 86 H s       :     0.890895  s :     0.890895
      pz      :     0.024734  p :     0.078836
      px      :     0.032987
      py      :     0.021115
 87 H s       :     0.889738  s :     0.889738
      pz      :     0.048028  p :     0.078751
      px      :     0.015586
      py      :     0.015138
 88 H s       :     0.910559  s :     0.910559
      pz      :     0.021602  p :     0.087006
      px      :     0.042947
      py      :     0.022458
 89 H s       :     0.870944  s :     0.870944
      pz      :     0.037971  p :     0.083871
      px      :     0.030517
      py      :     0.015383


                      *****************************
                      * MAYER POPULATION ANALYSIS *
                      *****************************

  NA   - Mulliken gross atomic population
  ZA   - Total nuclear charge
  QA   - Mulliken gross atomic charge
  VA   - Mayer's total valence
  BVA  - Mayer's bonded valence
  FA   - Mayer's free valence

  ATOM       NA         ZA         QA         VA         BVA        FA
  0 C      5.7703     6.0000     0.2297     3.8528     3.8528    -0.0000
  1 N      7.4551     7.0000    -0.4551     3.3524     3.3524     0.0000
  2 C      6.0640     6.0000    -0.0640     3.9240     3.9240    -0.0000
  3 N      7.3409     7.0000    -0.3409     3.4545     3.4545    -0.0000
  4 C      6.1413     6.0000    -0.1413     4.2016     4.2016     0.0000
  5 N      7.5689     7.0000    -0.5689     3.0966     3.0966    -0.0000
  6 C      6.0870     6.0000    -0.0870     3.9213     3.9213     0.0000
  7 N      7.3411     7.0000    -0.3411     3.4322     3.4322    -0.0000
  8 C      5.7793     6.0000     0.2207     3.8545     3.8545    -0.0000
  9 N      7.5623     7.0000    -0.5623     3.0768     3.0768     0.0000
 10 C      5.8805     6.0000     0.1195     3.9089     3.9089     0.0000
 11 N      7.4387     7.0000    -0.4387     3.3769     3.3769     0.0000
 12 C      6.0604     6.0000    -0.0604     3.8118     3.8118     0.0000
 13 N      7.4294     7.0000    -0.4294     3.4285     3.4285    -0.0000
 14 C      5.7865     6.0000     0.2135     3.8181     3.8181    -0.0000
 15 N      7.4407     7.0000    -0.4407     3.3733     3.3733     0.0000
 16 C      5.7657     6.0000     0.2343     3.7782     3.7782    -0.0000
 17 C      6.1022     6.0000    -0.1022     3.9423     3.9423     0.0000
 18 C      6.1806     6.0000    -0.1806     3.7460     3.7460     0.0000
 19 C      5.7879     6.0000     0.2121     3.8927     3.8927    -0.0000
 20 C      5.7867     6.0000     0.2133     3.8293     3.8293    -0.0000
 21 C      6.0602     6.0000    -0.0602     3.7694     3.7694    -0.0000
 22 C      6.0910     6.0000    -0.0910     3.9825     3.9825    -0.0000
 23 C      6.0396     6.0000    -0.0396     3.9929     3.9929     0.0000
 24 C      5.8072     6.0000     0.1928     3.8212     3.8212    -0.0000
 25 C      5.8853     6.0000     0.1147     3.8920     3.8920    -0.0000
 26 C      6.0800     6.0000    -0.0800     3.9078     3.9078    -0.0000
 27 C      5.7806     6.0000     0.2194     3.8634     3.8634    -0.0000
 28 C      6.0619     6.0000    -0.0619     3.9889     3.9889    -0.0000
 29 C      6.1834     6.0000    -0.1834     3.7486     3.7486    -0.0000
 30 C      5.7546     6.0000     0.2454     3.8001     3.8001     0.0000
 31 C      5.7699     6.0000     0.2301     3.8169     3.8169    -0.0000
 32 C      6.0613     6.0000    -0.0613     3.9233     3.9233    -0.0000
 33 C      6.0599     6.0000    -0.0599     3.9711     3.9711     0.0000
 34 C      6.0515     6.0000    -0.0515     3.9832     3.9832     0.0000
 35 C      5.7710     6.0000     0.2290     3.8165     3.8165    -0.0000
 36 C      5.8918     6.0000     0.1082     3.8747     3.8747     0.0000
 37 C      6.0647     6.0000    -0.0647     3.9176     3.9176     0.0000
 38 C      5.7690     6.0000     0.2310     3.8012     3.8012     0.0000
 39 C      6.0574     6.0000    -0.0574     3.9830     3.9830     0.0000
 40 C      6.1820     6.0000    -0.1820     3.7259     3.7259    -0.0000
 41 C      5.7736     6.0000     0.2264     3.8882     3.8882    -0.0000
 42 C      5.8027     6.0000     0.1973     3.8254     3.8254     0.0000
 43 C      6.0727     6.0000    -0.0727     3.8999     3.8999    -0.0000
 44 C      6.0893     6.0000    -0.0893     3.9847     3.9847     0.0000
 45 C      6.0617     6.0000    -0.0617     3.9918     3.9918    -0.0000
 46 C      5.7878     6.0000     0.2122     3.8284     3.8284    -0.0000
 47 C      5.8847     6.0000     0.1153     3.8926     3.8926     0.0000
 48 C      6.0663     6.0000    -0.0663     3.9096     3.9096    -0.0000
 49 C      5.7622     6.0000     0.2378     3.8954     3.8954    -0.0000
 50 C      6.0460     6.0000    -0.0460     3.9904     3.9904    -0.0000
 51 C      6.1923     6.0000    -0.1923     3.7386     3.7386    -0.0000
 52 H      0.9680     1.0000     0.0320     0.9859     0.9859     0.0000
 53 H      1.0192     1.0000    -0.0192     0.9992     0.9992    -0.0000
 54 H      0.9265     1.0000     0.0735     0.9282     0.9282     0.0000
 55 H      0.9699     1.0000     0.0301     0.9866     0.9866     0.0000
 56 H      0.9506     1.0000     0.0494     0.9694     0.9694     0.0000
 57 H      0.9522     1.0000     0.0478     0.9824     0.9824     0.0000
 58 H      0.9538     1.0000     0.0462     0.9846     0.9846    -0.0000
 59 H      1.0201     1.0000    -0.0201     0.9641     0.9641    -0.0000
 60 H      0.9379     1.0000     0.0621     0.9383     0.9383    -0.0000
 61 H      0.8291     1.0000     0.1709     1.0424     1.0424    -0.0000
 62 H      0.8246     1.0000     0.1754     1.0437     1.0437     0.0000
 63 H      0.9451     1.0000     0.0549     0.9853     0.9853    -0.0000
 64 H      1.0456     1.0000    -0.0456     0.9633     0.9633     0.0000
 65 H      0.9534     1.0000     0.0466     1.0101     1.0101    -0.0000
 66 H      0.9449     1.0000     0.0551     0.9855     0.9855     0.0000
 67 H      0.9379     1.0000     0.0621     0.9719     0.9719     0.0000
 68 H      0.9430     1.0000     0.0570     0.9868     0.9868     0.0000
 69 H      0.9439     1.0000     0.0561     0.9828     0.9828     0.0000
 70 H      1.0311     1.0000    -0.0311     0.9945     0.9945    -0.0000
 71 H      0.9555     1.0000     0.0445     1.0058     1.0058     0.0000
 72 H      0.9286     1.0000     0.0714     0.9835     0.9835    -0.0000
 73 H      1.0079     1.0000    -0.0079     1.0010     1.0010     0.0000
 74 H      0.9395     1.0000     0.0605     1.0100     1.0100     0.0000
 75 H      0.9291     1.0000     0.0709     0.9838     0.9838     0.0000
 76 H      0.9249     1.0000     0.0751     0.9721     0.9721     0.0000
 77 H      0.9319     1.0000     0.0681     0.9855     0.9855     0.0000
 78 H      0.9326     1.0000     0.0674     0.9854     0.9854    -0.0000
 79 H      1.0169     1.0000    -0.0169     0.9974     0.9974     0.0000
 80 H      0.9385     1.0000     0.0615     1.0072     1.0072     0.0000
 81 H      0.9454     1.0000     0.0546     0.9856     0.9856     0.0000
 82 H      1.0249     1.0000    -0.0249     0.9935     0.9935     0.0000
 83 H      0.9578     1.0000     0.0422     1.0083     1.0083     0.0000
 84 H      0.9455     1.0000     0.0545     0.9852     0.9852    -0.0000
 85 H      0.9389     1.0000     0.0611     0.9716     0.9716     0.0000
 86 H      0.9443     1.0000     0.0557     0.9839     0.9839    -0.0000
 87 H      0.9426     1.0000     0.0574     0.9857     0.9857     0.0000
 88 H      1.0144     1.0000    -0.0144     0.9968     0.9968     0.0000
 89 H      0.9528     1.0000     0.0472     1.0076     1.0076    -0.0000

  Mayer bond orders larger than 0.100000
B(  0-C ,  1-N ) :   1.1040 B(  0-C , 17-C ) :   1.7286 B(  0-C , 52-H ) :   0.9585 
B(  1-N ,  8-C ) :   1.0916 B(  1-N , 10-C ) :   0.9772 B(  2-C , 12-C ) :   1.4856 
B(  2-C , 16-C ) :   1.3795 B(  2-C , 53-H ) :   0.9701 B(  3-N , 14-C ) :   1.2270 
B(  3-N , 16-C ) :   1.1768 B(  3-N , 61-H ) :   0.8971 B(  4-C ,  6-C ) :   1.2314 
B(  4-C , 17-C ) :   1.2318 B(  4-C , 18-C ) :   1.4915 B(  5-N , 19-C ) :   1.4667 
B(  5-N , 27-C ) :   1.3672 B(  6-C ,  8-C ) :   1.7429 B(  6-C , 54-H ) :   0.8261 
B(  7-N , 30-C ) :   1.1950 B(  7-N , 38-C ) :   1.1896 B(  7-N , 62-H ) :   0.8968 
B(  8-C , 55-H ) :   0.9582 B(  9-N , 41-C ) :   1.3957 B(  9-N , 49-C ) :   1.4236 
B( 10-C , 56-H ) :   0.9777 B( 10-C , 57-H ) :   0.9823 B( 10-C , 58-H ) :   0.9836 
B( 11-N , 20-C ) :   1.1304 B( 11-N , 24-C ) :   1.1057 B( 11-N , 25-C ) :   0.9607 
B( 12-C , 14-C ) :   1.3628 B( 12-C , 59-H ) :   0.9040 B( 13-N , 31-C ) :   1.1614 
B( 13-N , 35-C ) :   1.1611 B( 13-N , 36-C ) :   0.9412 B( 14-C , 18-C ) :   1.1165 
B( 15-N , 42-C ) :   1.1080 B( 15-N , 46-C ) :   1.1254 B( 15-N , 47-C ) :   0.9610 
B( 16-C , 51-C ) :   1.1686 B( 17-C , 60-H ) :   0.8633 B( 18-C , 19-C ) :   1.1147 
B( 19-C , 21-C ) :   1.2565 B( 20-C , 28-C ) :   1.6297 B( 20-C , 63-H ) :   0.9703 
B( 21-C , 26-C ) :   1.5773 B( 21-C , 64-H ) :   0.8724 B( 22-C , 23-C ) :   1.2888 
B( 22-C , 28-C ) :   1.2627 B( 22-C , 29-C ) :   1.2281 B( 23-C , 24-C ) :   1.6210 
B( 23-C , 65-H ) :   0.9703 B( 24-C , 66-H ) :   0.9696 B( 25-C , 67-H ) :   0.9760 
B( 25-C , 68-H ) :   0.9828 B( 25-C , 69-H ) :   0.9824 B( 26-C , 27-C ) :   1.2708 
B( 26-C , 70-H ) :   0.9646 B( 27-C , 29-C ) :   1.2055 B( 28-C , 71-H ) :   0.9720 
B( 29-C , 30-C ) :   1.2469 B( 30-C , 32-C ) :   1.2791 B( 31-C , 39-C ) :   1.5874 
B( 31-C , 72-H ) :   0.9681 B( 32-C , 37-C ) :   1.5797 B( 32-C , 73-H ) :   0.9786 
B( 33-C , 34-C ) :   1.3067 B( 33-C , 39-C ) :   1.3046 B( 33-C , 40-C ) :   1.1763 
B( 34-C , 35-C ) :   1.5853 B( 34-C , 74-H ) :   0.9696 B( 35-C , 75-H ) :   0.9681 
B( 36-C , 76-H ) :   0.9768 B( 36-C , 77-H ) :   0.9816 B( 36-C , 78-H ) :   0.9823 
B( 37-C , 38-C ) :   1.2852 B( 37-C , 79-H ) :   0.9764 B( 38-C , 40-C ) :   1.2339 
B( 39-C , 80-H ) :   0.9705 B( 40-C , 41-C ) :   1.2501 B( 41-C , 43-C ) :   1.1839 
B( 42-C , 50-C ) :   1.6321 B( 42-C , 81-H ) :   0.9696 B( 43-C , 48-C ) :   1.6692 
B( 43-C , 82-H ) :   0.9721 B( 44-C , 45-C ) :   1.2639 B( 44-C , 50-C ) :   1.2735 
B( 44-C , 51-C ) :   1.2588 B( 45-C , 46-C ) :   1.6337 B( 45-C , 83-H ) :   0.9718 
B( 46-C , 84-H ) :   0.9700 B( 47-C , 85-H ) :   0.9762 B( 47-C , 86-H ) :   0.9829 
B( 47-C , 87-H ) :   0.9824 B( 48-C , 49-C ) :   1.1872 B( 48-C , 88-H ) :   0.9748 
B( 49-C , 51-C ) :   1.2470 B( 50-C , 89-H ) :   0.9708 B( 54-H , 64-H ) :   0.1515 
B( 59-H , 60-H ) :   0.1073 

-------
TIMINGS
-------

Total SCF time: 0 days 0 hours 31 min 4 sec 

Total time                  ....    1864.276 sec
Sum of individual times     ....    1859.629 sec  ( 99.8%)

Fock matrix formation       ....    1836.313 sec  ( 98.5%)
Diagonalization             ....       6.891 sec  (  0.4%)
Density matrix formation    ....       0.679 sec  (  0.0%)
Population analysis         ....       0.534 sec  (  0.0%)
Initial guess               ....       2.069 sec  (  0.1%)
Orbital Transformation      ....       0.000 sec  (  0.0%)
Orbital Orthonormalization  ....       0.000 sec  (  0.0%)
DIIS solution               ....       3.519 sec  (  0.2%)
SOSCF solution              ....       8.567 sec  (  0.5%)

Maximum memory used throughout the entire SCF-calculation: 302.7 MB


           ************************************************************
           *        Program running with 16 parallel MPI-processes    *
           *              working on a common directory               *
           ************************************************************

------------------------------------------------------------------------------
                                ORCA  MP2 
------------------------------------------------------------------------------

Freezing NCore=104 chemical core electrons

----------
MP2 ENERGY (disk based algorithm)
----------

Dimension of the basis                    ...  918
Memory devoted to MP2                     ... 2000 MB   
Data format for buffers                   ... DOUBLE
Compression type for matrix containers    ... UNCOMPRESSED

-------------------------------
PARTIAL EXCHANGE TRANSFORMATION
-------------------------------

Transformation type                        ... one-operator
Generation of integrals (i,mue|j,nue)      ... ON
Generation of integrals (mue,kappa|nue,tau)... OFF
Generation of integrals (i,mue|a,nue)      ... OFF
Dimension of the basis                     ...  918
Number of internal MOs                     ...  127 (  52- 178)
Pair cutoff                                ... 2.500e-12 Eh
Number of AO pairs in the trafo            ... 421821
Total Number of distinct AO pairs          ... 421821
Memory devoted for trafo                   ... 2000.0 MB 
Max. Number of MO pairs treated together   ...  311      
Number Format for Storage                  ... Double (8 Byte)
Integral package used                      ... LIBINT

Starting integral evaluation:
    ... done with AO integral generation
Closing buffer AOK     (38.19 GB; CompressionRatio= 1.33)
Collecting buffer AOK 
Number of MO pairs included in the trafo   ... 8128
------------------------
SORTING OF (i,mue|j,nue)
------------------------

IBATCH = 1 of  2
IBATCH = 2 of  2
Closing buffer KAO     (51.03 GB; CompressionRatio= 1.00)
Collecting buffer KAO 
N(AO-Batches) Done                         ...  86080395 
N(AO-Batches) Skipped                      ...  82438148 
N(IJ)-pairs Skipped                        ...         0 
TOTAL TIME for half transformation         ...  3179.526 sec
AO-integral generation                     ...   215.384 sec
Half transformation                        ...   374.426 sec
K-integral sorting                         ...  2414.437 sec
Process 10:   Internal MO 132
Process 13:   Internal MO 156
Process  1:   Internal MO  60
Process  4:   Internal MO  84

Finished integral transformation - now doing MP2 part

OPERATOR COMBINATION   0   0: ij=( 52..178, 52..178)
Process  7:   Internal MO 108
Process  1:   Internal MO  63
Process  0:   Internal MO  54
Process  2:   Internal MO  69
Process  0:   Internal MO  57
Process  5:   Internal MO  93
Process  3:   Internal MO  78
Process  1:   Internal MO  66
Process  8:   Internal MO 117
Process  4:   Internal MO  87
Process  2:   Internal MO  72
Process  6:   Internal MO 102
Process 11:   Internal MO 141
Process 14:   Internal MO 165
Process  3:   Internal MO  81
Process  9:   Internal MO 126
Process  2:   Internal MO  75
Process  7:   Internal MO 111
Process  5:   Internal MO  96
Process 12:   Internal MO 150
Process  4:   Internal MO  90
Process 15:   Internal MO 174
Process  6:   Internal MO 105
Process 10:   Internal MO 135
Process  8:   Internal MO 120
Process 13:   Internal MO 159
Process  5:   Internal MO  99
Process  7:   Internal MO 114
Process  9:   Internal MO 129
Process 11:   Internal MO 144
Process 14:   Internal MO 168
Process 10:   Internal MO 138
Process  8:   Internal MO 123
Process 12:   Internal MO 153
Process 15:   Internal MO 177
Process 13:   Internal MO 162
Process 11:   Internal MO 147
Process 14:   Internal MO 171
-----------------------------------------------
 MP2 CORRELATION ENERGY   :     -7.293858969 Eh
-----------------------------------------------


-------
TIMINGS
-------
Total time                : 3741.111 sec
Integral trafo            : 3181.830 sec ( 85.1%)
K(i,j)                    :   26.159 sec (  0.7%)
T(i,j)                    :    2.189 sec (  0.1%)

---------------------------------------
MP2 TOTAL ENERGY:    -2130.727922703 Eh
---------------------------------------

Maximum memory used throughout the entire MP2-calculation: 2275.3 MB

-------------------------   --------------------
FINAL SINGLE POINT ENERGY     -2130.727922703208
-------------------------   --------------------


                            ***************************************
                            *     ORCA property calculations      *
                            ***************************************


  WARNING: The energy has been calculated at the MP2 level but the densities
           used in the property calculations are still SCF densities
           MP2 response densities have not been calculated 
           use %mp2 Density relaxed end
           or  %mp2 Density unrelaxed end

                                    ---------------------
                                    Active property flags
                                    ---------------------
   (+) Dipole Moment


------------------------------------------------------------------------------
                       ORCA ELECTRIC PROPERTIES CALCULATION
------------------------------------------------------------------------------

Dipole Moment Calculation                       ... on
Quadrupole Moment Calculation                   ... off
Polarizability Calculation                      ... off
GBWName                                         ... /scratch/allen/tmpyp4_amber_gaff2/conf1/conf1/Conf4.orca.gbw
Electron density                                ... /scratch/allen/tmpyp4_amber_gaff2/conf1/conf1/Conf4.orca.scfp
The origin for moment calculation is the CENTER OF MASS  = (-0.001241, -0.004944  0.002193)

-------------
DIPOLE MOMENT
-------------
                                X             Y             Z
Electronic contribution:      2.90882      -4.23309      -0.08007
Nuclear contribution   :     -0.03753       0.16163       0.09944
                        -----------------------------------------
Total Dipole Moment    :      2.87129      -4.07146       0.01937
                        -----------------------------------------
Magnitude (a.u.)       :      4.98211
Magnitude (Debye)      :     12.66353



--------------------
Rotational spectrum 
--------------------
 
Rotational constants in cm-1:     0.001504     0.001478     0.000760 
Rotational constants in MHz :    45.074406    44.301176    22.780280 

 Dipole components along the rotational axes: 
x,y,z [a.u.] :    -3.525257    -3.520440     0.022887 
x,y,z [Debye]:    -8.960491    -8.948247     0.058175 

 

Timings for individual modules:

Sum of individual times         ...     5630.940 sec (=  93.849 min)
GTO integral calculation        ...        8.225 sec (=   0.137 min)   0.1 %
SCF iterations                  ...     1866.888 sec (=  31.115 min)  33.2 %
MP2 module                      ...     3755.826 sec (=  62.597 min)  66.7 %
                             ****ORCA TERMINATED NORMALLY****
TOTAL RUN TIME: 0 days 1 hours 33 minutes 54 seconds 495 msec
# of primitive gaussian functions

