
                                 *****************
                                 * O   R   C   A *
                                 *****************

                                            #,                                       
                                            ###                                      
                                            ####                                     
                                            #####                                    
                                            ######                                   
                                           ########,                                 
                                     ,,################,,,,,                         
                               ,,#################################,,                 
                          ,,##########################################,,             
                       ,#########################################, ''#####,          
                    ,#############################################,,   '####,        
                  ,##################################################,,,,####,       
                ,###########''''           ''''###############################       
              ,#####''   ,,,,##########,,,,          '''####'''          '####       
            ,##' ,,,,###########################,,,                        '##       
           ' ,,###''''                  '''############,,,                           
         ,,##''                                '''############,,,,        ,,,,,,###''
      ,#''                                            '''#######################'''  
     '                                                          ''''####''''         
             ,#######,   #######,   ,#######,      ##                                
            ,#'     '#,  ##    ##  ,#'     '#,    #''#        ######   ,####,        
            ##       ##  ##   ,#'  ##            #'  '#       #        #'  '#        
            ##       ##  #######   ##           ,######,      #####,   #    #        
            '#,     ,#'  ##    ##  '#,     ,#' ,#      #,         ##   #,  ,#        
             '#######'   ##     ##  '#######'  #'      '#     #####' # '####'        



                  #######################################################
                  #                        -***-                        #
                  #          Department of theory and spectroscopy      #
                  #    Directorship and core code : Frank Neese         #
                  #        Max Planck Institute fuer Kohlenforschung    #
                  #                Kaiser Wilhelm Platz 1               #
                  #                 D-45470 Muelheim/Ruhr               #
                  #                      Germany                        #
                  #                                                     #
                  #                  All rights reserved                #
                  #                        -***-                        #
                  #######################################################


                         Program Version 5.0.4 -  RELEASE  -


 With contributions from (in alphabetic order):
   Daniel Aravena         : Magnetic Suceptibility
   Michael Atanasov       : Ab Initio Ligand Field Theory (pilot matlab implementation)
   Alexander A. Auer      : GIAO ZORA, VPT2 properties, NMR spectrum
   Ute Becker             : Parallelization
   Giovanni Bistoni       : ED, misc. LED, open-shell LED, HFLD
   Martin Brehm           : Molecular dynamics
   Dmytro Bykov           : SCF Hessian
   Vijay G. Chilkuri      : MRCI spin determinant printing, contributions to CSF-ICE
   Dipayan Datta          : RHF DLPNO-CCSD density
   Achintya Kumar Dutta   : EOM-CC, STEOM-CC
   Dmitry Ganyushin       : Spin-Orbit,Spin-Spin,Magnetic field MRCI
   Miquel Garcia          : C-PCM and meta-GGA Hessian, CC/C-PCM, Gaussian charge scheme
   Yang Guo               : DLPNO-NEVPT2, F12-NEVPT2, CIM, IAO-localization
   Andreas Hansen         : Spin unrestricted coupled pair/coupled cluster methods
   Benjamin Helmich-Paris : MC-RPA, TRAH-SCF, COSX integrals
   Lee Huntington         : MR-EOM, pCC
   Robert Izsak           : Overlap fitted RIJCOSX, COSX-SCS-MP3, EOM
   Marcus Kettner         : VPT2
   Christian Kollmar      : KDIIS, OOCD, Brueckner-CCSD(T), CCSD density, CASPT2, CASPT2-K
   Simone Kossmann        : Meta GGA functionals, TD-DFT gradient, OOMP2, MP2 Hessian
   Martin Krupicka        : Initial AUTO-CI
   Lucas Lang             : DCDCAS
   Marvin Lechner         : AUTO-CI (C++ implementation), FIC-MRCC
   Dagmar Lenk            : GEPOL surface, SMD
   Dimitrios Liakos       : Extrapolation schemes; Compound Job, initial MDCI parallelization
   Dimitrios Manganas     : Further ROCIS development; embedding schemes
   Dimitrios Pantazis     : SARC Basis sets
   Anastasios Papadopoulos: AUTO-CI, single reference methods and gradients
   Taras Petrenko         : DFT Hessian,TD-DFT gradient, ASA, ECA, R-Raman, ABS, FL, XAS/XES, NRVS
   Peter Pinski           : DLPNO-MP2, DLPNO-MP2 Gradient
   Christoph Reimann      : Effective Core Potentials
   Marius Retegan         : Local ZFS, SOC
   Christoph Riplinger    : Optimizer, TS searches, QM/MM, DLPNO-CCSD(T), (RO)-DLPNO pert. Triples
   Tobias Risthaus        : Range-separated hybrids, TD-DFT gradient, RPA, STAB
   Michael Roemelt        : Original ROCIS implementation
   Masaaki Saitow         : Open-shell DLPNO-CCSD energy and density
   Barbara Sandhoefer     : DKH picture change effects
   Avijit Sen             : IP-ROCIS
   Kantharuban Sivalingam : CASSCF convergence, NEVPT2, FIC-MRCI
   Bernardo de Souza      : ESD, SOC TD-DFT
   Georgi Stoychev        : AutoAux, RI-MP2 NMR, DLPNO-MP2 response
   Willem Van den Heuvel  : Paramagnetic NMR
   Boris Wezisla          : Elementary symmetry handling
   Frank Wennmohs         : Technical directorship


 We gratefully acknowledge several colleagues who have allowed us to
 interface, adapt or use parts of their codes:
   Stefan Grimme, W. Hujo, H. Kruse, P. Pracht,  : VdW corrections, initial TS optimization,
                  C. Bannwarth, S. Ehlert          DFT functionals, gCP, sTDA/sTD-DF
   Ed Valeev, F. Pavosevic, A. Kumar             : LibInt (2-el integral package), F12 methods
   Garnet Chan, S. Sharma, J. Yang, R. Olivares  : DMRG
   Ulf Ekstrom                                   : XCFun DFT Library
   Mihaly Kallay                                 : mrcc  (arbitrary order and MRCC methods)
   Jiri Pittner, Ondrej Demel                    : Mk-CCSD
   Frank Weinhold                                : gennbo (NPA and NBO analysis)
   Christopher J. Cramer and Donald G. Truhlar   : smd solvation model
   Lars Goerigk                                  : TD-DFT with DH, B97 family of functionals
   V. Asgeirsson, H. Jonsson                     : NEB implementation
   FAccTs GmbH                                   : IRC, NEB, NEB-TS, DLPNO-Multilevel, CI-OPT
                                                   MM, QMMM, 2- and 3-layer-ONIOM, Crystal-QMMM,
                                                   LR-CPCM, SF, NACMEs, symmetry and pop. for TD-DFT,
                                                   nearIR, NL-DFT gradient (VV10), updates on ESD,
                                                   ML-optimized integration grids
   S Lehtola, MJT Oliveira, MAL Marques          : LibXC Library
   Liviu Ungur et al                             : ANISO software


 Your calculation uses the libint2 library for the computation of 2-el integrals
 For citations please refer to: http://libint.valeyev.net

 Your ORCA version has been built with support for libXC version: 5.1.0
 For citations please refer to: https://tddft.org/programs/libxc/

 This ORCA versions uses:
   CBLAS   interface :  Fast vector & matrix operations
   LAPACKE interface :  Fast linear algebra routines
   SCALAPACK package :  Parallel linear algebra routines
   Shared memory     :  Shared parallel matrices
   BLAS/LAPACK       :  OpenBLAS 0.3.15  USE64BITINT DYNAMIC_ARCH NO_AFFINITY Sandybridge SINGLE_THREADED
        Core in use  :  Sandybridge
   Copyright (c) 2011-2014, The OpenBLAS Project


================================================================================

----- Orbital basis set information -----
Your calculation utilizes the basis: cc-pVDZ 
       H, B-Ne : Obtained from the ccRepo (grant-hill.group.shef.ac.uk/ccrepo) Feb. 2017
                 T. H. Dunning, Jr., J. Chem. Phys. 90, 1007 (1989)
            He : Obtained from the ccRepo (grant-hill.group.shef.ac.uk/ccrepo) Feb. 2017
                 D. E. Woon, T. H. Dunning, Jr., J. Chem. Phys. 100, 2975 (1994)
  Li-Be, Na-Mg : Obtained from the ccRepo (grant-hill.group.shef.ac.uk/ccrepo) Feb. 2017
                 B. P. Prascher, D. E. Woon, K. A. Peterson, T. H. Dunning, Jr., A. K. Wilson, Theor. Chem. Acc. 128, 69 (2011)
         Al-Ar : Obtained from the ccRepo (grant-hill.group.shef.ac.uk/ccrepo) Feb. 2017
                 D. E. Woon, T. H. Dunning, Jr., J. Chem. Phys. 98, 1358 (1993)
            Ca : Obtained from the Peterson Research Group Website (tyr0.chem.wsu.edu/~kipeters) Feb. 2017
                 J. Koput, K. A. Peterson, J. Phys. Chem. 106, 9595 (2002)
         Sc-Zn : Obtained from the ccRepo (grant-hill.group.shef.ac.uk/ccrepo) Feb. 2017
                 N. B. Balabanov, K. A. Peterson, J. Chem. Phys. 123, 064107 (2005)
                 N. B. Balabanov, K. A. Peterson, J. Chem. Phys. 125, 074110 (2006)
         Ga-Kr : Obtained from the ccRepo (grant-hill.group.shef.ac.uk/ccrepo) Feb. 2017
                 A. K. Wilson, D. E. Woon, K. A. Peterson, T. H. Dunning, Jr., J. Chem. Phys. 110, 7667 (1999)

================================================================================
                                        WARNINGS
                       Please study these warnings very carefully!
================================================================================


WARNING: No MP2 level density has been requested!
         To caclulate MP2 level properties use
         %mp2 Density relaxed end
         or
         %mp2 Density unrelaxed end

WARNING: Post HF methods need fully converged wavefunctions
  ===> : Setting SCFConvForced true
         You can overwrite this default with %scf ConvForced false 


INFO   : the flag for use of the SHARK integral package has been found!

================================================================================
                                       INPUT FILE
================================================================================
NAME = /scratch/allen/tmpyp4_amber_gaff2/2.Mdgx/conf11/conf11/Conf19.orca
|  1> ! PAL2
|  2> ! mp2 cc-pvdz TightSCF  NoKeepInts
|  3> 
|  4> %scf
|  5>   MaxCore 2000
|  6> end
|  7> %mp2
|  8>   MaxCore 2000
|  9> end
| 10> * xyz 0 1
| 11>    C       -3.07500         6.47300        -0.24000
| 12>    C        1.47400         4.04100         0.05700
| 13>    C       -2.80200         4.09300         0.04900
| 14>    C       -4.15600         4.03400         0.41200
| 15>    C       -4.91900         5.18400         0.43500
| 16>    C       -5.23000         7.59000         0.11300
| 17>    C        0.13200         4.30700         0.06100
| 18>    C       -0.56900         3.05600         0.04700
| 19>    C        1.64900         2.61800         0.02300
| 20>    C       -2.27300         5.35000        -0.28300
| 21>    N       -4.37600         6.38200         0.11600
| 22>    N        0.38800         2.06700         0.02500
| 23>    N       -2.01000         0.39500        -0.07500
| 24>    N       -0.38800        -2.07400        -0.02700
| 25>    N        2.01000        -0.40100         0.06500
| 26>    C       -1.96000         2.86100         0.02400
| 27>    C       -2.62300         1.61500        -0.01800
| 28>    C       -5.57300        -4.32900         1.06600
| 29>    C       -4.07300         1.47100         0.05600
| 30>    C       -4.10600        -2.75600        -0.02600
| 31>    C       -4.99500        -2.75700        -1.11100
| 32>    C       -6.13200        -3.54200        -1.07600
| 33>    C       -7.65100        -5.11300         0.04000
| 34>    C       -4.32400         0.14100         0.03700
| 35>    C       -3.02500        -0.52000        -0.04800
| 36>    C       -4.42200        -3.56600         1.07500
| 37>    N       -6.40700        -4.31300         0.00100
| 38>    C       -2.86700        -1.92200        -0.04000
| 39>    C       -1.65000        -2.62400        -0.02700
| 40>    C        3.56800        -6.14200        -1.04000
| 41>    C       -1.47600        -4.04900        -0.03400
| 42>    C        2.80300        -4.09900        -0.00800
| 43>    C        3.65700        -4.38400         1.06900
| 44>    C        4.42700        -5.53000         1.05900
| 45>    C        5.24500        -7.58800         0.01400
| 46>    C       -0.13400        -4.31500        -0.02200
| 47>    C        0.56800        -3.06400        -0.02700
| 48>    C        2.77500        -5.01200        -1.07400
| 49>    N        4.37600        -6.39100         0.01700
| 50>    C        1.95900        -2.86900        -0.00900
| 51>    C        2.62100        -1.62200         0.00900
| 52>    C        5.54300         4.33900        -1.13000
| 53>    C        4.07000        -1.47900        -0.09400
| 54>    C        4.10400         2.75100        -0.02100
| 55>    C        5.02700         2.72900         1.03600
| 56>    C        6.16600         3.50900         0.97800
| 57>    C        7.61900         5.15300        -0.11500
| 58>    C        4.32100        -0.14800        -0.09200
| 59>    C        3.02500         0.51400         0.01500
| 60>    C        4.38700         3.58200        -1.11500
| 61>    C        2.86600         1.91600         0.01300
| 62>    N        6.41300         4.29600        -0.09500
| 63>    H       -2.70600         7.46400        -0.47600
| 64>    H        2.27400         4.76600         0.08100
| 65>    H       -4.62500         3.09200         0.67000
| 66>    H       -5.96900         5.18600         0.70000
| 67>    H       -5.72600         7.67300        -0.85700
| 68>    H       -5.97200         7.49800         0.90600
| 69>    H       -4.60200         8.46300         0.28800
| 70>    H       -0.33200         5.28200         0.06900
| 71>    H       -1.23000         5.46300        -0.55800
| 72>    H        0.18200         1.07200         0.00500
| 73>    H       -0.18300        -1.08000        -0.02100
| 74>    H       -5.86400        -4.96200         1.89500
| 75>    H       -4.79400         2.27200         0.13900
| 76>    H       -4.80000        -2.16000        -1.99400
| 77>    H       -6.84100        -3.58200        -1.89300
| 78>    H       -8.42800        -4.53600         0.54600
| 79>    H       -7.95600        -5.33700        -0.98100
| 80>    H       -7.45600        -6.03700         0.58400
| 81>    H       -5.28700        -0.34400         0.10000
| 82>    H       -3.78000        -3.60100         1.94700
| 83>    H        3.58700        -6.86800        -1.84300
| 84>    H       -2.27600        -4.77400        -0.05000
| 85>    H        3.71400        -3.72400         1.92600
| 86>    H        5.09200        -5.79500         1.87100
| 87>    H        6.20500        -7.32900        -0.43900
| 88>    H        5.39300        -7.91700         1.04200
| 89>    H        4.75900        -8.37300        -0.56400
| 90>    H        0.32900        -5.29000        -0.00800
| 91>    H        2.14600        -4.84200        -1.94000
| 92>    H        5.80800         4.98600        -1.95600
| 93>    H        4.78800        -2.28100        -0.18500
| 94>    H        4.86000         2.11400         1.91200
| 95>    H        6.90100         3.53100         1.77200
| 96>    H        7.38300         6.10900         0.35600
| 97>    H        8.41400         4.65200         0.43500
| 98>    H        7.92100         5.31000        -1.15000
| 99>    H        5.28300         0.33600        -0.17900
|100>    H        3.72000         3.63200        -1.96700
|101> *
|102> 
|103>                          ****END OF INPUT****
================================================================================

                       ****************************
                       * Single Point Calculation *
                       ****************************

---------------------------------
CARTESIAN COORDINATES (ANGSTROEM)
---------------------------------
  C     -3.075000    6.473000   -0.240000
  C      1.474000    4.041000    0.057000
  C     -2.802000    4.093000    0.049000
  C     -4.156000    4.034000    0.412000
  C     -4.919000    5.184000    0.435000
  C     -5.230000    7.590000    0.113000
  C      0.132000    4.307000    0.061000
  C     -0.569000    3.056000    0.047000
  C      1.649000    2.618000    0.023000
  C     -2.273000    5.350000   -0.283000
  N     -4.376000    6.382000    0.116000
  N      0.388000    2.067000    0.025000
  N     -2.010000    0.395000   -0.075000
  N     -0.388000   -2.074000   -0.027000
  N      2.010000   -0.401000    0.065000
  C     -1.960000    2.861000    0.024000
  C     -2.623000    1.615000   -0.018000
  C     -5.573000   -4.329000    1.066000
  C     -4.073000    1.471000    0.056000
  C     -4.106000   -2.756000   -0.026000
  C     -4.995000   -2.757000   -1.111000
  C     -6.132000   -3.542000   -1.076000
  C     -7.651000   -5.113000    0.040000
  C     -4.324000    0.141000    0.037000
  C     -3.025000   -0.520000   -0.048000
  C     -4.422000   -3.566000    1.075000
  N     -6.407000   -4.313000    0.001000
  C     -2.867000   -1.922000   -0.040000
  C     -1.650000   -2.624000   -0.027000
  C      3.568000   -6.142000   -1.040000
  C     -1.476000   -4.049000   -0.034000
  C      2.803000   -4.099000   -0.008000
  C      3.657000   -4.384000    1.069000
  C      4.427000   -5.530000    1.059000
  C      5.245000   -7.588000    0.014000
  C     -0.134000   -4.315000   -0.022000
  C      0.568000   -3.064000   -0.027000
  C      2.775000   -5.012000   -1.074000
  N      4.376000   -6.391000    0.017000
  C      1.959000   -2.869000   -0.009000
  C      2.621000   -1.622000    0.009000
  C      5.543000    4.339000   -1.130000
  C      4.070000   -1.479000   -0.094000
  C      4.104000    2.751000   -0.021000
  C      5.027000    2.729000    1.036000
  C      6.166000    3.509000    0.978000
  C      7.619000    5.153000   -0.115000
  C      4.321000   -0.148000   -0.092000
  C      3.025000    0.514000    0.015000
  C      4.387000    3.582000   -1.115000
  C      2.866000    1.916000    0.013000
  N      6.413000    4.296000   -0.095000
  H     -2.706000    7.464000   -0.476000
  H      2.274000    4.766000    0.081000
  H     -4.625000    3.092000    0.670000
  H     -5.969000    5.186000    0.700000
  H     -5.726000    7.673000   -0.857000
  H     -5.972000    7.498000    0.906000
  H     -4.602000    8.463000    0.288000
  H     -0.332000    5.282000    0.069000
  H     -1.230000    5.463000   -0.558000
  H      0.182000    1.072000    0.005000
  H     -0.183000   -1.080000   -0.021000
  H     -5.864000   -4.962000    1.895000
  H     -4.794000    2.272000    0.139000
  H     -4.800000   -2.160000   -1.994000
  H     -6.841000   -3.582000   -1.893000
  H     -8.428000   -4.536000    0.546000
  H     -7.956000   -5.337000   -0.981000
  H     -7.456000   -6.037000    0.584000
  H     -5.287000   -0.344000    0.100000
  H     -3.780000   -3.601000    1.947000
  H      3.587000   -6.868000   -1.843000
  H     -2.276000   -4.774000   -0.050000
  H      3.714000   -3.724000    1.926000
  H      5.092000   -5.795000    1.871000
  H      6.205000   -7.329000   -0.439000
  H      5.393000   -7.917000    1.042000
  H      4.759000   -8.373000   -0.564000
  H      0.329000   -5.290000   -0.008000
  H      2.146000   -4.842000   -1.940000
  H      5.808000    4.986000   -1.956000
  H      4.788000   -2.281000   -0.185000
  H      4.860000    2.114000    1.912000
  H      6.901000    3.531000    1.772000
  H      7.383000    6.109000    0.356000
  H      8.414000    4.652000    0.435000
  H      7.921000    5.310000   -1.150000
  H      5.283000    0.336000   -0.179000
  H      3.720000    3.632000   -1.967000

----------------------------
CARTESIAN COORDINATES (A.U.)
----------------------------
  NO LB      ZA    FRAG     MASS         X           Y           Z
   0 C     6.0000    0    12.011   -5.810908   12.232197   -0.453534
   1 C     6.0000    0    12.011    2.785456    7.636383    0.107714
   2 C     6.0000    0    12.011   -5.295013    7.734649    0.092597
   3 C     6.0000    0    12.011   -7.853702    7.623155    0.778567
   4 C     6.0000    0    12.011   -9.295563    9.796340    0.822031
   5 C     6.0000    0    12.011   -9.883268   14.343021    0.213539
   6 C     6.0000    0    12.011    0.249444    8.139050    0.115273
   7 C     6.0000    0    12.011   -1.075254    5.775003    0.088817
   8 C     6.0000    0    12.011    3.116158    4.947303    0.043464
   9 C     6.0000    0    12.011   -4.295348   10.110035   -0.534792
  10 N     7.0000    0    14.007   -8.269442   12.060232    0.219208
  11 N     7.0000    0    14.007    0.733214    3.906064    0.047243
  12 N     7.0000    0    14.007   -3.798350    0.746442   -0.141729
  13 N     7.0000    0    14.007   -0.733214   -3.919292   -0.051023
  14 N     7.0000    0    14.007    3.798350   -0.757780    0.122832
  15 C     6.0000    0    12.011   -3.703863    5.406506    0.045353
  16 C     6.0000    0    12.011   -4.956752    3.051908   -0.034015
  17 C     6.0000    0    12.011  -10.531444   -8.180624    2.014448
  18 C     6.0000    0    12.011   -7.696855    2.779787    0.105825
  19 C     6.0000    0    12.011   -7.759216   -5.208085   -0.049133
  20 C     6.0000    0    12.011   -9.439182   -5.209975   -2.099486
  21 C     6.0000    0    12.011  -11.587801   -6.693410   -2.033345
  22 C     6.0000    0    12.011  -14.458295   -9.662170    0.075589
  23 C     6.0000    0    12.011   -8.171176    0.266451    0.069920
  24 C     6.0000    0    12.011   -5.716422   -0.982658   -0.090707
  25 C     6.0000    0    12.011   -8.356369   -6.738763    2.031456
  26 N     7.0000    0    14.007  -12.107475   -8.150389    0.001890
  27 C     6.0000    0    12.011   -5.417845   -3.632054   -0.075589
  28 C     6.0000    0    12.011   -3.118048   -4.958641   -0.051023
  29 C     6.0000    0    12.011    6.742543  -11.606698   -1.965315
  30 C     6.0000    0    12.011   -2.789236   -7.651501   -0.064251
  31 C     6.0000    0    12.011    5.296902   -7.745987   -0.015118
  32 C     6.0000    0    12.011    6.910728   -8.284559    2.020117
  33 C     6.0000    0    12.011    8.365818  -10.450186    2.001220
  34 C     6.0000    0    12.011    9.911614  -14.339242    0.026456
  35 C     6.0000    0    12.011   -0.253223   -8.154168   -0.041574
  36 C     6.0000    0    12.011    1.073364   -5.790121   -0.051023
  37 C     6.0000    0    12.011    5.243990   -9.471307   -2.029566
  38 N     7.0000    0    14.007    8.269442  -12.077240    0.032125
  39 C     6.0000    0    12.011    3.701973   -5.421624   -0.017008
  40 C     6.0000    0    12.011    4.952972   -3.065136    0.017008
  41 C     6.0000    0    12.011   10.474752    8.199522   -2.135391
  42 C     6.0000    0    12.011    7.691185   -2.794905   -0.177634
  43 C     6.0000    0    12.011    7.755436    5.198637   -0.039684
  44 C     6.0000    0    12.011    9.499653    5.157063    1.957756
  45 C     6.0000    0    12.011   11.652051    6.631049    1.848152
  46 C     6.0000    0    12.011   14.397823    9.737759   -0.217319
  47 C     6.0000    0    12.011    8.165507   -0.279679   -0.173855
  48 C     6.0000    0    12.011    5.716422    0.971319    0.028346
  49 C     6.0000    0    12.011    8.290229    6.768999   -2.107045
  50 C     6.0000    0    12.011    5.415955    3.620715    0.024566
  51 N     7.0000    0    14.007   12.118814    8.118263   -0.179524
  52 H     1.0000    0     1.008   -5.113599   14.104916   -0.899510
  53 H     1.0000    0     1.008    4.297237    9.006435    0.153068
  54 H     1.0000    0     1.008   -8.739983    5.843033    1.266117
  55 H     1.0000    0     1.008  -11.279775    9.800120    1.322808
  56 H     1.0000    0     1.008  -10.820572   14.499869   -1.619495
  57 H     1.0000    0     1.008  -11.285444   14.169167    1.712092
  58 H     1.0000    0     1.008   -8.696520   15.992752    0.544241
  59 H     1.0000    0     1.008   -0.627389    9.981533    0.130391
  60 H     1.0000    0     1.008   -2.324363   10.323574   -1.054467
  61 H     1.0000    0     1.008    0.343930    2.025786    0.009449
  62 H     1.0000    0     1.008   -0.345820   -2.040904   -0.039684
  63 H     1.0000    0     1.008  -11.081354   -9.376821    3.581031
  64 H     1.0000    0     1.008   -9.059347    4.293458    0.262672
  65 H     1.0000    0     1.008   -9.070685   -4.081808   -3.768114
  66 H     1.0000    0     1.008  -12.927616   -6.768999   -3.577252
  67 H     1.0000    0     1.008  -15.926612   -8.571798    1.031790
  68 H     1.0000    0     1.008  -15.034661  -10.085468   -1.853821
  69 H     1.0000    0     1.008  -14.089798  -11.408277    1.103600
  70 H     1.0000    0     1.008   -9.990982   -0.650066    0.188973
  71 H     1.0000    0     1.008   -7.143165   -6.804904    3.679297
  72 H     1.0000    0     1.008    6.778448  -12.978639   -3.482765
  73 H     1.0000    0     1.008   -4.301017   -9.021553   -0.094486
  74 H     1.0000    0     1.008    7.018443   -7.037340    3.639613
  75 H     1.0000    0     1.008    9.622485  -10.950963    3.535678
  76 H     1.0000    0     1.008   11.725751  -13.849803   -0.829590
  77 H     1.0000    0     1.008   10.191293  -14.960962    1.969095
  78 H     1.0000    0     1.008    8.993207  -15.822677   -1.065806
  79 H     1.0000    0     1.008    0.621720   -9.996651   -0.015118
  80 H     1.0000    0     1.008    4.055352   -9.150054   -3.666069
  81 H     1.0000    0     1.008   10.975529    9.422175   -3.696304
  82 H     1.0000    0     1.008    9.048009   -4.310465   -0.349599
  83 H     1.0000    0     1.008    9.184069    3.994881    3.613156
  84 H     1.0000    0     1.008   13.041000    6.672623    3.348595
  85 H     1.0000    0     1.008   13.951848   11.544337    0.672743
  86 H     1.0000    0     1.008   15.900156    8.791006    0.822031
  87 H     1.0000    0     1.008   14.968521   10.034446   -2.173185
  88 H     1.0000    0     1.008    9.983423    0.634948   -0.338261
  89 H     1.0000    0     1.008    7.029781    6.863485   -3.717091

--------------------------------
INTERNAL COORDINATES (ANGSTROEM)
--------------------------------
 C      0   0   0     0.000000000000     0.00000000     0.00000000
 C      1   0   0     5.166839846560     0.00000000     0.00000000
 C      1   2   0     2.412975341772    55.19707264     0.00000000
 C      3   1   2     1.403055950417    87.89565988   165.38533555
 C      4   3   1     1.380289100153   120.18086936     0.10960218
 C      5   4   3     2.447292585695   152.51800038     1.65702382
 C      2   1   3     1.368114030335    17.26059928   354.83434159
 C      7   2   1     1.434084376876   108.05010202   167.63667436
 C      2   1   3     1.434123425651   124.96769476    10.06012059
 C      1   2   3     1.380645501206    26.81182874   343.36093396
 N      1   2   3     1.351894226632   143.17371116    25.03880503
 N      9   2   1     1.376127174356   106.58526707   354.53175794
 N     12   9   2     2.925062050624   168.53581413   171.12065651
 N     13  12   9     2.954513327098    91.55032014    11.12112580
 N     14  13  12     2.925371258490    88.43092389   359.84326247
 C      8   7   2     1.404790019896   127.24786865   181.11170171
 C     13  12   9     1.366535034311    81.72106996   188.00453233
 C     14  13  12     5.758810554272    80.56209567   166.76250791
 C     17  13  12     1.459010623676   111.08861209   183.82872609
 C     18  14  13     2.412235892279    27.27532823    36.33507194
 C     20  18  14     1.402692767501    87.95206320   148.94598259
 C     21  20  18     1.382106725257   120.14573887   359.70382047
 C     18  14  13     2.446510985056   144.15733107    82.80075377
 C     19  17  13     1.353610726908   106.29293361   359.75308708
 C     13  12   9     1.366813447402   172.21332906    33.46711076
 C     18  14  13     1.380960173213    15.08449437   309.23336894
 N     22  21  20     1.352773077792   120.73759875     0.27865223
 C     25  13  17     1.410897586645   125.60330303   182.37774668
 C     14  13  12     1.376642291955    80.24689249   177.85461986
 C     14  13  12     5.764089607215   164.51507311   312.20821879
 C     29  14  13     1.435600919476   106.58649366   178.76395472
 C     30  14  13     2.413316804732    27.10625047    82.12560436
 C     32  30  14     1.403734305344    87.90059683   149.76154742
 C     33  32  30     1.380694028378   120.14881443   359.74174632
 C     34  33  32     2.448777858443   152.49203239     2.45173620
 C     31  29  14     1.368160809262   108.16950133     0.70383075
 C     14  13  12     1.376239804685   169.26375223   353.09862627
 C     30  14  13     1.380907310430    14.68948582   353.70041132
 N     34  33  32     1.352658863128   120.85575621     0.19603406
 C     37  14  29     1.404717053360   126.01551127   180.90772073
 C     15  14  13     1.366491126938    81.61824056   183.09049352
 C      2   1   3     4.249062720177   142.56498387   153.70854689
 C     41  15  14     1.459677704153   111.05201287   175.08990246
 C     42   2   1     2.412953791518    41.78584867   185.46265766
 C     44  42   2     1.403446472082    87.95153797   233.97558675
 C     45  44  42     1.381696421071   120.11137308     0.19721020
 C     42   2   1     2.450019795838   135.97209175    95.77750676
 C     43  41  15     1.354461516618   106.26758155     0.30894352
 C     15  14  13     1.367461151185   171.87382904   332.35056460
 C     42   2   1     1.381886391857    32.59078432   234.31793685
 C      9   2   1     1.404988612053   126.98745415   175.53609547
 N     42   2   1     1.352765315936   113.57249190   123.51409595
 H      1   2   3     1.083484194624    98.23266908   186.15705470
 H      2   1   3     1.079907866440   109.72436672   186.26162350
 H      4   3   1     1.083461582152   121.05802238   179.56962783
 H      5   4   3     1.082926128598   122.79206746   179.44754253
 H      6   5   4     1.092613838463   104.42899853   100.10022644
 H      6   5   4     1.089897701622    84.70957697   209.50089977
 H      6   5   4     1.089558626234   133.89539867   322.40350008
 H      7   2   1     1.079807853278   126.66122480   347.87508815
 H     10   1   2     1.084547371026   118.80200321   333.29143372
 H     12   9   2     1.016297692608   125.29023241   180.00180175
 H     14  13  12     1.014936943854    44.97226959   359.42596618
 H     18  14  13     1.082871645210   128.03556573   234.20482432
 H     55   4   3     0.991424228068   131.70946418   296.21993497
 H     21  20  18     1.083569563987   121.05669627   180.67006309
 H     22  21  20     1.082483256222   122.73097286   180.59748951
 H     23  18  14     1.092105306278   103.92715769   234.93429879
 H     23  18  14     1.088871893291   134.19244188    12.25587044
 H     23  18  14     1.089833473518    84.85857450   125.45241208
 H     24  19  17     1.080075460327   127.28078426   178.44613241
 H     26  18  14     1.083408048706   118.76995697   244.94906660
 H     30  14  13     1.082703098730   127.99711412   279.66882698
 H     31  29  14     1.079759695488   125.22293469   180.92530585
 H     33  32  30     1.083188810873   121.01964473   180.74284758
 H     34  33  32     1.082494341787   122.70821597   180.59516895
 H     35  34  33     1.092652735319   105.73575241    97.19771933
 H     35  34  33     1.089462711615    84.05943581   206.43036958
 H     35  34  33     1.089268102902   133.08365142   318.50306270
 H     36  31  29     1.079439669458   126.61599965   178.98859863
 H     38  30  73     1.083742127999   118.77264435   359.90091293
 H     42   2   1     1.082178358682   119.31790784   340.14562641
 H     43  41  15     1.080281907652   126.36969097   182.06329380
 H     45  44  42     1.083277434455   121.10105945   179.58025624
 H     46  45  44     1.082194529648   122.72144639   179.46906377
 H     47  42   2     1.091546151109   106.65128841   315.16475048
 H     47  42   2     1.088818625851   132.46019523    94.52397119
 H     47  42   2     1.089531091801    83.63838232   206.04504406
 H     48  43  41     1.080402239909   127.23657387   181.62955349
 H     50  42   2     1.083186502870   118.77001737    94.71359229

---------------------------
INTERNAL COORDINATES (A.U.)
---------------------------
 C      0   0   0     0.000000000000     0.00000000     0.00000000
 C      1   0   0     9.763912287830     0.00000000     0.00000000
 C      1   2   0     4.559862563854    55.19707264     0.00000000
 C      3   1   2     2.651391496856    87.89565988   165.38533555
 C      4   3   1     2.608368384925   120.18086936     0.10960218
 C      5   4   3     4.624712756540   152.51800038     1.65702382
 C      2   1   3     2.585360837309    17.26059928   354.83434159
 C      7   2   1     2.710026725231   108.05010202   167.63667436
 C      2   1   3     2.710100516721   124.96769476    10.06012059
 C      1   2   3     2.609041885310    26.81182874   343.36093396
 N      1   2   3     2.554709850363   143.17371116    25.03880503
 N      9   2   1     2.600503484979   106.58526707   354.53175794
 N     12   9   2     5.527566200405   168.53581413   171.12065651
 N     13  12   9     5.583221047236    91.55032014    11.12112580
 N     14  13  12     5.528150518591    88.43092389   359.84326247
 C      8   7   2     2.654668413270   127.24786865   181.11170171
 C     13  12   9     2.582376967257    81.72106996   188.00453233
 C     14  13  12    10.882574804710    80.56209567   166.76250791
 C     17  13  12     2.757130505230   111.08861209   183.82872609
 C     18  14  13     4.558465206823    27.27532823    36.33507194
 C     20  18  14     2.650705180609    87.95206320   148.94598259
 C     21  20  18     2.611803198586   120.14573887   359.70382047
 C     18  14  13     4.623235745386   144.15733107    82.80075377
 C     19  17  13     2.557953565794   106.29293361   359.75308708
 C     13  12   9     2.582903091751   172.21332906    33.46711076
 C     18  14  13     2.609636529225    15.08449437   309.23336894
 N     22  21  20     2.556370638369   120.73759875     0.27865223
 C     25  13  17     2.666210041769   125.60330303   182.37774668
 C     14  13  12     2.601476916169    80.24689249   177.85461986
 C     14  13  12    10.892550769017   164.51507311   312.20821879
 C     29  14  13     2.712892575415   106.58649366   178.76395472
 C     30  14  13     4.560507835333    27.10625047    82.12560436
 C     32  30  14     2.652673401891    87.90059683   149.76154742
 C     33  32  30     2.609133588376   120.14881443   359.74174632
 C     34  33  32     4.627519515267   152.49203239     2.45173620
 C     31  29  14     2.585449236669   108.16950133     0.70383075
 C     14  13  12     2.600716325456   169.26375223   353.09862627
 C     30  14  13     2.609536633043    14.68948582   353.70041132
 N     34  33  32     2.556154803934   120.85575621     0.19603406
 C     37  14  29     2.654530526499   126.01551127   180.90772073
 C     15  14  13     2.582293994346    81.61824056   183.09049352
 C      2   1   3     8.029564866989   142.56498387   153.70854689
 C     41  15  14     2.758391104639   111.05201287   175.08990246
 C     42   2   1     4.559821839776    41.78584867   185.46265766
 C     44  42   2     2.652129475853    87.95153797   233.97558675
 C     45  44  42     2.611027836043   120.11137308     0.19721020
 C     42   2   1     4.629866436820   135.97209175    95.77750676
 C     43  41  15     2.559561325344   106.26758155     0.30894352
 C     15  14  13     2.584127074516   171.87382904   332.35056460
 C     42   2   1     2.611386828803    32.59078432   234.31793685
 C      9   2   1     2.655043698059   126.98745415   175.53609547
 N     42   2   1     2.556355970587   113.57249190   123.51409595
 H      1   2   3     2.047488398272    98.23266908   186.15705470
 H      2   1   3     2.040730117440   109.72436672   186.26162350
 H      4   3   1     2.047445666893   121.05802238   179.56962783
 H      5   4   3     2.046433806318   122.79206746   179.44754253
 H      6   5   4     2.064740924827   104.42899853   100.10022644
 H      6   5   4     2.059608170055    84.70957697   209.50089977
 H      6   5   4     2.058967410433   133.89539867   322.40350008
 H      7   2   1     2.040541119952   126.66122480   347.87508815
 H     10   1   2     2.049497510504   118.80200321   333.29143372
 H     12   9   2     1.920524309565   125.29023241   180.00180175
 H     14  13  12     1.917952867083    44.97226959   359.42596618
 H     18  14  13     2.046330847636   128.03556573   234.20482432
 H     55   4   3     1.873520273583   131.70946418   296.21993497
 H     21  20  18     2.047649722989   121.05669627   180.67006309
 H     22  21  20     2.045596898814   122.73097286   180.59748951
 H     23  18  14     2.063779938267   103.92715769   234.93429879
 H     23  18  14     2.057669673245   134.19244188    12.25587044
 H     23  18  14     2.059486796529    84.85857450   125.45241208
 H     24  19  17     2.041046823986   127.28078426   178.44613241
 H     26  18  14     2.047344503340   118.76995697   244.94906660
 H     30  14  13     2.046012340948   127.99711412   279.66882698
 H     31  29  14     2.040450114918   125.22293469   180.92530585
 H     33  32  30     2.046930203877   121.01964473   180.74284758
 H     34  33  32     2.045617847496   122.70821597   180.59516895
 H     35  34  33     2.064814429233   105.73575241    97.19771933
 H     35  34  33     2.058786158072    84.05943581   206.43036958
 H     35  34  33     2.058418400901   133.08365142   318.50306270
 H     36  31  29     2.039845353366   126.61599965   178.98859863
 H     38  30  73     2.047975821711   118.77264435   359.90091293
 H     42   2   1     2.045020725966   119.31790784   340.14562641
 H     43  41  15     2.041436952892   126.36969097   182.06329380
 H     45  44  42     2.047097678177   121.10105945   179.58025624
 H     46  45  44     2.045051284662   122.72144639   179.46906377
 H     47  42   2     2.062723288131   106.65128841   315.16475048
 H     47  42   2     2.057569012371   132.46019523    94.52397119
 H     47  42   2     2.058915377895    83.63838232   206.04504406
 H     48  43  41     2.041664347903   127.23657387   181.62955349
 H     50  42   2     2.046925842384   118.77001737    94.71359229

---------------------
BASIS SET INFORMATION
---------------------
There are 3 groups of distinct atoms

 Group   1 Type C   : 17s4p1d contracted to 3s2p1d pattern {881/31/1}
 Group   2 Type N   : 17s4p1d contracted to 3s2p1d pattern {881/31/1}
 Group   3 Type H   : 4s1p contracted to 2s1p pattern {31/1}

Atom   0C    basis set group =>   1
Atom   1N    basis set group =>   2
Atom   2C    basis set group =>   1
Atom   3N    basis set group =>   2
Atom   4C    basis set group =>   1
Atom   5N    basis set group =>   2
Atom   6C    basis set group =>   1
Atom   7N    basis set group =>   2
Atom   8C    basis set group =>   1
Atom   9N    basis set group =>   2
Atom  10C    basis set group =>   1
Atom  11N    basis set group =>   2
Atom  12C    basis set group =>   1
Atom  13N    basis set group =>   2
Atom  14C    basis set group =>   1
Atom  15N    basis set group =>   2
Atom  16C    basis set group =>   1
Atom  17C    basis set group =>   1
Atom  18C    basis set group =>   1
Atom  19C    basis set group =>   1
Atom  20C    basis set group =>   1
Atom  21C    basis set group =>   1
Atom  22C    basis set group =>   1
Atom  23C    basis set group =>   1
Atom  24C    basis set group =>   1
Atom  25C    basis set group =>   1
Atom  26C    basis set group =>   1
Atom  27C    basis set group =>   1
Atom  28C    basis set group =>   1
Atom  29C    basis set group =>   1
Atom  30C    basis set group =>   1
Atom  31C    basis set group =>   1
Atom  32C    basis set group =>   1
Atom  33C    basis set group =>   1
Atom  34C    basis set group =>   1
Atom  35C    basis set group =>   1
Atom  36C    basis set group =>   1
Atom  37C    basis set group =>   1
Atom  38C    basis set group =>   1
Atom  39C    basis set group =>   1
Atom  40C    basis set group =>   1
Atom  41C    basis set group =>   1
Atom  42C    basis set group =>   1
Atom  43C    basis set group =>   1
Atom  44C    basis set group =>   1
Atom  45C    basis set group =>   1
Atom  46C    basis set group =>   1
Atom  47C    basis set group =>   1
Atom  48C    basis set group =>   1
Atom  49C    basis set group =>   1
Atom  50C    basis set group =>   1
Atom  51C    basis set group =>   1
Atom  52H    basis set group =>   3
Atom  53H    basis set group =>   3
Atom  54H    basis set group =>   3
Atom  55H    basis set group =>   3
Atom  56H    basis set group =>   3
Atom  57H    basis set group =>   3
Atom  58H    basis set group =>   3
Atom  59H    basis set group =>   3
Atom  60H    basis set group =>   3
Atom  61H    basis set group =>   3
Atom  62H    basis set group =>   3
Atom  63H    basis set group =>   3
Atom  64H    basis set group =>   3
Atom  65H    basis set group =>   3
Atom  66H    basis set group =>   3
Atom  67H    basis set group =>   3
Atom  68H    basis set group =>   3
Atom  69H    basis set group =>   3
Atom  70H    basis set group =>   3
Atom  71H    basis set group =>   3
Atom  72H    basis set group =>   3
Atom  73H    basis set group =>   3
Atom  74H    basis set group =>   3
Atom  75H    basis set group =>   3
Atom  76H    basis set group =>   3
Atom  77H    basis set group =>   3
Atom  78H    basis set group =>   3
Atom  79H    basis set group =>   3
Atom  80H    basis set group =>   3
Atom  81H    basis set group =>   3
Atom  82H    basis set group =>   3
Atom  83H    basis set group =>   3
Atom  84H    basis set group =>   3
Atom  85H    basis set group =>   3
Atom  86H    basis set group =>   3
Atom  87H    basis set group =>   3
Atom  88H    basis set group =>   3
Atom  89H    basis set group =>   3


           ************************************************************
           *        Program running with 16 parallel MPI-processes    *
           *              working on a common directory               *
           ************************************************************
------------------------------------------------------------------------------
                           ORCA GTO INTEGRAL CALCULATION
------------------------------------------------------------------------------
------------------------------------------------------------------------------
                   ___                                                        
                  /   \      - P O W E R E D   B Y -                         
                 /     \                                                     
                 |  |  |   _    _      __       _____    __    __             
                 |  |  |  | |  | |    /  \     |  _  \  |  |  /  |          
                  \  \/   | |  | |   /    \    | | | |  |  | /  /          
                 / \  \   | |__| |  /  /\  \   | |_| |  |  |/  /          
                |  |  |   |  __  | /  /__\  \  |    /   |      \           
                |  |  |   | |  | | |   __   |  |    \   |  |\   \          
                \     /   | |  | | |  |  |  |  | |\  \  |  | \   \       
                 \___/    |_|  |_| |__|  |__|  |_| \__\ |__|  \__/        
                                                                              
                      - O R C A' S   B I G   F R I E N D -                    
                                      &                                       
                       - I N T E G R A L  F E E D E R -                       
                                                                              
 v1 FN, 2020, v2 2021                                                         
------------------------------------------------------------------------------


Reading SHARK input file /scratch/allen/tmpyp4_amber_gaff2/conf1/conf1/Conf19.orca.SHARKINP.tmp ... ok
----------------------
SHARK INTEGRAL PACKAGE
----------------------

Number of atoms                             ...     90
Number of basis functions                   ...   1230
Number of shells                            ...    738
Maximum angular momentum                    ...      2
Integral batch strategy                     ... SHARK/LIBINT Hybrid
RI-J (if used) integral strategy            ... SPLIT-RIJ (Revised 2003 algorithm where possible)
Printlevel                                  ...      1
Contraction scheme used                     ... PARTIAL GENERAL contraction
Coulomb Range Separation                    ... NOT USED
Exchange Range Separation                   ... NOT USED
Finite Nucleus Model                        ... NOT USED
Auxiliary Coulomb fitting basis             ... NOT available
Auxiliary J/K fitting basis                 ... NOT available
Auxiliary Correlation fitting basis         ... NOT available
Auxiliary 'external' fitting basis          ... NOT available
Integral threshold                          ...     2.500000e-11
Primitive cut-off                           ...     2.500000e-12
Primitive pair pre-selection threshold      ...     2.500000e-12

Calculating pre-screening integrals         ... done (  0.1 sec) Dimension = 738
Calculating pre-screening integrals (ORCA)  ... done (  0.3 sec) Dimension = 426
Organizing shell pair data                  ... done (  0.5 sec)
Shell pair information
Total number of shell pairs                 ...    272691
Shell pairs after pre-screening             ...     71717
Total number of primitive shell pairs       ...    422091
Primitive shell pairs kept                  ...     92622
          la=0 lb=0:  29444 shell pairs
          la=1 lb=0:  26030 shell pairs
          la=1 lb=1:   4701 shell pairs
          la=2 lb=0:   7889 shell pairs
          la=2 lb=1:   3124 shell pairs
          la=2 lb=2:    529 shell pairs

Calculating one electron integrals          ... done (  0.2 sec)
Calculating Nuclear repulsion               ... done (  0.0 sec) ENN=   6234.296617607853 Eh

SHARK setup successfully completed in   1.7 seconds

Maximum memory used throughout the entire GTOINT-calculation: 99.1 MB


           ************************************************************
           *        Program running with 16 parallel MPI-processes    *
           *              working on a common directory               *
           ************************************************************
-------------------------------------------------------------------------------
                                 ORCA SCF
-------------------------------------------------------------------------------

------------
SCF SETTINGS
------------
Hamiltonian:
 Ab initio Hamiltonian  Method          .... Hartree-Fock(GTOs)


General Settings:
 Integral files         IntName         .... /scratch/allen/tmpyp4_amber_gaff2/conf1/conf1/Conf19.orca
 Hartree-Fock type      HFTyp           .... RHF
 Total Charge           Charge          ....    0
 Multiplicity           Mult            ....    1
 Number of Electrons    NEL             ....  358
 Basis Dimension        Dim             ....  918
 Nuclear Repulsion      ENuc            ....   6234.2966176079 Eh

Convergence Acceleration:
 DIIS                   CNVDIIS         .... on
   Start iteration      DIISMaxIt       ....    12
   Startup error        DIISStart       ....  0.200000
   # of expansion vecs  DIISMaxEq       ....     5
   Bias factor          DIISBfac        ....   1.050
   Max. coefficient     DIISMaxC        ....  10.000
 Trust-Rad. Augm. Hess. CNVTRAH         .... auto
   Auto Start mean grad. ratio tolernc. ....  1.125000
   Auto Start start iteration           ....    20
   Auto Start num. interpolation iter.  ....    10
   Max. Number of Micro iterations      ....    16
   Max. Number of Macro iterations      .... Maxiter - #DIIS iter
   Number of Davidson start vectors     ....     2
   Converg. threshold I  (grad. norm)   ....   1.000e-05
   Converg. threshold II (energy diff.) ....   1.000e-08
   Grad. Scal. Fac. for Micro threshold ....   0.100
   Minimum threshold for Micro iter.    ....   0.010
   NR start threshold (gradient norm)   ....   0.001
   Initial trust radius                 ....   0.400
   Minimum AH scaling param. (alpha)    ....   1.000
   Maximum AH scaling param. (alpha)    .... 1000.000
   Orbital update algorithm             .... Taylor
   White noise on init. David. guess    .... on
   Maximum white noise                  ....   0.010
   Quad. conv. algorithm                .... NR
 SOSCF                  CNVSOSCF        .... on
   Start iteration      SOSCFMaxIt      ....   150
   Startup grad/error   SOSCFStart      ....  0.003300
 Level Shifting         CNVShift        .... on
   Level shift para.    LevelShift      ....    0.2500
   Turn off err/grad.   ShiftErr        ....    0.0010
 Zerner damping         CNVZerner       .... off
 Static damping         CNVDamp         .... on
   Fraction old density DampFac         ....    0.7000
   Max. Damping (<1)    DampMax         ....    0.9800
   Min. Damping (>=0)   DampMin         ....    0.0000
   Turn off err/grad.   DampErr         ....    0.1000
 Fernandez-Rico         CNVRico         .... off

SCF Procedure:
 Maximum # iterations   MaxIter         ....   125
 SCF integral mode      SCFMode         .... Direct
   Integral package                     .... SHARK and LIBINT hybrid scheme
 Reset frequency        DirectResetFreq ....    20
 Integral Threshold     Thresh          ....  2.500e-11 Eh
 Primitive CutOff       TCut            ....  2.500e-12 Eh

Convergence Tolerance:
 Convergence Check Mode ConvCheckMode   .... Total+1el-Energy
 Convergence forced     ConvForced      .... 1
 Energy Change          TolE            ....  1.000e-08 Eh
 1-El. energy change                    ....  1.000e-05 Eh
 Orbital Gradient       TolG            ....  1.000e-05
 Orbital Rotation angle TolX            ....  1.000e-05
 DIIS Error             TolErr          ....  5.000e-07


Diagonalization of the overlap matrix:
Smallest eigenvalue                        ... 1.963e-04
Time for diagonalization                   ...    0.363 sec
Threshold for overlap eigenvalues          ... 1.000e-08
Number of eigenvalues below threshold      ... 0
Time for construction of square roots      ...    0.192 sec
Total time needed                          ...    0.576 sec

Time for model grid setup =    1.006 sec

------------------------------
INITIAL GUESS: MODEL POTENTIAL
------------------------------
Loading Hartree-Fock densities                     ... done
Calculating cut-offs                               ... done
Initializing the effective Hamiltonian             ... done
Setting up the integral package (SHARK)            ... done
Starting the Coulomb interaction                   ... done (   1.1 sec)
Reading the grid                                   ... done
Mapping shells                                     ... done
Starting the XC term evaluation                    ... done (   0.2 sec)
Transforming the Hamiltonian                       ... done (   0.2 sec)
Diagonalizing the Hamiltonian                      ... done (   0.3 sec)
Back transforming the eigenvectors                 ... done (   0.1 sec)
Now organizing SCF variables                       ... done
                      ------------------
                      INITIAL GUESS DONE (   2.9 sec)
                      ------------------
--------------
SCF ITERATIONS
--------------
ITER       Energy         Delta-E        Max-DP      RMS-DP      [F,P]     Damp
               ***  Starting incremental Fock matrix formation  ***
  0  -2121.6277525129   0.000000000000 0.07467262  0.00125746  0.2314103 0.7000
  1  -2122.2727948964  -0.645042383536 0.05674447  0.00102645  0.1435462 0.7000
                               ***Turning on DIIS***
  2  -2122.6748958282  -0.402100931784 0.13240553  0.00232467  0.0802867 0.0000
  3  -2118.0116218888   4.663273939414 0.06960168  0.00070454  0.0435384 0.0000
  4  -2123.3654824967  -5.353860607936 0.01984335  0.00023165  0.0090993 0.0000
  5  -2123.5040998687  -0.138617371944 0.00919753  0.00013413  0.0048651 0.0000
  6  -2123.4884360203   0.015663848411 0.00563032  0.00008589  0.0022071 0.0000
  7  -2123.5816247819  -0.093188761623 0.00342443  0.00006761  0.0016067 0.0000
  8  -2123.5891652678  -0.007540485956 0.00329270  0.00006448  0.0015043 0.0000
  9  -2123.5617682390   0.027397028814 0.00263897  0.00004577  0.0012088 0.0000
 10  -2123.5697108288  -0.007942589773 0.00529220  0.00009578  0.0009442 0.0000
                      *** Initiating the SOSCF procedure ***
                           *** Shutting down DIIS ***
                      *** Re-Reading the Fockian *** 
                      *** Removing any level shift *** 
ITER      Energy       Delta-E        Grad      Rot      Max-DP    RMS-DP
 11  -2123.46340414   0.1063066914  0.000179  0.000179  0.000243  0.000005
               *** Restarting incremental Fock matrix formation ***
 12  -2123.52928711  -0.0658829759  0.000906  0.006210  0.001454  0.000035
 13  -2123.52939824  -0.0001111246  0.001122  0.030458  0.006590  0.000137
 14  -2123.52958479  -0.0001865521  0.000373  0.001595  0.000603  0.000012
 15  -2123.52960012  -0.0000153316  0.000189  0.002486  0.000557  0.000014
 16  -2123.52960775  -0.0000076319  0.000140  0.002284  0.000459  0.000009
 17  -2123.52961055  -0.0000027926  0.000136  0.002034  0.000312  0.000007
 18  -2123.52961196  -0.0000014184  0.000063  0.001185  0.000242  0.000005
 19  -2123.52961278  -0.0000008177  0.000046  0.001543  0.000252  0.000005
 20  -2123.52961326  -0.0000004774  0.000028  0.000992  0.000145  0.000003
 21  -2123.52961350  -0.0000002422  0.000027  0.001216  0.000178  0.000004
 22  -2123.52961373  -0.0000002321  0.000025  0.001019  0.000157  0.000003
 23  -2123.52961387  -0.0000001384  0.000016  0.000461  0.000074  0.000002
 24  -2123.52961393  -0.0000000581  0.000009  0.000312  0.000056  0.000001
 25  -2123.52961396  -0.0000000341  0.000009  0.000152  0.000044  0.000001
 26  -2123.52961398  -0.0000000137  0.000006  0.000099  0.000032  0.000000
 27  -2123.52961398  -0.0000000005  0.000003  0.000066  0.000022  0.000000
                  ***Gradient check signals convergence***
              ***Rediagonalizing the Fockian in SOSCF/NRSCF***

               *****************************************************
               *                     SUCCESS                       *
               *           SCF CONVERGED AFTER  28 CYCLES          *
               *****************************************************


----------------
TOTAL SCF ENERGY
----------------

Total Energy       :        -2123.52961398 Eh          -57784.17849 eV

Components:
Nuclear Repulsion  :         6234.29661761 Eh          169643.83549 eV
Electronic Energy  :        -8357.82623158 Eh         -227428.01398 eV
One Electron Energy:       -15309.16128608 Eh         -416583.45729 eV
Two Electron Energy:         6951.33505450 Eh          189155.44331 eV

Virial components:
Potential Energy   :        -4245.97996953 Eh         -115538.98886 eV
Kinetic Energy     :         2122.45035555 Eh           57754.81037 eV
Virial Ratio       :            2.00050850


---------------
SCF CONVERGENCE
---------------

  Last Energy change         ...    1.6444e-09  Tolerance :   1.0000e-08
  Last MAX-Density change    ...    9.7371e-06  Tolerance :   1.0000e-07
  Last RMS-Density change    ...    1.9497e-07  Tolerance :   5.0000e-09
  Last Orbital Gradient      ...    2.0396e-06  Tolerance :   1.0000e-05
  Last Orbital Rotation      ...    4.2377e-05  Tolerance :   1.0000e-05

             **** THE GBW FILE WAS UPDATED (/scratch/allen/tmpyp4_amber_gaff2/conf1/conf1/Conf19.orca.gbw) ****
             **** DENSITY /scratch/allen/tmpyp4_amber_gaff2/conf1/conf1/Conf19.orca.scfp WAS UPDATED ****
             **** ENERGY FILE WAS UPDATED (/scratch/allen/tmpyp4_amber_gaff2/conf1/conf1/Conf19.orca.en.tmp) ****
             **** THE GBW FILE WAS UPDATED (/scratch/allen/tmpyp4_amber_gaff2/conf1/conf1/Conf19.orca.gbw) ****
             **** DENSITY /scratch/allen/tmpyp4_amber_gaff2/conf1/conf1/Conf19.orca.scfp WAS UPDATED ****
----------------
ORBITAL ENERGIES
----------------

  NO   OCC          E(Eh)            E(eV) 
   0   2.0000     -15.678963      -426.6463 
   1   2.0000     -15.633092      -425.3980 
   2   2.0000     -15.632557      -425.3835 
   3   2.0000     -15.588558      -424.1862 
   4   2.0000     -15.524886      -422.4536 
   5   2.0000     -15.515761      -422.2053 
   6   2.0000     -15.453915      -420.5224 
   7   2.0000     -15.439749      -420.1369 
   8   2.0000     -11.328650      -308.2682 
   9   2.0000     -11.327764      -308.2441 
  10   2.0000     -11.327423      -308.2349 
  11   2.0000     -11.298813      -307.4563 
  12   2.0000     -11.298775      -307.4553 
  13   2.0000     -11.292234      -307.2773 
  14   2.0000     -11.291776      -307.2648 
  15   2.0000     -11.287213      -307.1407 
  16   2.0000     -11.285823      -307.1029 
  17   2.0000     -11.281267      -306.9789 
  18   2.0000     -11.270496      -306.6858 
  19   2.0000     -11.262804      -306.4765 
  20   2.0000     -11.261808      -306.4494 
  21   2.0000     -11.252840      -306.2053 
  22   2.0000     -11.249735      -306.1209 
  23   2.0000     -11.237297      -305.7824 
  24   2.0000     -11.236875      -305.7709 
  25   2.0000     -11.230487      -305.5971 
  26   2.0000     -11.230289      -305.5917 
  27   2.0000     -11.230146      -305.5878 
  28   2.0000     -11.229698      -305.5756 
  29   2.0000     -11.210570      -305.0551 
  30   2.0000     -11.209296      -305.0205 
  31   2.0000     -11.195138      -304.6352 
  32   2.0000     -11.191216      -304.5285 
  33   2.0000     -11.191058      -304.5242 
  34   2.0000     -11.188525      -304.4552 
  35   2.0000     -11.188500      -304.4546 
  36   2.0000     -11.187135      -304.4174 
  37   2.0000     -11.180742      -304.2435 
  38   2.0000     -11.175863      -304.1107 
  39   2.0000     -11.174239      -304.0665 
  40   2.0000     -11.171590      -303.9944 
  41   2.0000     -11.171198      -303.9838 
  42   2.0000     -11.167817      -303.8917 
  43   2.0000     -11.161899      -303.7307 
  44   2.0000     -11.160178      -303.6839 
  45   2.0000     -11.156841      -303.5931 
  46   2.0000     -11.156610      -303.5868 
  47   2.0000     -11.153517      -303.5026 
  48   2.0000     -11.147321      -303.3340 
  49   2.0000     -11.135918      -303.0237 
  50   2.0000     -11.129406      -302.8465 
  51   2.0000     -11.117202      -302.5144 
  52   2.0000      -1.359680       -36.9988 
  53   2.0000      -1.320463       -35.9316 
  54   2.0000      -1.320240       -35.9255 
  55   2.0000      -1.281662       -34.8758 
  56   2.0000      -1.225864       -33.3574 
  57   2.0000      -1.210391       -32.9364 
  58   2.0000      -1.173518       -31.9330 
  59   2.0000      -1.150592       -31.3092 
  60   2.0000      -1.143095       -31.1052 
  61   2.0000      -1.110227       -30.2108 
  62   2.0000      -1.108871       -30.1739 
  63   2.0000      -1.081428       -29.4271 
  64   2.0000      -1.077969       -29.3330 
  65   2.0000      -1.044868       -28.4323 
  66   2.0000      -1.044681       -28.4272 
  67   2.0000      -1.040750       -28.3203 
  68   2.0000      -1.014882       -27.6164 
  69   2.0000      -1.013176       -27.5699 
  70   2.0000      -1.009143       -27.4602 
  71   2.0000      -0.993241       -27.0275 
  72   2.0000      -0.985956       -26.8292 
  73   2.0000      -0.981384       -26.7048 
  74   2.0000      -0.972744       -26.4697 
  75   2.0000      -0.962121       -26.1806 
  76   2.0000      -0.954599       -25.9760 
  77   2.0000      -0.945776       -25.7359 
  78   2.0000      -0.936807       -25.4918 
  79   2.0000      -0.917491       -24.9662 
  80   2.0000      -0.909915       -24.7600 
  81   2.0000      -0.896203       -24.3869 
  82   2.0000      -0.876251       -23.8440 
  83   2.0000      -0.871649       -23.7188 
  84   2.0000      -0.870719       -23.6935 
  85   2.0000      -0.859129       -23.3781 
  86   2.0000      -0.842795       -22.9336 
  87   2.0000      -0.835543       -22.7363 
  88   2.0000      -0.826800       -22.4984 
  89   2.0000      -0.796877       -21.6841 
  90   2.0000      -0.789582       -21.4856 
  91   2.0000      -0.758685       -20.6449 
  92   2.0000      -0.752039       -20.4640 
  93   2.0000      -0.733369       -19.9560 
  94   2.0000      -0.726438       -19.7674 
  95   2.0000      -0.723051       -19.6752 
  96   2.0000      -0.718407       -19.5489 
  97   2.0000      -0.715855       -19.4794 
  98   2.0000      -0.711911       -19.3721 
  99   2.0000      -0.697971       -18.9928 
 100   2.0000      -0.696980       -18.9658 
 101   2.0000      -0.691270       -18.8104 
 102   2.0000      -0.684824       -18.6350 
 103   2.0000      -0.683796       -18.6070 
 104   2.0000      -0.678483       -18.4625 
 105   2.0000      -0.674405       -18.3515 
 106   2.0000      -0.672123       -18.2894 
 107   2.0000      -0.660342       -17.9688 
 108   2.0000      -0.657982       -17.9046 
 109   2.0000      -0.652619       -17.7587 
 110   2.0000      -0.652074       -17.7438 
 111   2.0000      -0.645566       -17.5667 
 112   2.0000      -0.645006       -17.5515 
 113   2.0000      -0.637390       -17.3443 
 114   2.0000      -0.636944       -17.3321 
 115   2.0000      -0.628314       -17.0973 
 116   2.0000      -0.622742       -16.9457 
 117   2.0000      -0.621296       -16.9063 
 118   2.0000      -0.612867       -16.6770 
 119   2.0000      -0.612042       -16.6545 
 120   2.0000      -0.611694       -16.6450 
 121   2.0000      -0.610708       -16.6182 
 122   2.0000      -0.601186       -16.3591 
 123   2.0000      -0.587567       -15.9885 
 124   2.0000      -0.581277       -15.8173 
 125   2.0000      -0.580941       -15.8082 
 126   2.0000      -0.579886       -15.7795 
 127   2.0000      -0.571181       -15.5426 
 128   2.0000      -0.568586       -15.4720 
 129   2.0000      -0.559808       -15.2331 
 130   2.0000      -0.553467       -15.0606 
 131   2.0000      -0.547758       -14.9053 
 132   2.0000      -0.542506       -14.7623 
 133   2.0000      -0.541261       -14.7285 
 134   2.0000      -0.538210       -14.6454 
 135   2.0000      -0.536309       -14.5937 
 136   2.0000      -0.530720       -14.4416 
 137   2.0000      -0.519614       -14.1394 
 138   2.0000      -0.516580       -14.0568 
 139   2.0000      -0.514851       -14.0098 
 140   2.0000      -0.512458       -13.9447 
 141   2.0000      -0.510560       -13.8931 
 142   2.0000      -0.508498       -13.8369 
 143   2.0000      -0.504785       -13.7359 
 144   2.0000      -0.502400       -13.6710 
 145   2.0000      -0.496050       -13.4982 
 146   2.0000      -0.489479       -13.3194 
 147   2.0000      -0.481902       -13.1132 
 148   2.0000      -0.478103       -13.0098 
 149   2.0000      -0.467492       -12.7211 
 150   2.0000      -0.466407       -12.6916 
 151   2.0000      -0.457041       -12.4367 
 152   2.0000      -0.451658       -12.2902 
 153   2.0000      -0.444743       -12.1021 
 154   2.0000      -0.439043       -11.9470 
 155   2.0000      -0.427554       -11.6343 
 156   2.0000      -0.411575       -11.1995 
 157   2.0000      -0.406347       -11.0573 
 158   2.0000      -0.391309       -10.6481 
 159   2.0000      -0.387144       -10.5347 
 160   2.0000      -0.383276       -10.4295 
 161   2.0000      -0.378509       -10.2997 
 162   2.0000      -0.369604       -10.0574 
 163   2.0000      -0.356522        -9.7015 
 164   2.0000      -0.355891        -9.6843 
 165   2.0000      -0.341953        -9.3050 
 166   2.0000      -0.337674        -9.1886 
 167   2.0000      -0.324679        -8.8350 
 168   2.0000      -0.321744        -8.7551 
 169   2.0000      -0.304980        -8.2989 
 170   2.0000      -0.299557        -8.1514 
 171   2.0000      -0.285470        -7.7680 
 172   2.0000      -0.279431        -7.6037 
 173   2.0000      -0.263837        -7.1794 
 174   2.0000      -0.241465        -6.5706 
 175   2.0000      -0.189963        -5.1692 
 176   2.0000      -0.180810        -4.9201 
 177   2.0000      -0.078717        -2.1420 
 178   2.0000      -0.059480        -1.6185 
 179   0.0000       0.028319         0.7706 
 180   0.0000       0.065438         1.7807 
 181   0.0000       0.090378         2.4593 
 182   0.0000       0.106781         2.9057 
 183   0.0000       0.114256         3.1091 
 184   0.0000       0.137203         3.7335 
 185   0.0000       0.139311         3.7909 
 186   0.0000       0.141367         3.8468 
 187   0.0000       0.163877         4.4593 
 188   0.0000       0.165285         4.4976 
 189   0.0000       0.165556         4.5050 
 190   0.0000       0.172654         4.6982 
 191   0.0000       0.180801         4.9199 
 192   0.0000       0.184200         5.0123 
 193   0.0000       0.188817         5.1380 
 194   0.0000       0.204983         5.5779 
 195   0.0000       0.205531         5.5928 
 196   0.0000       0.208232         5.6663 
 197   0.0000       0.208731         5.6799 
 198   0.0000       0.216935         5.9031 
 199   0.0000       0.228446         6.2163 
 200   0.0000       0.233317         6.3489 
 201   0.0000       0.234163         6.3719 
 202   0.0000       0.239064         6.5053 
 203   0.0000       0.239722         6.5232 
 204   0.0000       0.246505         6.7078 
 205   0.0000       0.255339         6.9481 
 206   0.0000       0.256381         6.9765 
 207   0.0000       0.257534         7.0079 
 208   0.0000       0.258827         7.0430 
 209   0.0000       0.260634         7.0922 
 210   0.0000       0.263269         7.1639 
 211   0.0000       0.265957         7.2371 
 212   0.0000       0.269007         7.3201 
 213   0.0000       0.271656         7.3921 
 214   0.0000       0.272814         7.4236 
 215   0.0000       0.275827         7.5056 
 216   0.0000       0.277833         7.5602 
 217   0.0000       0.282593         7.6898 
 218   0.0000       0.286640         7.7999 
 219   0.0000       0.287537         7.8243 
 220   0.0000       0.289858         7.8874 
 221   0.0000       0.292010         7.9460 
 222   0.0000       0.295022         8.0279 
 223   0.0000       0.296819         8.0769 
 224   0.0000       0.296934         8.0800 
 225   0.0000       0.300318         8.1721 
 226   0.0000       0.304857         8.2956 
 227   0.0000       0.308916         8.4060 
 228   0.0000       0.311451         8.4750 
 229   0.0000       0.324608         8.8330 
 230   0.0000       0.327760         8.9188 
 231   0.0000       0.334300         9.0968 
 232   0.0000       0.342794         9.3279 
 233   0.0000       0.354357         9.6425 
 234   0.0000       0.358079         9.7438 
 235   0.0000       0.364558         9.9201 
 236   0.0000       0.375879        10.2282 
 237   0.0000       0.390454        10.6248 
 238   0.0000       0.395304        10.7568 
 239   0.0000       0.399423        10.8689 
 240   0.0000       0.406721        11.0674 
 241   0.0000       0.410181        11.1616 
 242   0.0000       0.411759        11.2045 
 243   0.0000       0.418750        11.3948 
 244   0.0000       0.429419        11.6851 
 245   0.0000       0.434502        11.8234 
 246   0.0000       0.436538        11.8788 
 247   0.0000       0.440564        11.9884 
 248   0.0000       0.442275        12.0349 
 249   0.0000       0.448080        12.1929 
 250   0.0000       0.456916        12.4333 
 251   0.0000       0.467063        12.7094 
 252   0.0000       0.468128        12.7384 
 253   0.0000       0.468907        12.7596 
 254   0.0000       0.471506        12.8303 
 255   0.0000       0.475257        12.9324 
 256   0.0000       0.476457        12.9650 
 257   0.0000       0.479444        13.0463 
 258   0.0000       0.488801        13.3010 
 259   0.0000       0.496367        13.5068 
 260   0.0000       0.503724        13.7070 
 261   0.0000       0.505387        13.7523 
 262   0.0000       0.506313        13.7775 
 263   0.0000       0.511771        13.9260 
 264   0.0000       0.516471        14.0539 
 265   0.0000       0.519714        14.1421 
 266   0.0000       0.523816        14.2538 
 267   0.0000       0.528682        14.3862 
 268   0.0000       0.531427        14.4609 
 269   0.0000       0.536148        14.5893 
 270   0.0000       0.543614        14.7925 
 271   0.0000       0.547456        14.8970 
 272   0.0000       0.558089        15.1864 
 273   0.0000       0.559405        15.2222 
 274   0.0000       0.561682        15.2841 
 275   0.0000       0.566114        15.4048 
 276   0.0000       0.570997        15.5376 
 277   0.0000       0.573772        15.6131 
 278   0.0000       0.579203        15.7609 
 279   0.0000       0.586315        15.9544 
 280   0.0000       0.591774        16.1030 
 281   0.0000       0.593222        16.1424 
 282   0.0000       0.593897        16.1608 
 283   0.0000       0.595847        16.2138 
 284   0.0000       0.598344        16.2818 
 285   0.0000       0.599959        16.3257 
 286   0.0000       0.605385        16.4734 
 287   0.0000       0.611014        16.6265 
 288   0.0000       0.617025        16.7901 
 289   0.0000       0.623939        16.9782 
 290   0.0000       0.625854        17.0304 
 291   0.0000       0.628307        17.0971 
 292   0.0000       0.635394        17.2899 
 293   0.0000       0.635509        17.2931 
 294   0.0000       0.644769        17.5451 
 295   0.0000       0.647864        17.6293 
 296   0.0000       0.652288        17.7497 
 297   0.0000       0.655329        17.8324 
 298   0.0000       0.661368        17.9967 
 299   0.0000       0.666235        18.1292 
 300   0.0000       0.671466        18.2715 
 301   0.0000       0.675308        18.3761 
 302   0.0000       0.677350        18.4316 
 303   0.0000       0.679187        18.4816 
 304   0.0000       0.681301        18.5391 
 305   0.0000       0.684842        18.6355 
 306   0.0000       0.688492        18.7348 
 307   0.0000       0.691689        18.8218 
 308   0.0000       0.695501        18.9255 
 309   0.0000       0.699333        19.0298 
 310   0.0000       0.702482        19.1155 
 311   0.0000       0.703600        19.1459 
 312   0.0000       0.706158        19.2155 
 313   0.0000       0.711366        19.3572 
 314   0.0000       0.712532        19.3890 
 315   0.0000       0.715850        19.4793 
 316   0.0000       0.717065        19.5123 
 317   0.0000       0.718052        19.5392 
 318   0.0000       0.723991        19.7008 
 319   0.0000       0.726405        19.7665 
 320   0.0000       0.727589        19.7987 
 321   0.0000       0.728913        19.8347 
 322   0.0000       0.730975        19.8908 
 323   0.0000       0.732562        19.9340 
 324   0.0000       0.735096        20.0030 
 325   0.0000       0.740333        20.1455 
 326   0.0000       0.743878        20.2419 
 327   0.0000       0.749541        20.3961 
 328   0.0000       0.753247        20.4969 
 329   0.0000       0.755953        20.5705 
 330   0.0000       0.757489        20.6123 
 331   0.0000       0.761728        20.7277 
 332   0.0000       0.764209        20.7952 
 333   0.0000       0.766955        20.8699 
 334   0.0000       0.768826        20.9208 
 335   0.0000       0.773773        21.0554 
 336   0.0000       0.777682        21.1618 
 337   0.0000       0.781434        21.2639 
 338   0.0000       0.783658        21.3244 
 339   0.0000       0.789428        21.4814 
 340   0.0000       0.793065        21.5804 
 341   0.0000       0.793957        21.6047 
 342   0.0000       0.800094        21.7717 
 343   0.0000       0.803169        21.8553 
 344   0.0000       0.805800        21.9269 
 345   0.0000       0.807878        21.9835 
 346   0.0000       0.809412        22.0252 
 347   0.0000       0.815037        22.1783 
 348   0.0000       0.815534        22.1918 
 349   0.0000       0.817224        22.2378 
 350   0.0000       0.820300        22.3215 
 351   0.0000       0.822055        22.3692 
 352   0.0000       0.823436        22.4068 
 353   0.0000       0.826737        22.4966 
 354   0.0000       0.829676        22.5766 
 355   0.0000       0.832778        22.6610 
 356   0.0000       0.834168        22.6989 
 357   0.0000       0.836321        22.7575 
 358   0.0000       0.838328        22.8121 
 359   0.0000       0.840022        22.8582 
 360   0.0000       0.841903        22.9093 
 361   0.0000       0.843405        22.9502 
 362   0.0000       0.844827        22.9889 
 363   0.0000       0.849280        23.1101 
 364   0.0000       0.850777        23.1508 
 365   0.0000       0.855901        23.2902 
 366   0.0000       0.858042        23.3485 
 367   0.0000       0.861583        23.4449 
 368   0.0000       0.867272        23.5997 
 369   0.0000       0.868423        23.6310 
 370   0.0000       0.870670        23.6921 
 371   0.0000       0.873043        23.7567 
 372   0.0000       0.875129        23.8135 
 373   0.0000       0.876817        23.8594 
 374   0.0000       0.878731        23.9115 
 375   0.0000       0.883017        24.0281 
 376   0.0000       0.887637        24.1538 
 377   0.0000       0.889728        24.2107 
 378   0.0000       0.892167        24.2771 
 379   0.0000       0.893010        24.3000 
 380   0.0000       0.897130        24.4122 
 381   0.0000       0.898451        24.4481 
 382   0.0000       0.899802        24.4849 
 383   0.0000       0.900769        24.5112 
 384   0.0000       0.905773        24.6473 
 385   0.0000       0.906172        24.6582 
 386   0.0000       0.908343        24.7173 
 387   0.0000       0.910538        24.7770 
 388   0.0000       0.914834        24.8939 
 389   0.0000       0.916869        24.9493 
 390   0.0000       0.920507        25.0483 
 391   0.0000       0.925313        25.1790 
 392   0.0000       0.926752        25.2182 
 393   0.0000       0.927852        25.2481 
 394   0.0000       0.929302        25.2876 
 395   0.0000       0.931237        25.3402 
 396   0.0000       0.935037        25.4437 
 397   0.0000       0.940733        25.5986 
 398   0.0000       0.942707        25.6524 
 399   0.0000       0.943932        25.6857 
 400   0.0000       0.948241        25.8029 
 401   0.0000       0.953683        25.9510 
 402   0.0000       0.954892        25.9839 
 403   0.0000       0.957099        26.0440 
 404   0.0000       0.960344        26.1323 
 405   0.0000       0.962749        26.1977 
 406   0.0000       0.970998        26.4222 
 407   0.0000       0.977025        26.5862 
 408   0.0000       0.981422        26.7058 
 409   0.0000       0.985738        26.8233 
 410   0.0000       0.987368        26.8677 
 411   0.0000       0.990217        26.9452 
 412   0.0000       0.997205        27.1353 
 413   0.0000       1.000722        27.2310 
 414   0.0000       1.004841        27.3431 
 415   0.0000       1.008851        27.4522 
 416   0.0000       1.014326        27.6012 
 417   0.0000       1.016765        27.6676 
 418   0.0000       1.025534        27.9062 
 419   0.0000       1.032280        28.0898 
 420   0.0000       1.033049        28.1107 
 421   0.0000       1.037500        28.2318 
 422   0.0000       1.042631        28.3714 
 423   0.0000       1.052528        28.6407 
 424   0.0000       1.060016        28.8445 
 425   0.0000       1.063564        28.9411 
 426   0.0000       1.068794        29.0834 
 427   0.0000       1.072581        29.1864 
 428   0.0000       1.077718        29.3262 
 429   0.0000       1.086268        29.5588 
 430   0.0000       1.087932        29.6041 
 431   0.0000       1.090443        29.6725 
 432   0.0000       1.098934        29.9035 
 433   0.0000       1.101013        29.9601 
 434   0.0000       1.105040        30.0697 
 435   0.0000       1.107564        30.1384 
 436   0.0000       1.111962        30.2580 
 437   0.0000       1.115935        30.3661 
 438   0.0000       1.116876        30.3917 
 439   0.0000       1.120925        30.5019 
 440   0.0000       1.122999        30.5583 
 441   0.0000       1.126303        30.6483 
 442   0.0000       1.128347        30.7039 
 443   0.0000       1.132024        30.8039 
 444   0.0000       1.136871        30.9358 
 445   0.0000       1.137599        30.9556 
 446   0.0000       1.143213        31.1084 
 447   0.0000       1.147966        31.2378 
 448   0.0000       1.150016        31.2935 
 449   0.0000       1.153180        31.3796 
 450   0.0000       1.158249        31.5175 
 451   0.0000       1.159574        31.5536 
 452   0.0000       1.165444        31.7134 
 453   0.0000       1.167824        31.7781 
 454   0.0000       1.169082        31.8123 
 455   0.0000       1.171805        31.8864 
 456   0.0000       1.180300        32.1176 
 457   0.0000       1.183267        32.1983 
 458   0.0000       1.190201        32.3870 
 459   0.0000       1.197509        32.5859 
 460   0.0000       1.200915        32.6786 
 461   0.0000       1.201464        32.6935 
 462   0.0000       1.202086        32.7104 
 463   0.0000       1.207458        32.8566 
 464   0.0000       1.208861        32.8948 
 465   0.0000       1.215648        33.0795 
 466   0.0000       1.216832        33.1117 
 467   0.0000       1.223713        33.2989 
 468   0.0000       1.225061        33.3356 
 469   0.0000       1.228156        33.4198 
 470   0.0000       1.230321        33.4787 
 471   0.0000       1.235166        33.6106 
 472   0.0000       1.238303        33.6959 
 473   0.0000       1.242309        33.8049 
 474   0.0000       1.243712        33.8431 
 475   0.0000       1.247518        33.9467 
 476   0.0000       1.250211        34.0200 
 477   0.0000       1.251108        34.0444 
 478   0.0000       1.251820        34.0638 
 479   0.0000       1.257643        34.2222 
 480   0.0000       1.261073        34.3155 
 481   0.0000       1.263437        34.3799 
 482   0.0000       1.267690        34.4956 
 483   0.0000       1.271317        34.5943 
 484   0.0000       1.278250        34.7830 
 485   0.0000       1.281297        34.8659 
 486   0.0000       1.283207        34.9178 
 487   0.0000       1.288497        35.0618 
 488   0.0000       1.290554        35.1178 
 489   0.0000       1.292728        35.1769 
 490   0.0000       1.298231        35.3266 
 491   0.0000       1.300047        35.3761 
 492   0.0000       1.305132        35.5144 
 493   0.0000       1.311414        35.6854 
 494   0.0000       1.312757        35.7219 
 495   0.0000       1.318737        35.8847 
 496   0.0000       1.320109        35.9220 
 497   0.0000       1.322973        35.9999 
 498   0.0000       1.326580        36.0981 
 499   0.0000       1.331065        36.2201 
 500   0.0000       1.332577        36.2613 
 501   0.0000       1.340503        36.4769 
 502   0.0000       1.341832        36.5131 
 503   0.0000       1.344577        36.5878 
 504   0.0000       1.347485        36.6669 
 505   0.0000       1.350354        36.7450 
 506   0.0000       1.351978        36.7892 
 507   0.0000       1.357012        36.9262 
 508   0.0000       1.359154        36.9844 
 509   0.0000       1.362017        37.0624 
[...]
      pz      :     0.022119  p :     0.079777
      px      :     0.043606
      py      :     0.014051
 77 H s       :     0.884566  s :     0.884566
      pz      :     0.047972  p :     0.079287
      px      :     0.015024
      py      :     0.016291
 78 H s       :     0.884893  s :     0.884893
      pz      :     0.025882  p :     0.079260
      px      :     0.020457
      py      :     0.032921
 79 H s       :     0.910796  s :     0.910796
      pz      :     0.021791  p :     0.086295
      px      :     0.021661
      py      :     0.042844
 80 H s       :     0.864448  s :     0.864448
      pz      :     0.039385  p :     0.084817
      px      :     0.030276
      py      :     0.015156
 81 H s       :     0.886675  s :     0.886675
      pz      :     0.037832  p :     0.084126
      px      :     0.016172
      py      :     0.030122
 82 H s       :     0.915927  s :     0.915927
      pz      :     0.021945  p :     0.086732
      px      :     0.031655
      py      :     0.033132
 83 H s       :     0.873225  s :     0.873225
      pz      :     0.039293  p :     0.084115
      px      :     0.015271
      py      :     0.029551
 84 H s       :     0.886506  s :     0.886506
      pz      :     0.035781  p :     0.083434
      px      :     0.031704
      py      :     0.015949
 85 H s       :     0.892660  s :     0.892660
      pz      :     0.022494  p :     0.079794
      px      :     0.014063
      py      :     0.043237
 86 H s       :     0.890873  s :     0.890873
      pz      :     0.024735  p :     0.078839
      px      :     0.032989
      py      :     0.021115
 87 H s       :     0.889755  s :     0.889755
      pz      :     0.048023  p :     0.078749
      px      :     0.015587
      py      :     0.015139
 88 H s       :     0.910580  s :     0.910580
      pz      :     0.021612  p :     0.087009
      px      :     0.042944
      py      :     0.022454
 89 H s       :     0.871107  s :     0.871107
      pz      :     0.037961  p :     0.083858
      px      :     0.030500
      py      :     0.015397


                      *****************************
                      * MAYER POPULATION ANALYSIS *
                      *****************************

  NA   - Mulliken gross atomic population
  ZA   - Total nuclear charge
  QA   - Mulliken gross atomic charge
  VA   - Mayer's total valence
  BVA  - Mayer's bonded valence
  FA   - Mayer's free valence

  ATOM       NA         ZA         QA         VA         BVA        FA
  0 C      5.7844     6.0000     0.2156     3.8466     3.8466     0.0000
  1 N      7.4554     7.0000    -0.4554     3.3405     3.3405    -0.0000
  2 C      6.0714     6.0000    -0.0714     3.9232     3.9232    -0.0000
  3 N      7.3402     7.0000    -0.3402     3.4558     3.4558     0.0000
  4 C      6.0566     6.0000    -0.0566     4.0833     4.0833    -0.0000
  5 N      7.5673     7.0000    -0.5673     3.0950     3.0950    -0.0000
  6 C      6.1075     6.0000    -0.1075     3.9468     3.9468    -0.0000
  7 N      7.3408     7.0000    -0.3408     3.4327     3.4327     0.0000
  8 C      5.7907     6.0000     0.2093     3.8476     3.8476     0.0000
  9 N      7.5621     7.0000    -0.5621     3.0769     3.0769     0.0000
 10 C      5.8809     6.0000     0.1191     3.9093     3.9093    -0.0000
 11 N      7.4386     7.0000    -0.4386     3.3772     3.3772    -0.0000
 12 C      6.0670     6.0000    -0.0670     3.8678     3.8678    -0.0000
 13 N      7.4296     7.0000    -0.4296     3.4275     3.4275     0.0000
 14 C      5.7753     6.0000     0.2247     3.7914     3.7914     0.0000
 15 N      7.4408     7.0000    -0.4408     3.3734     3.3734     0.0000
 16 C      5.7701     6.0000     0.2299     3.7763     3.7763     0.0000
 17 C      6.1220     6.0000    -0.1220     3.9639     3.9639    -0.0000
 18 C      6.1850     6.0000    -0.1850     3.7621     3.7621    -0.0000
 19 C      5.7826     6.0000     0.2174     3.8691     3.8691    -0.0000
 20 C      5.7868     6.0000     0.2132     3.8293     3.8293    -0.0000
 21 C      6.0701     6.0000    -0.0701     3.8403     3.8403     0.0000
 22 C      6.0912     6.0000    -0.0912     3.9830     3.9830    -0.0000
 23 C      6.0396     6.0000    -0.0396     3.9927     3.9927     0.0000
 24 C      5.8066     6.0000     0.1934     3.8212     3.8212     0.0000
 25 C      5.8853     6.0000     0.1147     3.8919     3.8919    -0.0000
 26 C      6.0898     6.0000    -0.0898     3.9106     3.9106     0.0000
 27 C      5.7851     6.0000     0.2149     3.8621     3.8621    -0.0000
 28 C      6.0618     6.0000    -0.0618     3.9887     3.9887    -0.0000
 29 C      6.1816     6.0000    -0.1816     3.7455     3.7455    -0.0000
 30 C      5.7538     6.0000     0.2462     3.8011     3.8011    -0.0000
 31 C      5.7704     6.0000     0.2296     3.8172     3.8172     0.0000
 32 C      6.0619     6.0000    -0.0619     3.9228     3.9228    -0.0000
 33 C      6.0605     6.0000    -0.0605     3.9715     3.9715     0.0000
 34 C      6.0515     6.0000    -0.0515     3.9836     3.9836    -0.0000
 35 C      5.7715     6.0000     0.2285     3.8167     3.8167    -0.0000
 36 C      5.8917     6.0000     0.1083     3.8750     3.8750     0.0000
 37 C      6.0642     6.0000    -0.0642     3.9178     3.9178     0.0000
 38 C      5.7692     6.0000     0.2308     3.8003     3.8003     0.0000
 39 C      6.0574     6.0000    -0.0574     3.9833     3.9833     0.0000
 40 C      6.1815     6.0000    -0.1815     3.7272     3.7272     0.0000
 41 C      5.7737     6.0000     0.2263     3.8874     3.8874    -0.0000
 42 C      5.8023     6.0000     0.1977     3.8256     3.8256    -0.0000
 43 C      6.0723     6.0000    -0.0723     3.9000     3.9000    -0.0000
 44 C      6.0891     6.0000    -0.0891     3.9849     3.9849     0.0000
 45 C      6.0614     6.0000    -0.0614     3.9920     3.9920     0.0000
 46 C      5.7879     6.0000     0.2121     3.8283     3.8283    -0.0000
 47 C      5.8848     6.0000     0.1152     3.8926     3.8926    -0.0000
 48 C      6.0668     6.0000    -0.0668     3.9095     3.9095    -0.0000
 49 C      5.7611     6.0000     0.2389     3.8939     3.8939     0.0000
 50 C      6.0463     6.0000    -0.0463     3.9903     3.9903    -0.0000
 51 C      6.1926     6.0000    -0.1926     3.7364     3.7364     0.0000
 52 H      0.9633     1.0000     0.0367     0.9857     0.9857     0.0000
 53 H      1.0177     1.0000    -0.0177     0.9987     0.9987    -0.0000
 54 H      0.9532     1.0000     0.0468     1.0206     1.0206     0.0000
 55 H      0.9643     1.0000     0.0357     0.9864     0.9864    -0.0000
 56 H      0.9507     1.0000     0.0493     0.9695     0.9695     0.0000
 57 H      0.9523     1.0000     0.0477     0.9826     0.9826     0.0000
 58 H      0.9532     1.0000     0.0468     0.9847     0.9847    -0.0000
 59 H      1.0052     1.0000    -0.0052     0.9992     0.9992     0.0000
 60 H      0.9552     1.0000     0.0448     1.0169     1.0169     0.0000
 61 H      0.8288     1.0000     0.1712     1.0421     1.0421    -0.0000
 62 H      0.8246     1.0000     0.1754     1.0436     1.0436     0.0000
 63 H      0.9451     1.0000     0.0549     0.9853     0.9853    -0.0000
 64 H      1.0220     1.0000    -0.0220     0.9933     0.9933    -0.0000
 65 H      0.9530     1.0000     0.0470     1.0098     1.0098     0.0000
 66 H      0.9446     1.0000     0.0554     0.9855     0.9855     0.0000
 67 H      0.9379     1.0000     0.0621     0.9719     0.9719    -0.0000
 68 H      0.9430     1.0000     0.0570     0.9868     0.9868     0.0000
 69 H      0.9439     1.0000     0.0561     0.9828     0.9828    -0.0000
 70 H      1.0304     1.0000    -0.0304     0.9940     0.9940    -0.0000
 71 H      0.9556     1.0000     0.0444     1.0059     1.0059    -0.0000
 72 H      0.9288     1.0000     0.0712     0.9836     0.9836     0.0000
 73 H      1.0080     1.0000    -0.0080     1.0010     1.0010    -0.0000
 74 H      0.9397     1.0000     0.0603     1.0100     1.0100    -0.0000
 75 H      0.9294     1.0000     0.0706     0.9838     0.9838     0.0000
 76 H      0.9252     1.0000     0.0748     0.9721     0.9721     0.0000
 77 H      0.9321     1.0000     0.0679     0.9855     0.9855    -0.0000
 78 H      0.9327     1.0000     0.0673     0.9854     0.9854     0.0000
 79 H      1.0167     1.0000    -0.0167     0.9974     0.9974     0.0000
 80 H      0.9388     1.0000     0.0612     1.0072     1.0072    -0.0000
 81 H      0.9454     1.0000     0.0546     0.9856     0.9856     0.0000
 82 H      1.0247     1.0000    -0.0247     0.9935     0.9935    -0.0000
 83 H      0.9577     1.0000     0.0423     1.0083     1.0083     0.0000
 84 H      0.9454     1.0000     0.0546     0.9852     0.9852    -0.0000
 85 H      0.9388     1.0000     0.0612     0.9716     0.9716     0.0000
 86 H      0.9442     1.0000     0.0558     0.9839     0.9839     0.0000
 87 H      0.9426     1.0000     0.0574     0.9857     0.9857    -0.0000
 88 H      1.0144     1.0000    -0.0144     0.9967     0.9967    -0.0000
 89 H      0.9531     1.0000     0.0469     1.0076     1.0076    -0.0000

  Mayer bond orders larger than 0.100000
B(  0-C ,  1-N ) :   1.0991 B(  0-C , 17-C ) :   1.7087 B(  0-C , 52-H ) :   0.9643 
B(  1-N ,  8-C ) :   1.0883 B(  1-N , 10-C ) :   0.9776 B(  2-C , 12-C ) :   1.4953 
B(  2-C , 16-C ) :   1.3667 B(  2-C , 53-H ) :   0.9734 B(  3-N , 14-C ) :   1.2211 
B(  3-N , 16-C ) :   1.1832 B(  3-N , 61-H ) :   0.8988 B(  4-C ,  6-C ) :   1.2136 
B(  4-C , 17-C ) :   1.2149 B(  4-C , 18-C ) :   1.4643 B(  5-N , 19-C ) :   1.4567 
B(  5-N , 27-C ) :   1.3732 B(  6-C ,  8-C ) :   1.7191 B(  6-C , 54-H ) :   0.9026 
B(  7-N , 30-C ) :   1.1960 B(  7-N , 38-C ) :   1.1892 B(  7-N , 62-H ) :   0.8968 
B(  8-C , 55-H ) :   0.9639 B(  9-N , 41-C ) :   1.3949 B(  9-N , 49-C ) :   1.4246 
B( 10-C , 56-H ) :   0.9774 B( 10-C , 57-H ) :   0.9822 B( 10-C , 58-H ) :   0.9842 
B( 11-N , 20-C ) :   1.1303 B( 11-N , 24-C ) :   1.1062 B( 11-N , 25-C ) :   0.9606 
B( 12-C , 14-C ) :   1.3568 B( 12-C , 59-H ) :   0.9522 B( 13-N , 31-C ) :   1.1605 
B( 13-N , 35-C ) :   1.1601 B( 13-N , 36-C ) :   0.9416 B( 14-C , 18-C ) :   1.1221 
B( 15-N , 42-C ) :   1.1084 B( 15-N , 46-C ) :   1.1251 B( 15-N , 47-C ) :   0.9609 
B( 16-C , 51-C ) :   1.1689 B( 17-C , 60-H ) :   0.9229 B( 18-C , 19-C ) :   1.1218 
B( 19-C , 21-C ) :   1.2523 B( 20-C , 28-C ) :   1.6296 B( 20-C , 63-H ) :   0.9703 
B( 21-C , 26-C ) :   1.5844 B( 21-C , 64-H ) :   0.9330 B( 22-C , 23-C ) :   1.2884 
B( 22-C , 28-C ) :   1.2631 B( 22-C , 29-C ) :   1.2271 B( 23-C , 24-C ) :   1.6212 
B( 23-C , 65-H ) :   0.9703 B( 24-C , 66-H ) :   0.9695 B( 25-C , 67-H ) :   0.9761 
B( 25-C , 68-H ) :   0.9828 B( 25-C , 69-H ) :   0.9823 B( 26-C , 27-C ) :   1.2583 
B( 26-C , 70-H ) :   0.9684 B( 27-C , 29-C ) :   1.2059 B( 28-C , 71-H ) :   0.9720 
B( 29-C , 30-C ) :   1.2457 B( 30-C , 32-C ) :   1.2798 B( 31-C , 39-C ) :   1.5882 
B( 31-C , 72-H ) :   0.9681 B( 32-C , 37-C ) :   1.5787 B( 32-C , 73-H ) :   0.9786 
B( 33-C , 34-C ) :   1.3062 B( 33-C , 39-C ) :   1.3040 B( 33-C , 40-C ) :   1.1773 
B( 34-C , 35-C ) :   1.5861 B( 34-C , 74-H ) :   0.9697 B( 35-C , 75-H ) :   0.9681 
B( 36-C , 76-H ) :   0.9768 B( 36-C , 77-H ) :   0.9816 B( 36-C , 78-H ) :   0.9823 
B( 37-C , 38-C ) :   1.2860 B( 37-C , 79-H ) :   0.9764 B( 38-C , 40-C ) :   1.2332 
B( 39-C , 80-H ) :   0.9705 B( 40-C , 41-C ) :   1.2505 B( 41-C , 43-C ) :   1.1840 
B( 42-C , 50-C ) :   1.6322 B( 42-C , 81-H ) :   0.9696 B( 43-C , 48-C ) :   1.6690 
B( 43-C , 82-H ) :   0.9722 B( 44-C , 45-C ) :   1.2643 B( 44-C , 50-C ) :   1.2732 
B( 44-C , 51-C ) :   1.2589 B( 45-C , 46-C ) :   1.6337 B( 45-C , 83-H ) :   0.9718 
B( 46-C , 84-H ) :   0.9700 B( 47-C , 85-H ) :   0.9762 B( 47-C , 86-H ) :   0.9829 
B( 47-C , 87-H ) :   0.9824 B( 48-C , 49-C ) :   1.1875 B( 48-C , 88-H ) :   0.9748 
B( 49-C , 51-C ) :   1.2450 B( 50-C , 89-H ) :   0.9709 

-------
TIMINGS
-------

Total SCF time: 0 days 0 hours 22 min 55 sec 

Total time                  ....    1375.154 sec
Sum of individual times     ....    1371.475 sec  ( 99.7%)

Fock matrix formation       ....    1350.730 sec  ( 98.2%)
Diagonalization             ....       6.779 sec  (  0.5%)
Density matrix formation    ....       0.389 sec  (  0.0%)
Population analysis         ....       0.470 sec  (  0.0%)
Initial guess               ....       1.938 sec  (  0.1%)
Orbital Transformation      ....       0.000 sec  (  0.0%)
Orbital Orthonormalization  ....       0.000 sec  (  0.0%)
DIIS solution               ....       2.909 sec  (  0.2%)
SOSCF solution              ....       7.254 sec  (  0.5%)

Maximum memory used throughout the entire SCF-calculation: 302.7 MB


           ************************************************************
           *        Program running with 16 parallel MPI-processes    *
           *              working on a common directory               *
           ************************************************************

------------------------------------------------------------------------------
                                ORCA  MP2 
------------------------------------------------------------------------------

Freezing NCore=104 chemical core electrons

----------
MP2 ENERGY (disk based algorithm)
----------

Dimension of the basis                    ...  918
Memory devoted to MP2                     ... 2000 MB   
Data format for buffers                   ... DOUBLE
Compression type for matrix containers    ... UNCOMPRESSED

-------------------------------
PARTIAL EXCHANGE TRANSFORMATION
-------------------------------

Transformation type                        ... one-operator
Generation of integrals (i,mue|j,nue)      ... ON
Generation of integrals (mue,kappa|nue,tau)... OFF
Generation of integrals (i,mue|a,nue)      ... OFF
Dimension of the basis                     ...  918
Number of internal MOs                     ...  127 (  52- 178)
Pair cutoff                                ... 2.500e-12 Eh
Number of AO pairs in the trafo            ... 421821
Total Number of distinct AO pairs          ... 421821
Memory devoted for trafo                   ... 2000.0 MB 
Max. Number of MO pairs treated together   ...  311      
Number Format for Storage                  ... Double (8 Byte)
Integral package used                      ... LIBINT

Starting integral evaluation:
    ... done with AO integral generation
Closing buffer AOK     (38.36 GB; CompressionRatio= 1.32)
Collecting buffer AOK 
Number of MO pairs included in the trafo   ... 8128
------------------------
SORTING OF (i,mue|j,nue)
------------------------

IBATCH = 1 of  2
IBATCH = 2 of  2
Closing buffer KAO     (51.03 GB; CompressionRatio= 1.00)
Collecting buffer KAO 
N(AO-Batches) Done                         ...  85923594 
N(AO-Batches) Skipped                      ...  82520357 
N(IJ)-pairs Skipped                        ...         0 
TOTAL TIME for half transformation         ...  2858.991 sec
AO-integral generation                     ...   178.357 sec
Half transformation                        ...   316.232 sec
K-integral sorting                         ...  2218.697 sec
Process 10:   Internal MO 132
Process 13:   Internal MO 156
Process  1:   Internal MO  60
Process  4:   Internal MO  84
Process  7:   Internal MO 108

Finished integral transformation - now doing MP2 part

OPERATOR COMBINATION   0   0: ij=( 52..178, 52..178)
Process  0:   Internal MO  54
Process  2:   Internal MO  69
Process  0:   Internal MO  57
Process  1:   Internal MO  63
Process  5:   Internal MO  93
Process  3:   Internal MO  78
Process  2:   Internal MO  72
Process  8:   Internal MO 117
Process  1:   Internal MO  66
Process  6:   Internal MO 102
Process 11:   Internal MO 141
Process  4:   Internal MO  87
Process 14:   Internal MO 165
Process  2:   Internal MO  75
Process  3:   Internal MO  81
Process  9:   Internal MO 126
Process  7:   Internal MO 111
Process  5:   Internal MO  96
Process 12:   Internal MO 150
Process  4:   Internal MO  90
Process 10:   Internal MO 135
Process 15:   Internal MO 174
Process  6:   Internal MO 105
Process  8:   Internal MO 120
Process 13:   Internal MO 159
Process  5:   Internal MO  99
Process  7:   Internal MO 114
Process  9:   Internal MO 129
Process 11:   Internal MO 144
Process 14:   Internal MO 168
Process 10:   Internal MO 138
Process  8:   Internal MO 123
Process 12:   Internal MO 153
Process 15:   Internal MO 177
Process 13:   Internal MO 162
Process 11:   Internal MO 147
Process 14:   Internal MO 171
-----------------------------------------------
 MP2 CORRELATION ENERGY   :     -7.287596894 Eh
-----------------------------------------------


-------
TIMINGS
-------
Total time                : 3341.630 sec
Integral trafo            : 2860.967 sec ( 85.6%)
K(i,j)                    :    7.680 sec (  0.2%)
T(i,j)                    :    0.128 sec (  0.0%)

---------------------------------------
MP2 TOTAL ENERGY:    -2130.817210871 Eh
---------------------------------------

Maximum memory used throughout the entire MP2-calculation: 2275.3 MB

-------------------------   --------------------
FINAL SINGLE POINT ENERGY     -2130.817210871458
-------------------------   --------------------


                            ***************************************
                            *     ORCA property calculations      *
                            ***************************************


  WARNING: The energy has been calculated at the MP2 level but the densities
           used in the property calculations are still SCF densities
           MP2 response densities have not been calculated 
           use %mp2 Density relaxed end
           or  %mp2 Density unrelaxed end

                                    ---------------------
                                    Active property flags
                                    ---------------------
   (+) Dipole Moment


------------------------------------------------------------------------------
                       ORCA ELECTRIC PROPERTIES CALCULATION
------------------------------------------------------------------------------

Dipole Moment Calculation                       ... on
Quadrupole Moment Calculation                   ... off
Polarizability Calculation                      ... off
GBWName                                         ... /scratch/allen/tmpyp4_amber_gaff2/conf1/conf1/Conf19.orca.gbw
Electron density                                ... /scratch/allen/tmpyp4_amber_gaff2/conf1/conf1/Conf19.orca.scfp
The origin for moment calculation is the CENTER OF MASS  = (-0.000926, -0.004771  0.002837)

-------------
DIPOLE MOMENT
-------------
                                X             Y             Z
Electronic contribution:      2.88498      -4.17496      -0.10199
Nuclear contribution   :     -0.04626       0.15464       0.11825
                        -----------------------------------------
Total Dipole Moment    :      2.83871      -4.02032       0.01626
                        -----------------------------------------
Magnitude (a.u.)       :      4.92154
Magnitude (Debye)      :     12.50955



--------------------
Rotational spectrum 
--------------------
 
Rotational constants in cm-1:     0.001503     0.001477     0.000760 
Rotational constants in MHz :    45.056125    44.292599    22.787623 

 Dipole components along the rotational axes: 
x,y,z [a.u.] :     3.544112     3.414728     0.020559 
x,y,z [Debye]:     9.008416     8.679550     0.052258 

 

Timings for individual modules:

Sum of individual times         ...     4740.275 sec (=  79.005 min)
GTO integral calculation        ...        2.677 sec (=   0.045 min)   0.1 %
SCF iterations                  ...     1376.120 sec (=  22.935 min)  29.0 %
MP2 module                      ...     3361.478 sec (=  56.025 min)  70.9 %
                             ****ORCA TERMINATED NORMALLY****
TOTAL RUN TIME: 0 days 1 hours 19 minutes 3 seconds 515 msec
# of primitive gaussian functions

