
                                 *****************
                                 * O   R   C   A *
                                 *****************

                                            #,                                       
                                            ###                                      
                                            ####                                     
                                            #####                                    
                                            ######                                   
                                           ########,                                 
                                     ,,################,,,,,                         
                               ,,#################################,,                 
                          ,,##########################################,,             
                       ,#########################################, ''#####,          
                    ,#############################################,,   '####,        
                  ,##################################################,,,,####,       
                ,###########''''           ''''###############################       
              ,#####''   ,,,,##########,,,,          '''####'''          '####       
            ,##' ,,,,###########################,,,                        '##       
           ' ,,###''''                  '''############,,,                           
         ,,##''                                '''############,,,,        ,,,,,,###''
      ,#''                                            '''#######################'''  
     '                                                          ''''####''''         
             ,#######,   #######,   ,#######,      ##                                
            ,#'     '#,  ##    ##  ,#'     '#,    #''#        ######   ,####,        
            ##       ##  ##   ,#'  ##            #'  '#       #        #'  '#        
            ##       ##  #######   ##           ,######,      #####,   #    #        
            '#,     ,#'  ##    ##  '#,     ,#' ,#      #,         ##   #,  ,#        
             '#######'   ##     ##  '#######'  #'      '#     #####' # '####'        



                  #######################################################
                  #                        -***-                        #
                  #          Department of theory and spectroscopy      #
                  #    Directorship and core code : Frank Neese         #
                  #        Max Planck Institute fuer Kohlenforschung    #
                  #                Kaiser Wilhelm Platz 1               #
                  #                 D-45470 Muelheim/Ruhr               #
                  #                      Germany                        #
                  #                                                     #
                  #                  All rights reserved                #
                  #                        -***-                        #
                  #######################################################


                         Program Version 5.0.4 -  RELEASE  -


 With contributions from (in alphabetic order):
   Daniel Aravena         : Magnetic Suceptibility
   Michael Atanasov       : Ab Initio Ligand Field Theory (pilot matlab implementation)
   Alexander A. Auer      : GIAO ZORA, VPT2 properties, NMR spectrum
   Ute Becker             : Parallelization
   Giovanni Bistoni       : ED, misc. LED, open-shell LED, HFLD
   Martin Brehm           : Molecular dynamics
   Dmytro Bykov           : SCF Hessian
   Vijay G. Chilkuri      : MRCI spin determinant printing, contributions to CSF-ICE
   Dipayan Datta          : RHF DLPNO-CCSD density
   Achintya Kumar Dutta   : EOM-CC, STEOM-CC
   Dmitry Ganyushin       : Spin-Orbit,Spin-Spin,Magnetic field MRCI
   Miquel Garcia          : C-PCM and meta-GGA Hessian, CC/C-PCM, Gaussian charge scheme
   Yang Guo               : DLPNO-NEVPT2, F12-NEVPT2, CIM, IAO-localization
   Andreas Hansen         : Spin unrestricted coupled pair/coupled cluster methods
   Benjamin Helmich-Paris : MC-RPA, TRAH-SCF, COSX integrals
   Lee Huntington         : MR-EOM, pCC
   Robert Izsak           : Overlap fitted RIJCOSX, COSX-SCS-MP3, EOM
   Marcus Kettner         : VPT2
   Christian Kollmar      : KDIIS, OOCD, Brueckner-CCSD(T), CCSD density, CASPT2, CASPT2-K
   Simone Kossmann        : Meta GGA functionals, TD-DFT gradient, OOMP2, MP2 Hessian
   Martin Krupicka        : Initial AUTO-CI
   Lucas Lang             : DCDCAS
   Marvin Lechner         : AUTO-CI (C++ implementation), FIC-MRCC
   Dagmar Lenk            : GEPOL surface, SMD
   Dimitrios Liakos       : Extrapolation schemes; Compound Job, initial MDCI parallelization
   Dimitrios Manganas     : Further ROCIS development; embedding schemes
   Dimitrios Pantazis     : SARC Basis sets
   Anastasios Papadopoulos: AUTO-CI, single reference methods and gradients
   Taras Petrenko         : DFT Hessian,TD-DFT gradient, ASA, ECA, R-Raman, ABS, FL, XAS/XES, NRVS
   Peter Pinski           : DLPNO-MP2, DLPNO-MP2 Gradient
   Christoph Reimann      : Effective Core Potentials
   Marius Retegan         : Local ZFS, SOC
   Christoph Riplinger    : Optimizer, TS searches, QM/MM, DLPNO-CCSD(T), (RO)-DLPNO pert. Triples
   Tobias Risthaus        : Range-separated hybrids, TD-DFT gradient, RPA, STAB
   Michael Roemelt        : Original ROCIS implementation
   Masaaki Saitow         : Open-shell DLPNO-CCSD energy and density
   Barbara Sandhoefer     : DKH picture change effects
   Avijit Sen             : IP-ROCIS
   Kantharuban Sivalingam : CASSCF convergence, NEVPT2, FIC-MRCI
   Bernardo de Souza      : ESD, SOC TD-DFT
   Georgi Stoychev        : AutoAux, RI-MP2 NMR, DLPNO-MP2 response
   Willem Van den Heuvel  : Paramagnetic NMR
   Boris Wezisla          : Elementary symmetry handling
   Frank Wennmohs         : Technical directorship


 We gratefully acknowledge several colleagues who have allowed us to
 interface, adapt or use parts of their codes:
   Stefan Grimme, W. Hujo, H. Kruse, P. Pracht,  : VdW corrections, initial TS optimization,
                  C. Bannwarth, S. Ehlert          DFT functionals, gCP, sTDA/sTD-DF
   Ed Valeev, F. Pavosevic, A. Kumar             : LibInt (2-el integral package), F12 methods
   Garnet Chan, S. Sharma, J. Yang, R. Olivares  : DMRG
   Ulf Ekstrom                                   : XCFun DFT Library
   Mihaly Kallay                                 : mrcc  (arbitrary order and MRCC methods)
   Jiri Pittner, Ondrej Demel                    : Mk-CCSD
   Frank Weinhold                                : gennbo (NPA and NBO analysis)
   Christopher J. Cramer and Donald G. Truhlar   : smd solvation model
   Lars Goerigk                                  : TD-DFT with DH, B97 family of functionals
   V. Asgeirsson, H. Jonsson                     : NEB implementation
   FAccTs GmbH                                   : IRC, NEB, NEB-TS, DLPNO-Multilevel, CI-OPT
                                                   MM, QMMM, 2- and 3-layer-ONIOM, Crystal-QMMM,
                                                   LR-CPCM, SF, NACMEs, symmetry and pop. for TD-DFT,
                                                   nearIR, NL-DFT gradient (VV10), updates on ESD,
                                                   ML-optimized integration grids
   S Lehtola, MJT Oliveira, MAL Marques          : LibXC Library
   Liviu Ungur et al                             : ANISO software


 Your calculation uses the libint2 library for the computation of 2-el integrals
 For citations please refer to: http://libint.valeyev.net

 Your ORCA version has been built with support for libXC version: 5.1.0
 For citations please refer to: https://tddft.org/programs/libxc/

 This ORCA versions uses:
   CBLAS   interface :  Fast vector & matrix operations
   LAPACKE interface :  Fast linear algebra routines
   SCALAPACK package :  Parallel linear algebra routines
   Shared memory     :  Shared parallel matrices
   BLAS/LAPACK       :  OpenBLAS 0.3.15  USE64BITINT DYNAMIC_ARCH NO_AFFINITY Sandybridge SINGLE_THREADED
        Core in use  :  Sandybridge
   Copyright (c) 2011-2014, The OpenBLAS Project


================================================================================

----- Orbital basis set information -----
Your calculation utilizes the basis: cc-pVDZ 
       H, B-Ne : Obtained from the ccRepo (grant-hill.group.shef.ac.uk/ccrepo) Feb. 2017
                 T. H. Dunning, Jr., J. Chem. Phys. 90, 1007 (1989)
            He : Obtained from the ccRepo (grant-hill.group.shef.ac.uk/ccrepo) Feb. 2017
                 D. E. Woon, T. H. Dunning, Jr., J. Chem. Phys. 100, 2975 (1994)
  Li-Be, Na-Mg : Obtained from the ccRepo (grant-hill.group.shef.ac.uk/ccrepo) Feb. 2017
                 B. P. Prascher, D. E. Woon, K. A. Peterson, T. H. Dunning, Jr., A. K. Wilson, Theor. Chem. Acc. 128, 69 (2011)
         Al-Ar : Obtained from the ccRepo (grant-hill.group.shef.ac.uk/ccrepo) Feb. 2017
                 D. E. Woon, T. H. Dunning, Jr., J. Chem. Phys. 98, 1358 (1993)
            Ca : Obtained from the Peterson Research Group Website (tyr0.chem.wsu.edu/~kipeters) Feb. 2017
                 J. Koput, K. A. Peterson, J. Phys. Chem. 106, 9595 (2002)
         Sc-Zn : Obtained from the ccRepo (grant-hill.group.shef.ac.uk/ccrepo) Feb. 2017
                 N. B. Balabanov, K. A. Peterson, J. Chem. Phys. 123, 064107 (2005)
                 N. B. Balabanov, K. A. Peterson, J. Chem. Phys. 125, 074110 (2006)
         Ga-Kr : Obtained from the ccRepo (grant-hill.group.shef.ac.uk/ccrepo) Feb. 2017
                 A. K. Wilson, D. E. Woon, K. A. Peterson, T. H. Dunning, Jr., J. Chem. Phys. 110, 7667 (1999)

================================================================================
                                        WARNINGS
                       Please study these warnings very carefully!
================================================================================


WARNING: No MP2 level density has been requested!
         To caclulate MP2 level properties use
         %mp2 Density relaxed end
         or
         %mp2 Density unrelaxed end

WARNING: Post HF methods need fully converged wavefunctions
  ===> : Setting SCFConvForced true
         You can overwrite this default with %scf ConvForced false 


INFO   : the flag for use of the SHARK integral package has been found!

================================================================================
                                       INPUT FILE
================================================================================
NAME = /scratch/allen/tmpyp4_amber_gaff2/2.Mdgx/conf11/conf11/Conf203.orca
|  1> ! PAL2
|  2> ! mp2 cc-pvdz TightSCF  NoKeepInts
|  3> 
|  4> %scf
|  5>   MaxCore 2000
|  6> end
|  7> %mp2
|  8>   MaxCore 2000
|  9> end
| 10> * xyz 0 1
| 11>    C       -4.88900         5.21800         0.49700
| 12>    C        1.47400         4.04100         0.05700
| 13>    C       -2.80200         4.09300         0.04900
| 14>    C       -2.28800         5.32600        -0.38100
| 15>    C       -3.08300         6.45500        -0.35600
| 16>    C       -5.17800         7.62600         0.12500
| 17>    C        0.13200         4.30700         0.06100
| 18>    C       -0.56900         3.05600         0.04700
| 19>    C        1.64900         2.61800         0.02300
| 20>    C       -4.13200         4.06300         0.49600
| 21>    N       -4.36400         6.39100         0.07500
| 22>    N        0.38800         2.06700         0.02500
| 23>    N       -2.01000         0.39500        -0.07500
| 24>    N       -0.38800        -2.07400        -0.02700
| 25>    N        2.01000        -0.40100         0.06500
| 26>    C       -1.96000         2.86100         0.02400
| 27>    C       -2.62300         1.61500        -0.01800
| 28>    C       -5.57300        -4.32900         1.06600
| 29>    C       -4.07300         1.47100         0.05600
| 30>    C       -4.10600        -2.75600        -0.02600
| 31>    C       -4.99500        -2.75700        -1.11100
| 32>    C       -6.13200        -3.54200        -1.07600
| 33>    C       -7.65100        -5.11300         0.04000
| 34>    C       -4.32400         0.14100         0.03700
| 35>    C       -3.02500        -0.52000        -0.04800
| 36>    C       -4.42200        -3.56600         1.07500
| 37>    N       -6.40700        -4.31300         0.00100
| 38>    C       -2.86700        -1.92200        -0.04000
| 39>    C       -1.65000        -2.62400        -0.02700
| 40>    C        3.56800        -6.14200        -1.04000
| 41>    C       -1.47600        -4.04900        -0.03400
| 42>    C        2.80300        -4.09900        -0.00800
| 43>    C        3.65700        -4.38400         1.06900
| 44>    C        4.42700        -5.53000         1.05900
| 45>    C        5.24500        -7.58800         0.01400
| 46>    C       -0.13400        -4.31500        -0.02200
| 47>    C        0.56800        -3.06400        -0.02700
| 48>    C        2.77500        -5.01200        -1.07400
| 49>    N        4.37600        -6.39100         0.01700
| 50>    C        1.95900        -2.86900        -0.00900
| 51>    C        2.62100        -1.62200         0.00900
| 52>    C        5.54300         4.33900        -1.13000
| 53>    C        4.07000        -1.47900        -0.09400
| 54>    C        4.10400         2.75100        -0.02100
| 55>    C        5.02700         2.72900         1.03600
| 56>    C        6.16600         3.50900         0.97800
| 57>    C        7.61900         5.15300        -0.11500
| 58>    C        4.32100        -0.14800        -0.09200
| 59>    C        3.02500         0.51400         0.01500
| 60>    C        4.38700         3.58200        -1.11500
| 61>    C        2.86600         1.91600         0.01300
| 62>    N        6.41300         4.29600        -0.09500
| 63>    H       -5.92300         5.23900         0.82100
| 64>    H        2.27400         4.76600         0.08100
| 65>    H       -1.26600         5.41600        -0.72800
| 66>    H       -2.72900         7.42900        -0.66900
| 67>    H       -4.99400         8.13500         1.07400
| 68>    H       -4.89100         8.26900        -0.70700
| 69>    H       -6.23000         7.35600         0.04300
| 70>    H       -0.33200         5.28200         0.06900
| 71>    H       -4.59100         3.13800         0.82700
| 72>    H        0.18200         1.07200         0.00500
| 73>    H       -0.18300        -1.08000        -0.02100
| 74>    H       -5.86400        -4.96200         1.89500
| 75>    H       -4.79400         2.27200         0.13900
| 76>    H       -4.80000        -2.16000        -1.99400
| 77>    H       -6.84100        -3.58200        -1.89300
| 78>    H       -8.42800        -4.53600         0.54600
| 79>    H       -7.95600        -5.33700        -0.98100
| 80>    H       -7.45600        -6.03700         0.58400
| 81>    H       -5.28700        -0.34400         0.10000
| 82>    H       -3.78000        -3.60100         1.94700
| 83>    H        3.58700        -6.86800        -1.84300
| 84>    H       -2.27600        -4.77400        -0.05000
| 85>    H        3.71400        -3.72400         1.92600
| 86>    H        5.09200        -5.79500         1.87100
| 87>    H        6.20500        -7.32900        -0.43900
| 88>    H        5.39300        -7.91700         1.04200
| 89>    H        4.75900        -8.37300        -0.56400
| 90>    H        0.32900        -5.29000        -0.00800
| 91>    H        2.14600        -4.84200        -1.94000
| 92>    H        5.80800         4.98600        -1.95600
| 93>    H        4.78800        -2.28100        -0.18500
| 94>    H        4.86000         2.11400         1.91200
| 95>    H        6.90100         3.53100         1.77200
| 96>    H        7.38300         6.10900         0.35600
| 97>    H        8.41400         4.65200         0.43500
| 98>    H        7.92100         5.31000        -1.15000
| 99>    H        5.28300         0.33600        -0.17900
|100>    H        3.72000         3.63200        -1.96700
|101> *
|102> 
|103>                          ****END OF INPUT****
================================================================================

                       ****************************
                       * Single Point Calculation *
                       ****************************

---------------------------------
CARTESIAN COORDINATES (ANGSTROEM)
---------------------------------
  C     -4.889000    5.218000    0.497000
  C      1.474000    4.041000    0.057000
  C     -2.802000    4.093000    0.049000
  C     -2.288000    5.326000   -0.381000
  C     -3.083000    6.455000   -0.356000
  C     -5.178000    7.626000    0.125000
  C      0.132000    4.307000    0.061000
  C     -0.569000    3.056000    0.047000
  C      1.649000    2.618000    0.023000
  C     -4.132000    4.063000    0.496000
  N     -4.364000    6.391000    0.075000
  N      0.388000    2.067000    0.025000
  N     -2.010000    0.395000   -0.075000
  N     -0.388000   -2.074000   -0.027000
  N      2.010000   -0.401000    0.065000
  C     -1.960000    2.861000    0.024000
  C     -2.623000    1.615000   -0.018000
  C     -5.573000   -4.329000    1.066000
  C     -4.073000    1.471000    0.056000
  C     -4.106000   -2.756000   -0.026000
  C     -4.995000   -2.757000   -1.111000
  C     -6.132000   -3.542000   -1.076000
  C     -7.651000   -5.113000    0.040000
  C     -4.324000    0.141000    0.037000
  C     -3.025000   -0.520000   -0.048000
  C     -4.422000   -3.566000    1.075000
  N     -6.407000   -4.313000    0.001000
  C     -2.867000   -1.922000   -0.040000
  C     -1.650000   -2.624000   -0.027000
  C      3.568000   -6.142000   -1.040000
  C     -1.476000   -4.049000   -0.034000
  C      2.803000   -4.099000   -0.008000
  C      3.657000   -4.384000    1.069000
  C      4.427000   -5.530000    1.059000
  C      5.245000   -7.588000    0.014000
  C     -0.134000   -4.315000   -0.022000
  C      0.568000   -3.064000   -0.027000
  C      2.775000   -5.012000   -1.074000
  N      4.376000   -6.391000    0.017000
  C      1.959000   -2.869000   -0.009000
  C      2.621000   -1.622000    0.009000
  C      5.543000    4.339000   -1.130000
  C      4.070000   -1.479000   -0.094000
  C      4.104000    2.751000   -0.021000
  C      5.027000    2.729000    1.036000
  C      6.166000    3.509000    0.978000
  C      7.619000    5.153000   -0.115000
  C      4.321000   -0.148000   -0.092000
  C      3.025000    0.514000    0.015000
  C      4.387000    3.582000   -1.115000
  C      2.866000    1.916000    0.013000
  N      6.413000    4.296000   -0.095000
  H     -5.923000    5.239000    0.821000
  H      2.274000    4.766000    0.081000
  H     -1.266000    5.416000   -0.728000
  H     -2.729000    7.429000   -0.669000
  H     -4.994000    8.135000    1.074000
  H     -4.891000    8.269000   -0.707000
  H     -6.230000    7.356000    0.043000
  H     -0.332000    5.282000    0.069000
  H     -4.591000    3.138000    0.827000
  H      0.182000    1.072000    0.005000
  H     -0.183000   -1.080000   -0.021000
  H     -5.864000   -4.962000    1.895000
  H     -4.794000    2.272000    0.139000
  H     -4.800000   -2.160000   -1.994000
  H     -6.841000   -3.582000   -1.893000
  H     -8.428000   -4.536000    0.546000
  H     -7.956000   -5.337000   -0.981000
  H     -7.456000   -6.037000    0.584000
  H     -5.287000   -0.344000    0.100000
  H     -3.780000   -3.601000    1.947000
  H      3.587000   -6.868000   -1.843000
  H     -2.276000   -4.774000   -0.050000
  H      3.714000   -3.724000    1.926000
  H      5.092000   -5.795000    1.871000
  H      6.205000   -7.329000   -0.439000
  H      5.393000   -7.917000    1.042000
  H      4.759000   -8.373000   -0.564000
  H      0.329000   -5.290000   -0.008000
  H      2.146000   -4.842000   -1.940000
  H      5.808000    4.986000   -1.956000
  H      4.788000   -2.281000   -0.185000
  H      4.860000    2.114000    1.912000
  H      6.901000    3.531000    1.772000
  H      7.383000    6.109000    0.356000
  H      8.414000    4.652000    0.435000
  H      7.921000    5.310000   -1.150000
  H      5.283000    0.336000   -0.179000
  H      3.720000    3.632000   -1.967000

----------------------------
CARTESIAN COORDINATES (A.U.)
----------------------------
  NO LB      ZA    FRAG     MASS         X           Y           Z
   0 C     6.0000    0    12.011   -9.238871    9.860591    0.939194
   1 C     6.0000    0    12.011    2.785456    7.636383    0.107714
   2 C     6.0000    0    12.011   -5.295013    7.734649    0.092597
   3 C     6.0000    0    12.011   -4.323693   10.064681   -0.719986
   4 C     6.0000    0    12.011   -5.826026   12.198182   -0.672743
   5 C     6.0000    0    12.011   -9.785002   14.411051    0.236216
   6 C     6.0000    0    12.011    0.249444    8.139050    0.115273
   7 C     6.0000    0    12.011   -1.075254    5.775003    0.088817
   8 C     6.0000    0    12.011    3.116158    4.947303    0.043464
   9 C     6.0000    0    12.011   -7.808348    7.677957    0.937304
  10 N     7.0000    0    14.007   -8.246765   12.077240    0.141729
  11 N     7.0000    0    14.007    0.733214    3.906064    0.047243
  12 N     7.0000    0    14.007   -3.798350    0.746442   -0.141729
  13 N     7.0000    0    14.007   -0.733214   -3.919292   -0.051023
  14 N     7.0000    0    14.007    3.798350   -0.757780    0.122832
  15 C     6.0000    0    12.011   -3.703863    5.406506    0.045353
  16 C     6.0000    0    12.011   -4.956752    3.051908   -0.034015
  17 C     6.0000    0    12.011  -10.531444   -8.180624    2.014448
  18 C     6.0000    0    12.011   -7.696855    2.779787    0.105825
  19 C     6.0000    0    12.011   -7.759216   -5.208085   -0.049133
  20 C     6.0000    0    12.011   -9.439182   -5.209975   -2.099486
  21 C     6.0000    0    12.011  -11.587801   -6.693410   -2.033345
  22 C     6.0000    0    12.011  -14.458295   -9.662170    0.075589
  23 C     6.0000    0    12.011   -8.171176    0.266451    0.069920
  24 C     6.0000    0    12.011   -5.716422   -0.982658   -0.090707
  25 C     6.0000    0    12.011   -8.356369   -6.738763    2.031456
  26 N     7.0000    0    14.007  -12.107475   -8.150389    0.001890
  27 C     6.0000    0    12.011   -5.417845   -3.632054   -0.075589
  28 C     6.0000    0    12.011   -3.118048   -4.958641   -0.051023
  29 C     6.0000    0    12.011    6.742543  -11.606698   -1.965315
  30 C     6.0000    0    12.011   -2.789236   -7.651501   -0.064251
  31 C     6.0000    0    12.011    5.296902   -7.745987   -0.015118
  32 C     6.0000    0    12.011    6.910728   -8.284559    2.020117
  33 C     6.0000    0    12.011    8.365818  -10.450186    2.001220
  34 C     6.0000    0    12.011    9.911614  -14.339242    0.026456
  35 C     6.0000    0    12.011   -0.253223   -8.154168   -0.041574
  36 C     6.0000    0    12.011    1.073364   -5.790121   -0.051023
  37 C     6.0000    0    12.011    5.243990   -9.471307   -2.029566
  38 N     7.0000    0    14.007    8.269442  -12.077240    0.032125
  39 C     6.0000    0    12.011    3.701973   -5.421624   -0.017008
  40 C     6.0000    0    12.011    4.952972   -3.065136    0.017008
  41 C     6.0000    0    12.011   10.474752    8.199522   -2.135391
  42 C     6.0000    0    12.011    7.691185   -2.794905   -0.177634
  43 C     6.0000    0    12.011    7.755436    5.198637   -0.039684
  44 C     6.0000    0    12.011    9.499653    5.157063    1.957756
  45 C     6.0000    0    12.011   11.652051    6.631049    1.848152
  46 C     6.0000    0    12.011   14.397823    9.737759   -0.217319
  47 C     6.0000    0    12.011    8.165507   -0.279679   -0.173855
  48 C     6.0000    0    12.011    5.716422    0.971319    0.028346
  49 C     6.0000    0    12.011    8.290229    6.768999   -2.107045
  50 C     6.0000    0    12.011    5.415955    3.620715    0.024566
  51 N     7.0000    0    14.007   12.118814    8.118263   -0.179524
  52 H     1.0000    0     1.008  -11.192848    9.900275    1.551465
  53 H     1.0000    0     1.008    4.297237    9.006435    0.153068
  54 H     1.0000    0     1.008   -2.392393   10.234757   -1.375721
  55 H     1.0000    0     1.008   -5.157063   14.038775   -1.264227
  56 H     1.0000    0     1.008   -9.437292   15.372922    2.029566
  57 H     1.0000    0     1.008   -9.242651   15.626145   -1.336036
  58 H     1.0000    0     1.008  -11.772994   13.900825    0.081258
  59 H     1.0000    0     1.008   -0.627389    9.981533    0.130391
  60 H     1.0000    0     1.008   -8.675733    5.929961    1.562804
  61 H     1.0000    0     1.008    0.343930    2.025786    0.009449
  62 H     1.0000    0     1.008   -0.345820   -2.040904   -0.039684
  63 H     1.0000    0     1.008  -11.081354   -9.376821    3.581031
  64 H     1.0000    0     1.008   -9.059347    4.293458    0.262672
  65 H     1.0000    0     1.008   -9.070685   -4.081808   -3.768114
  66 H     1.0000    0     1.008  -12.927616   -6.768999   -3.577252
  67 H     1.0000    0     1.008  -15.926612   -8.571798    1.031790
  68 H     1.0000    0     1.008  -15.034661  -10.085468   -1.853821
  69 H     1.0000    0     1.008  -14.089798  -11.408277    1.103600
  70 H     1.0000    0     1.008   -9.990982   -0.650066    0.188973
  71 H     1.0000    0     1.008   -7.143165   -6.804904    3.679297
  72 H     1.0000    0     1.008    6.778448  -12.978639   -3.482765
  73 H     1.0000    0     1.008   -4.301017   -9.021553   -0.094486
  74 H     1.0000    0     1.008    7.018443   -7.037340    3.639613
  75 H     1.0000    0     1.008    9.622485  -10.950963    3.535678
  76 H     1.0000    0     1.008   11.725751  -13.849803   -0.829590
  77 H     1.0000    0     1.008   10.191293  -14.960962    1.969095
  78 H     1.0000    0     1.008    8.993207  -15.822677   -1.065806
  79 H     1.0000    0     1.008    0.621720   -9.996651   -0.015118
  80 H     1.0000    0     1.008    4.055352   -9.150054   -3.666069
  81 H     1.0000    0     1.008   10.975529    9.422175   -3.696304
  82 H     1.0000    0     1.008    9.048009   -4.310465   -0.349599
  83 H     1.0000    0     1.008    9.184069    3.994881    3.613156
  84 H     1.0000    0     1.008   13.041000    6.672623    3.348595
  85 H     1.0000    0     1.008   13.951848   11.544337    0.672743
  86 H     1.0000    0     1.008   15.900156    8.791006    0.822031
  87 H     1.0000    0     1.008   14.968521   10.034446   -2.173185
  88 H     1.0000    0     1.008    9.983423    0.634948   -0.338261
  89 H     1.0000    0     1.008    7.029781    6.863485   -3.717091

--------------------------------
INTERNAL COORDINATES (ANGSTROEM)
--------------------------------
 C      0   0   0     0.000000000000     0.00000000     0.00000000
 C      1   0   0     6.485884519478     0.00000000     0.00000000
 C      1   2   0     2.412860957453    18.95612110     0.00000000
 C      3   1   2     1.403347782982    87.93914100   321.67644601
 C      4   3   1     1.381047066540   120.12407248     0.11708660
 C      5   4   3     2.447780014625   152.53927929     1.64265259
 C      2   1   3     1.368114030335     3.79347581    79.10638875
 C      7   2   4     1.434084376876   108.05010202   139.00278314
 C      2   1   3     1.434123425651   107.54084502   338.17685595
 C      1   2   7     1.380968862792    46.40107307   104.78092778
 N      1   2   7     1.352641120179    75.84355450   298.90495610
 N      9   2   1     1.376127174356   106.58526707     3.15901684
 N     12   9   2     2.925062050624   168.53581413   171.12065651
 N     13  12   9     2.954513327098    91.55032014    11.12112580
 N     14  13  12     2.925371258490    88.43092389   359.84326247
 C      8   7   2     1.404790019896   127.24786865   181.11170171
 C     13  12   9     1.366535034311    81.72106996   188.00453233
 C     14  13  12     5.758810554272    80.56209567   166.76250791
 C     17  13  12     1.459010623676   111.08861209   183.82872609
 C     18  14  13     2.412235892279    27.27532823    36.33507194
 C     20  18  14     1.402692767501    87.95206320   148.94598259
 C     21  20  18     1.382106725257   120.14573887   359.70382047
 C     18  14  13     2.446510985056   144.15733107    82.80075377
 C     19  17  13     1.353610726908   106.29293361   359.75308708
 C     13  12   9     1.366813447402   172.21332906    33.46711076
 C     18  14  13     1.380960173213    15.08449437   309.23336894
 N     22  21  20     1.352773077792   120.73759875     0.27865223
 C     25  13  17     1.410897586645   125.60330303   182.37774668
 C     14  13  12     1.376642291955    80.24689249   177.85461986
 C     14  13  12     5.764089607215   164.51507311   312.20821879
 C     29  14  13     1.435600919476   106.58649366   178.76395472
 C     30  14  13     2.413316804732    27.10625047    82.12560436
 C     32  30  14     1.403734305344    87.90059683   149.76154742
 C     33  32  30     1.380694028378   120.14881443   359.74174632
 C     34  33  32     2.448777858443   152.49203239     2.45173620
 C     31  29  14     1.368160809262   108.16950133     0.70383075
 C     14  13  12     1.376239804685   169.26375223   353.09862627
 C     30  14  13     1.380907310430    14.68948582   353.70041132
 N     34  33  32     1.352658863128   120.85575621     0.19603406
 C     37  14  29     1.404717053360   126.01551127   180.90772073
 C     15  14  13     1.366491126938    81.61824056   183.09049352
 C      2   1   3     4.249062720177   161.03259889   116.40386062
 C     41  15  14     1.459677704153   111.05201287   175.08990246
 C     42   2   1     2.412953791518    41.78584867   195.85952054
 C     44  42   2     1.403446472082    87.95153797   233.97558675
 C     45  44  42     1.381696421071   120.11137308     0.19721020
 C     42   2   1     2.450019795838   135.97209175   106.17436964
 C     43  41  15     1.354461516618   106.26758155     0.30894352
 C     15  14  13     1.367461151185   171.87382904   332.35056460
 C     42   2   1     1.381886391857    32.59078432   244.71479973
 C      9   2   1     1.404988612053   126.98745415   184.16335437
 N     42   2   1     1.352765315936   113.57249190   133.91095883
 H      1   2   7     1.083777191124   163.69721495   157.73695076
 H      2   1   3     1.079907866440   127.11591041   162.53385952
 H      4   3   1     1.083048013709   121.11816624   179.53627464
 H      5   4   3     1.082571475700   122.82246669   179.44526354
 H      6   5   4     1.092491647565   104.44395052   100.10110513
 H      6   5   4     1.089973394171    84.65561558   209.52448302
 H      6   5   4     1.089186852657   133.88975448   322.36411148
 H      7   2  54     1.079807853278   126.66122480     1.30600390
 H     10   1   2     1.084374012968   118.76338526   164.93338456
 H     12   9   2     1.016297692608   125.29023241   180.00180175
 H     14  13  12     1.014936943854    44.97226959   359.42596618
 H     18  14  13     1.082871645210   128.03556573   234.20482432
 H     19  17  13     1.080893611786   126.41830519   178.11313280
 H     21  20  18     1.083569563987   121.05669627   180.67006309
 H     22  21  20     1.082483256222   122.73097286   180.59748951
 H     23  18  14     1.092105306278   103.92715769   234.93429879
 H     23  18  14     1.088871893291   134.19244188    12.25587044
 H     23  18  14     1.089833473518    84.85857450   125.45241208
 H     24  19  17     1.080075460327   127.28078426   178.44613241
 H     26  18  14     1.083408048706   118.76995697   244.94906660
 H     30  14  13     1.082703098730   127.99711412   279.66882698
 H     31  29  14     1.079759695488   125.22293469   180.92530585
 H     33  32  30     1.083188810873   121.01964473   180.74284758
 H     34  33  32     1.082494341787   122.70821597   180.59516895
 H     35  34  33     1.092652735319   105.73575241    97.19771933
 H     35  34  33     1.089462711615    84.05943581   206.43036958
 H     35  34  33     1.089268102902   133.08365142   318.50306270
 H     36  31  29     1.079439669458   126.61599965   178.98859863
 H     38  30  73     1.083742127999   118.77264435   359.90091293
 H     42   2   1     1.082178358682   119.31790784   350.54248929
 H     43  41  15     1.080281907652   126.36969097   182.06329380
 H     45  44  42     1.083277434455   121.10105945   179.58025624
 H     46  45  44     1.082194529648   122.72144639   179.46906377
 H     47  42   2     1.091546151109   106.65128841   315.16475048
 H     47  42   2     1.088818625851   132.46019523    94.52397119
 H     47  42   2     1.089531091801    83.63838232   206.04504406
 H     48  43  41     1.080402239909   127.23657387   181.62955349
 H     50  42   2     1.083186502870   118.77001737    94.71359229

---------------------------
INTERNAL COORDINATES (A.U.)
---------------------------
 C      0   0   0     0.000000000000     0.00000000     0.00000000
 C      1   0   0    12.256545478052     0.00000000     0.00000000
 C      1   2   0     4.559646408817    18.95612110     0.00000000
 C      3   1   2     2.651942980481    87.93914100   321.67644601
 C      4   3   1     2.609800733817   120.12407248     0.11708660
 C      5   4   3     4.625633863728   152.53927929     1.64265259
 C      2   1   3     2.585360837309     3.79347581    79.10638875
 C      7   2   4     2.710026725231   108.05010202   139.00278314
 C      2   1   3     2.710100516721   107.54084502   338.17685595
 C      1   2   7     2.609652950149    46.40107307   104.78092778
 N      1   2   7     2.556121274619    75.84355450   298.90495610
 N      9   2   1     2.600503484979   106.58526707     3.15901684
 N     12   9   2     5.527566200405   168.53581413   171.12065651
 N     13  12   9     5.583221047236    91.55032014    11.12112580
 N     14  13  12     5.528150518591    88.43092389   359.84326247
 C      8   7   2     2.654668413270   127.24786865   181.11170171
 C     13  12   9     2.582376967257    81.72106996   188.00453233
 C     14  13  12    10.882574804710    80.56209567   166.76250791
 C     17  13  12     2.757130505230   111.08861209   183.82872609
 C     18  14  13     4.558465206823    27.27532823    36.33507194
 C     20  18  14     2.650705180609    87.95206320   148.94598259
 C     21  20  18     2.611803198586   120.14573887   359.70382047
 C     18  14  13     4.623235745386   144.15733107    82.80075377
 C     19  17  13     2.557953565794   106.29293361   359.75308708
 C     13  12   9     2.582903091751   172.21332906    33.46711076
 C     18  14  13     2.609636529225    15.08449437   309.23336894
 N     22  21  20     2.556370638369   120.73759875     0.27865223
 C     25  13  17     2.666210041769   125.60330303   182.37774668
 C     14  13  12     2.601476916169    80.24689249   177.85461986
 C     14  13  12    10.892550769017   164.51507311   312.20821879
 C     29  14  13     2.712892575415   106.58649366   178.76395472
 C     30  14  13     4.560507835333    27.10625047    82.12560436
 C     32  30  14     2.652673401891    87.90059683   149.76154742
 C     33  32  30     2.609133588376   120.14881443   359.74174632
 C     34  33  32     4.627519515267   152.49203239     2.45173620
 C     31  29  14     2.585449236669   108.16950133     0.70383075
 C     14  13  12     2.600716325456   169.26375223   353.09862627
 C     30  14  13     2.609536633043    14.68948582   353.70041132
 N     34  33  32     2.556154803934   120.85575621     0.19603406
 C     37  14  29     2.654530526499   126.01551127   180.90772073
 C     15  14  13     2.582293994346    81.61824056   183.09049352
 C      2   1   3     8.029564866989   161.03259889   116.40386062
 C     41  15  14     2.758391104639   111.05201287   175.08990246
 C     42   2   1     4.559821839776    41.78584867   195.85952054
 C     44  42   2     2.652129475853    87.95153797   233.97558675
 C     45  44  42     2.611027836043   120.11137308     0.19721020
 C     42   2   1     4.629866436820   135.97209175   106.17436964
 C     43  41  15     2.559561325344   106.26758155     0.30894352
 C     15  14  13     2.584127074516   171.87382904   332.35056460
 C     42   2   1     2.611386828803    32.59078432   244.71479973
 C      9   2   1     2.655043698059   126.98745415   184.16335437
 N     42   2   1     2.556355970587   113.57249190   133.91095883
 H      1   2   7     2.048042081414   163.69721495   157.73695076
 H      2   1   3     2.040730117440   127.11591041   162.53385952
 H      4   3   1     2.046664135798   121.11816624   179.53627464
 H      5   4   3     2.045763609469   122.82246669   179.44526354
 H      6   5   4     2.064510017495   104.44395052   100.10110513
 H      6   5   4     2.059751208243    84.65561558   209.52448302
 H      6   5   4     2.058264860189   133.88975448   322.36411148
 H      7   2  54     2.040541119952   126.66122480     1.30600390
 H     10   1   2     2.049169911250   118.76338526   164.93338456
 H     12   9   2     1.920524309565   125.29023241   180.00180175
 H     14  13  12     1.917952867083    44.97226959   359.42596618
 H     18  14  13     2.046330847636   128.03556573   234.20482432
 H     19  17  13     2.042592906181   126.41830519   178.11313280
 H     21  20  18     2.047649722989   121.05669627   180.67006309
 H     22  21  20     2.045596898814   122.73097286   180.59748951
 H     23  18  14     2.063779938267   103.92715769   234.93429879
 H     23  18  14     2.057669673245   134.19244188    12.25587044
 H     23  18  14     2.059486796529    84.85857450   125.45241208
 H     24  19  17     2.041046823986   127.28078426   178.44613241
 H     26  18  14     2.047344503340   118.76995697   244.94906660
 H     30  14  13     2.046012340948   127.99711412   279.66882698
 H     31  29  14     2.040450114918   125.22293469   180.92530585
 H     33  32  30     2.046930203877   121.01964473   180.74284758
 H     34  33  32     2.045617847496   122.70821597   180.59516895
 H     35  34  33     2.064814429233   105.73575241    97.19771933
 H     35  34  33     2.058786158072    84.05943581   206.43036958
 H     35  34  33     2.058418400901   133.08365142   318.50306270
 H     36  31  29     2.039845353366   126.61599965   178.98859863
 H     38  30  73     2.047975821711   118.77264435   359.90091293
 H     42   2   1     2.045020725966   119.31790784   350.54248929
 H     43  41  15     2.041436952892   126.36969097   182.06329380
 H     45  44  42     2.047097678177   121.10105945   179.58025624
 H     46  45  44     2.045051284662   122.72144639   179.46906377
 H     47  42   2     2.062723288131   106.65128841   315.16475048
 H     47  42   2     2.057569012371   132.46019523    94.52397119
 H     47  42   2     2.058915377895    83.63838232   206.04504406
 H     48  43  41     2.041664347903   127.23657387   181.62955349
 H     50  42   2     2.046925842384   118.77001737    94.71359229

---------------------
BASIS SET INFORMATION
---------------------
There are 3 groups of distinct atoms

 Group   1 Type C   : 17s4p1d contracted to 3s2p1d pattern {881/31/1}
 Group   2 Type N   : 17s4p1d contracted to 3s2p1d pattern {881/31/1}
 Group   3 Type H   : 4s1p contracted to 2s1p pattern {31/1}

Atom   0C    basis set group =>   1
Atom   1N    basis set group =>   2
Atom   2C    basis set group =>   1
Atom   3N    basis set group =>   2
Atom   4C    basis set group =>   1
Atom   5N    basis set group =>   2
Atom   6C    basis set group =>   1
Atom   7N    basis set group =>   2
Atom   8C    basis set group =>   1
Atom   9N    basis set group =>   2
Atom  10C    basis set group =>   1
Atom  11N    basis set group =>   2
Atom  12C    basis set group =>   1
Atom  13N    basis set group =>   2
Atom  14C    basis set group =>   1
Atom  15N    basis set group =>   2
Atom  16C    basis set group =>   1
Atom  17C    basis set group =>   1
Atom  18C    basis set group =>   1
Atom  19C    basis set group =>   1
Atom  20C    basis set group =>   1
Atom  21C    basis set group =>   1
Atom  22C    basis set group =>   1
Atom  23C    basis set group =>   1
Atom  24C    basis set group =>   1
Atom  25C    basis set group =>   1
Atom  26C    basis set group =>   1
Atom  27C    basis set group =>   1
Atom  28C    basis set group =>   1
Atom  29C    basis set group =>   1
Atom  30C    basis set group =>   1
Atom  31C    basis set group =>   1
Atom  32C    basis set group =>   1
Atom  33C    basis set group =>   1
Atom  34C    basis set group =>   1
Atom  35C    basis set group =>   1
Atom  36C    basis set group =>   1
Atom  37C    basis set group =>   1
Atom  38C    basis set group =>   1
Atom  39C    basis set group =>   1
Atom  40C    basis set group =>   1
Atom  41C    basis set group =>   1
Atom  42C    basis set group =>   1
Atom  43C    basis set group =>   1
Atom  44C    basis set group =>   1
Atom  45C    basis set group =>   1
Atom  46C    basis set group =>   1
Atom  47C    basis set group =>   1
Atom  48C    basis set group =>   1
Atom  49C    basis set group =>   1
Atom  50C    basis set group =>   1
Atom  51C    basis set group =>   1
Atom  52H    basis set group =>   3
Atom  53H    basis set group =>   3
Atom  54H    basis set group =>   3
Atom  55H    basis set group =>   3
Atom  56H    basis set group =>   3
Atom  57H    basis set group =>   3
Atom  58H    basis set group =>   3
Atom  59H    basis set group =>   3
Atom  60H    basis set group =>   3
Atom  61H    basis set group =>   3
Atom  62H    basis set group =>   3
Atom  63H    basis set group =>   3
Atom  64H    basis set group =>   3
Atom  65H    basis set group =>   3
Atom  66H    basis set group =>   3
Atom  67H    basis set group =>   3
Atom  68H    basis set group =>   3
Atom  69H    basis set group =>   3
Atom  70H    basis set group =>   3
Atom  71H    basis set group =>   3
Atom  72H    basis set group =>   3
Atom  73H    basis set group =>   3
Atom  74H    basis set group =>   3
Atom  75H    basis set group =>   3
Atom  76H    basis set group =>   3
Atom  77H    basis set group =>   3
Atom  78H    basis set group =>   3
Atom  79H    basis set group =>   3
Atom  80H    basis set group =>   3
Atom  81H    basis set group =>   3
Atom  82H    basis set group =>   3
Atom  83H    basis set group =>   3
Atom  84H    basis set group =>   3
Atom  85H    basis set group =>   3
Atom  86H    basis set group =>   3
Atom  87H    basis set group =>   3
Atom  88H    basis set group =>   3
Atom  89H    basis set group =>   3


           ************************************************************
           *        Program running with 16 parallel MPI-processes    *
           *              working on a common directory               *
           ************************************************************
------------------------------------------------------------------------------
                           ORCA GTO INTEGRAL CALCULATION
------------------------------------------------------------------------------
------------------------------------------------------------------------------
                   ___                                                        
                  /   \      - P O W E R E D   B Y -                         
                 /     \                                                     
                 |  |  |   _    _      __       _____    __    __             
                 |  |  |  | |  | |    /  \     |  _  \  |  |  /  |          
                  \  \/   | |  | |   /    \    | | | |  |  | /  /          
                 / \  \   | |__| |  /  /\  \   | |_| |  |  |/  /          
                |  |  |   |  __  | /  /__\  \  |    /   |      \           
                |  |  |   | |  | | |   __   |  |    \   |  |\   \          
                \     /   | |  | | |  |  |  |  | |\  \  |  | \   \       
                 \___/    |_|  |_| |__|  |__|  |_| \__\ |__|  \__/        
                                                                              
                      - O R C A' S   B I G   F R I E N D -                    
                                      &                                       
                       - I N T E G R A L  F E E D E R -                       
                                                                              
 v1 FN, 2020, v2 2021                                                         
------------------------------------------------------------------------------


Reading SHARK input file /scratch/allen/tmpyp4_amber_gaff2/conf1/conf1/Conf203.orca.SHARKINP.tmp ... ok
----------------------
SHARK INTEGRAL PACKAGE
----------------------

Number of atoms                             ...     90
Number of basis functions                   ...   1230
Number of shells                            ...    738
Maximum angular momentum                    ...      2
Integral batch strategy                     ... SHARK/LIBINT Hybrid
RI-J (if used) integral strategy            ... SPLIT-RIJ (Revised 2003 algorithm where possible)
Printlevel                                  ...      1
Contraction scheme used                     ... PARTIAL GENERAL contraction
Coulomb Range Separation                    ... NOT USED
Exchange Range Separation                   ... NOT USED
Finite Nucleus Model                        ... NOT USED
Auxiliary Coulomb fitting basis             ... NOT available
Auxiliary J/K fitting basis                 ... NOT available
Auxiliary Correlation fitting basis         ... NOT available
Auxiliary 'external' fitting basis          ... NOT available
Integral threshold                          ...     2.500000e-11
Primitive cut-off                           ...     2.500000e-12
Primitive pair pre-selection threshold      ...     2.500000e-12

Calculating pre-screening integrals         ... done (  0.1 sec) Dimension = 738
Calculating pre-screening integrals (ORCA)  ... done (  0.3 sec) Dimension = 426
Organizing shell pair data                  ... done (  0.7 sec)
Shell pair information
Total number of shell pairs                 ...    272691
Shell pairs after pre-screening             ...     71708
Total number of primitive shell pairs       ...    422091
Primitive shell pairs kept                  ...     92583
          la=0 lb=0:  29435 shell pairs
          la=1 lb=0:  26024 shell pairs
          la=1 lb=1:   4705 shell pairs
          la=2 lb=0:   7891 shell pairs
          la=2 lb=1:   3124 shell pairs
          la=2 lb=2:    529 shell pairs

Calculating one electron integrals          ... done (  0.2 sec)
Calculating Nuclear repulsion               ... done (  0.0 sec) ENN=   6233.381537499985 Eh

SHARK setup successfully completed in   2.4 seconds

Maximum memory used throughout the entire GTOINT-calculation: 99.1 MB


           ************************************************************
           *        Program running with 16 parallel MPI-processes    *
           *              working on a common directory               *
           ************************************************************
-------------------------------------------------------------------------------
                                 ORCA SCF
-------------------------------------------------------------------------------

------------
SCF SETTINGS
------------
Hamiltonian:
 Ab initio Hamiltonian  Method          .... Hartree-Fock(GTOs)


General Settings:
 Integral files         IntName         .... /scratch/allen/tmpyp4_amber_gaff2/conf1/conf1/Conf203.orca
 Hartree-Fock type      HFTyp           .... RHF
 Total Charge           Charge          ....    0
 Multiplicity           Mult            ....    1
 Number of Electrons    NEL             ....  358
 Basis Dimension        Dim             ....  918
 Nuclear Repulsion      ENuc            ....   6233.3815375000 Eh

Convergence Acceleration:
 DIIS                   CNVDIIS         .... on
   Start iteration      DIISMaxIt       ....    12
   Startup error        DIISStart       ....  0.200000
   # of expansion vecs  DIISMaxEq       ....     5
   Bias factor          DIISBfac        ....   1.050
   Max. coefficient     DIISMaxC        ....  10.000
 Trust-Rad. Augm. Hess. CNVTRAH         .... auto
   Auto Start mean grad. ratio tolernc. ....  1.125000
   Auto Start start iteration           ....    20
   Auto Start num. interpolation iter.  ....    10
   Max. Number of Micro iterations      ....    16
   Max. Number of Macro iterations      .... Maxiter - #DIIS iter
   Number of Davidson start vectors     ....     2
   Converg. threshold I  (grad. norm)   ....   1.000e-05
   Converg. threshold II (energy diff.) ....   1.000e-08
   Grad. Scal. Fac. for Micro threshold ....   0.100
   Minimum threshold for Micro iter.    ....   0.010
   NR start threshold (gradient norm)   ....   0.001
   Initial trust radius                 ....   0.400
   Minimum AH scaling param. (alpha)    ....   1.000
   Maximum AH scaling param. (alpha)    .... 1000.000
   Orbital update algorithm             .... Taylor
   White noise on init. David. guess    .... on
   Maximum white noise                  ....   0.010
   Quad. conv. algorithm                .... NR
 SOSCF                  CNVSOSCF        .... on
   Start iteration      SOSCFMaxIt      ....   150
   Startup grad/error   SOSCFStart      ....  0.003300
 Level Shifting         CNVShift        .... on
   Level shift para.    LevelShift      ....    0.2500
   Turn off err/grad.   ShiftErr        ....    0.0010
 Zerner damping         CNVZerner       .... off
 Static damping         CNVDamp         .... on
   Fraction old density DampFac         ....    0.7000
   Max. Damping (<1)    DampMax         ....    0.9800
   Min. Damping (>=0)   DampMin         ....    0.0000
   Turn off err/grad.   DampErr         ....    0.1000
 Fernandez-Rico         CNVRico         .... off

SCF Procedure:
 Maximum # iterations   MaxIter         ....   125
 SCF integral mode      SCFMode         .... Direct
   Integral package                     .... SHARK and LIBINT hybrid scheme
 Reset frequency        DirectResetFreq ....    20
 Integral Threshold     Thresh          ....  2.500e-11 Eh
 Primitive CutOff       TCut            ....  2.500e-12 Eh

Convergence Tolerance:
 Convergence Check Mode ConvCheckMode   .... Total+1el-Energy
 Convergence forced     ConvForced      .... 1
 Energy Change          TolE            ....  1.000e-08 Eh
 1-El. energy change                    ....  1.000e-05 Eh
 Orbital Gradient       TolG            ....  1.000e-05
 Orbital Rotation angle TolX            ....  1.000e-05
 DIIS Error             TolErr          ....  5.000e-07


Diagonalization of the overlap matrix:
Smallest eigenvalue                        ... 2.081e-04
Time for diagonalization                   ...    0.477 sec
Threshold for overlap eigenvalues          ... 1.000e-08
Number of eigenvalues below threshold      ... 0
Time for construction of square roots      ...    0.268 sec
Total time needed                          ...    0.752 sec

Time for model grid setup =    1.292 sec

------------------------------
INITIAL GUESS: MODEL POTENTIAL
------------------------------
Loading Hartree-Fock densities                     ... done
Calculating cut-offs                               ... done
Initializing the effective Hamiltonian             ... done
Setting up the integral package (SHARK)            ... done
Starting the Coulomb interaction                   ... done (   1.5 sec)
Reading the grid                                   ... done
Mapping shells                                     ... done
Starting the XC term evaluation                    ... done (   0.2 sec)
Transforming the Hamiltonian                       ... done (   0.3 sec)
Diagonalizing the Hamiltonian                      ... done (   0.4 sec)
Back transforming the eigenvectors                 ... done (   0.1 sec)
Now organizing SCF variables                       ... done
                      ------------------
                      INITIAL GUESS DONE (   3.8 sec)
                      ------------------
--------------
SCF ITERATIONS
--------------
ITER       Energy         Delta-E        Max-DP      RMS-DP      [F,P]     Damp
               ***  Starting incremental Fock matrix formation  ***
  0  -2121.6518507396   0.000000000000 0.07500949  0.00124046  0.2316167 0.7000
  1  -2122.3000149050  -0.648164165421 0.05688560  0.00101103  0.1436177 0.7000
                               ***Turning on DIIS***
  2  -2122.7036681976  -0.403653292626 0.13286559  0.00229225  0.0802698 0.0000
  3  -2117.9886226627   4.715045534926 0.05624203  0.00069014  0.0436303 0.0000
  4  -2123.3884965189  -5.399873856173 0.01648985  0.00022879  0.0088960 0.0000
  5  -2123.5340444145  -0.145547895687 0.00778529  0.00013331  0.0048979 0.0000
  6  -2123.5183799445   0.015664470053 0.00458158  0.00008548  0.0021515 0.0000
  7  -2123.6128346462  -0.094454701661 0.00308558  0.00006739  0.0015999 0.0000
  8  -2123.6215350304  -0.008700384247 0.00327734  0.00006418  0.0014965 0.0000
  9  -2123.5932060596   0.028328970804 0.00262274  0.00004534  0.0012019 0.0000
 10  -2123.6016344398  -0.008428380212 0.00526634  0.00009474  0.0009365 0.0000
                      *** Initiating the SOSCF procedure ***
                           *** Shutting down DIIS ***
                      *** Re-Reading the Fockian *** 
                      *** Removing any level shift *** 
ITER      Energy       Delta-E        Grad      Rot      Max-DP    RMS-DP
 11  -2123.49438964   0.1072447973  0.000181  0.000181  0.000240  0.000005
               *** Restarting incremental Fock matrix formation ***
 12  -2123.56043212  -0.0660424751  0.000892  0.006233  0.001423  0.000035
 13  -2123.56054131  -0.0001091898  0.001108  0.030866  0.006543  0.000136
 14  -2123.56072613  -0.0001848254  0.000368  0.001479  0.000613  0.000012
 15  -2123.56074156  -0.0000154235  0.000176  0.002353  0.000599  0.000015
 16  -2123.56074954  -0.0000079822  0.000148  0.002472  0.000462  0.000009
 17  -2123.56075232  -0.0000027776  0.000131  0.001810  0.000311  0.000007
 18  -2123.56075371  -0.0000013930  0.000064  0.000905  0.000252  0.000004
 19  -2123.56075444  -0.0000007266  0.000045  0.001092  0.000208  0.000004
 20  -2123.56075479  -0.0000003548  0.000025  0.000716  0.000112  0.000003
 21  -2123.56075497  -0.0000001781  0.000024  0.000906  0.000143  0.000003
 22  -2123.56075513  -0.0000001631  0.000021  0.000836  0.000136  0.000003
 23  -2123.56075523  -0.0000001009  0.000014  0.000466  0.000077  0.000002
 24  -2123.56075528  -0.0000000493  0.000008  0.000355  0.000055  0.000001
 25  -2123.56075531  -0.0000000326  0.000008  0.000161  0.000038  0.000001
 26  -2123.56075533  -0.0000000151  0.000006  0.000112  0.000032  0.000001
 27  -2123.56075533  -0.0000000044  0.000003  0.000089  0.000022  0.000000
                  ***Gradient check signals convergence***
              ***Rediagonalizing the Fockian in SOSCF/NRSCF***

               *****************************************************
               *                     SUCCESS                       *
               *           SCF CONVERGED AFTER  28 CYCLES          *
               *****************************************************


----------------
TOTAL SCF ENERGY
----------------

Total Energy       :        -2123.56075533 Eh          -57785.02589 eV

Components:
Nuclear Repulsion  :         6233.38153750 Eh          169618.93490 eV
Electronic Energy  :        -8356.94229283 Eh         -227403.96078 eV
One Electron Energy:       -15307.40764822 Eh         -416535.73838 eV
Two Electron Energy:         6950.46535539 Eh          189131.77759 eV

Virial components:
Potential Energy   :        -4245.91385902 Eh         -115537.18990 eV
Kinetic Energy     :         2122.35310369 Eh           57752.16401 eV
Virial Ratio       :            2.00056902


---------------
SCF CONVERGENCE
---------------

  Last Energy change         ...    1.2060e-09  Tolerance :   1.0000e-08
  Last MAX-Density change    ...    1.1024e-05  Tolerance :   1.0000e-07
  Last RMS-Density change    ...    2.2176e-07  Tolerance :   5.0000e-09
  Last Orbital Gradient      ...    2.0885e-06  Tolerance :   1.0000e-05
  Last Orbital Rotation      ...    5.4525e-05  Tolerance :   1.0000e-05

             **** THE GBW FILE WAS UPDATED (/scratch/allen/tmpyp4_amber_gaff2/conf1/conf1/Conf203.orca.gbw) ****
             **** DENSITY /scratch/allen/tmpyp4_amber_gaff2/conf1/conf1/Conf203.orca.scfp WAS UPDATED ****
             **** ENERGY FILE WAS UPDATED (/scratch/allen/tmpyp4_amber_gaff2/conf1/conf1/Conf203.orca.en.tmp) ****
             **** THE GBW FILE WAS UPDATED (/scratch/allen/tmpyp4_amber_gaff2/conf1/conf1/Conf203.orca.gbw) ****
             **** DENSITY /scratch/allen/tmpyp4_amber_gaff2/conf1/conf1/Conf203.orca.scfp WAS UPDATED ****
----------------
ORBITAL ENERGIES
----------------

  NO   OCC          E(Eh)            E(eV) 
   0   2.0000     -15.677268      -426.6001 
   1   2.0000     -15.634007      -425.4230 
   2   2.0000     -15.631538      -425.3558 
   3   2.0000     -15.589418      -424.2096 
   4   2.0000     -15.524938      -422.4550 
   5   2.0000     -15.515923      -422.2097 
   6   2.0000     -15.453367      -420.5075 
   7   2.0000     -15.440321      -420.1525 
   8   2.0000     -11.327376      -308.2336 
   9   2.0000     -11.326374      -308.2063 
  10   2.0000     -11.326191      -308.2013 
  11   2.0000     -11.299344      -307.4708 
  12   2.0000     -11.298173      -307.4389 
  13   2.0000     -11.292917      -307.2959 
  14   2.0000     -11.290790      -307.2380 
  15   2.0000     -11.286688      -307.1264 
  16   2.0000     -11.286474      -307.1206 
  17   2.0000     -11.279685      -306.9358 
  18   2.0000     -11.271459      -306.7120 
  19   2.0000     -11.261619      -306.4442 
  20   2.0000     -11.260638      -306.4175 
  21   2.0000     -11.253242      -306.2163 
  22   2.0000     -11.252423      -306.1940 
  23   2.0000     -11.237723      -305.7940 
  24   2.0000     -11.236321      -305.7558 
  25   2.0000     -11.231192      -305.6163 
  26   2.0000     -11.230393      -305.5945 
  27   2.0000     -11.229541      -305.5713 
  28   2.0000     -11.229416      -305.5680 
  29   2.0000     -11.210513      -305.0536 
  30   2.0000     -11.209193      -305.0176 
  31   2.0000     -11.196760      -304.6793 
  32   2.0000     -11.190648      -304.5130 
  33   2.0000     -11.190478      -304.5084 
  34   2.0000     -11.188696      -304.4599 
  35   2.0000     -11.187495      -304.4272 
  36   2.0000     -11.186216      -304.3924 
  37   2.0000     -11.185478      -304.3723 
  38   2.0000     -11.181603      -304.2669 
  39   2.0000     -11.173844      -304.0558 
  40   2.0000     -11.172213      -304.0114 
  41   2.0000     -11.170573      -303.9667 
  42   2.0000     -11.167891      -303.8938 
  43   2.0000     -11.160869      -303.7027 
  44   2.0000     -11.160416      -303.6904 
  45   2.0000     -11.157489      -303.6107 
  46   2.0000     -11.155844      -303.5659 
  47   2.0000     -11.155067      -303.5448 
  48   2.0000     -11.147393      -303.3360 
  49   2.0000     -11.136970      -303.0524 
  50   2.0000     -11.130443      -302.8748 
  51   2.0000     -11.118844      -302.5591 
  52   2.0000      -1.358237       -36.9595 
  53   2.0000      -1.321247       -35.9530 
  54   2.0000      -1.319365       -35.9018 
  55   2.0000      -1.282673       -34.9033 
  56   2.0000      -1.225805       -33.3558 
  57   2.0000      -1.210426       -32.9374 
  58   2.0000      -1.172748       -31.9121 
  59   2.0000      -1.151074       -31.3223 
  60   2.0000      -1.141875       -31.0720 
  61   2.0000      -1.110281       -30.2123 
  62   2.0000      -1.108728       -30.1700 
  63   2.0000      -1.080090       -29.3907 
  64   2.0000      -1.078930       -29.3592 
  65   2.0000      -1.045424       -28.4474 
  66   2.0000      -1.044052       -28.4101 
  67   2.0000      -1.039935       -28.2981 
  68   2.0000      -1.014743       -27.6126 
  69   2.0000      -1.013151       -27.5692 
  70   2.0000      -1.009329       -27.4652 
  71   2.0000      -0.993168       -27.0255 
  72   2.0000      -0.986228       -26.8366 
  73   2.0000      -0.980923       -26.6923 
  74   2.0000      -0.972511       -26.4634 
  75   2.0000      -0.961547       -26.1650 
  76   2.0000      -0.954020       -25.9602 
  77   2.0000      -0.945976       -25.7413 
  78   2.0000      -0.935630       -25.4598 
  79   2.0000      -0.918135       -24.9837 
  80   2.0000      -0.908710       -24.7273 
  81   2.0000      -0.895272       -24.3616 
  82   2.0000      -0.875494       -23.8234 
  83   2.0000      -0.872065       -23.7301 
  84   2.0000      -0.869887       -23.6708 
  85   2.0000      -0.858081       -23.3496 
  86   2.0000      -0.841726       -22.9045 
  87   2.0000      -0.835700       -22.7405 
  88   2.0000      -0.825557       -22.4645 
  89   2.0000      -0.797225       -21.6936 
  90   2.0000      -0.790272       -21.5044 
  91   2.0000      -0.753472       -20.5030 
  92   2.0000      -0.749146       -20.3853 
  93   2.0000      -0.733237       -19.9524 
  94   2.0000      -0.725536       -19.7428 
  95   2.0000      -0.722504       -19.6603 
  96   2.0000      -0.717274       -19.5180 
  97   2.0000      -0.714253       -19.4358 
  98   2.0000      -0.709755       -19.3134 
  99   2.0000      -0.697549       -18.9813 
 100   2.0000      -0.696431       -18.9509 
 101   2.0000      -0.687418       -18.7056 
 102   2.0000      -0.683553       -18.6004 
 103   2.0000      -0.682657       -18.5760 
 104   2.0000      -0.678483       -18.4625 
 105   2.0000      -0.673949       -18.3391 
 106   2.0000      -0.671164       -18.2633 
 107   2.0000      -0.660382       -17.9699 
 108   2.0000      -0.657331       -17.8869 
 109   2.0000      -0.653036       -17.7700 
 110   2.0000      -0.651469       -17.7274 
 111   2.0000      -0.644468       -17.5369 
 112   2.0000      -0.644187       -17.5292 
 113   2.0000      -0.638221       -17.3669 
 114   2.0000      -0.637424       -17.3452 
 115   2.0000      -0.628004       -17.0889 
 116   2.0000      -0.622810       -16.9475 
 117   2.0000      -0.621034       -16.8992 
 118   2.0000      -0.612896       -16.6777 
 119   2.0000      -0.612323       -16.6622 
 120   2.0000      -0.611280       -16.6338 
 121   2.0000      -0.609713       -16.5911 
 122   2.0000      -0.600711       -16.3462 
 123   2.0000      -0.587004       -15.9732 
 124   2.0000      -0.581668       -15.8280 
 125   2.0000      -0.580579       -15.7984 
 126   2.0000      -0.579782       -15.7767 
 127   2.0000      -0.571906       -15.5624 
 128   2.0000      -0.568756       -15.4766 
 129   2.0000      -0.559530       -15.2256 
 130   2.0000      -0.552414       -15.0320 
 131   2.0000      -0.547524       -14.8989 
 132   2.0000      -0.542086       -14.7509 
 133   2.0000      -0.541959       -14.7474 
 134   2.0000      -0.538461       -14.6523 
 135   2.0000      -0.535857       -14.5814 
 136   2.0000      -0.530036       -14.4230 
 137   2.0000      -0.521010       -14.1774 
 138   2.0000      -0.516898       -14.0655 
 139   2.0000      -0.514509       -14.0005 
 140   2.0000      -0.512115       -13.9353 
 141   2.0000      -0.510752       -13.8983 
 142   2.0000      -0.509137       -13.8543 
 143   2.0000      -0.504048       -13.7158 
 144   2.0000      -0.502361       -13.6699 
 145   2.0000      -0.496557       -13.5120 
 146   2.0000      -0.490824       -13.3560 
 147   2.0000      -0.482586       -13.1318 
 148   2.0000      -0.478613       -13.0237 
 149   2.0000      -0.467023       -12.7084 
 150   2.0000      -0.466384       -12.6910 
 151   2.0000      -0.457034       -12.4365 
 152   2.0000      -0.451137       -12.2761 
 153   2.0000      -0.444863       -12.1053 
 154   2.0000      -0.440054       -11.9745 
 155   2.0000      -0.427963       -11.6455 
 156   2.0000      -0.418608       -11.3909 
 157   2.0000      -0.407699       -11.0940 
 158   2.0000      -0.398394       -10.8409 
 159   2.0000      -0.388232       -10.5643 
 160   2.0000      -0.386013       -10.5039 
 161   2.0000      -0.378416       -10.2972 
 162   2.0000      -0.370176       -10.0730 
 163   2.0000      -0.356665        -9.7053 
 164   2.0000      -0.355672        -9.6783 
 165   2.0000      -0.341369        -9.2891 
 166   2.0000      -0.337637        -9.1876 
 167   2.0000      -0.325179        -8.8486 
 168   2.0000      -0.322591        -8.7781 
 169   2.0000      -0.304849        -8.2954 
 170   2.0000      -0.299541        -8.1509 
 171   2.0000      -0.285567        -7.7707 
 172   2.0000      -0.280222        -7.6252 
 173   2.0000      -0.263390        -7.1672 
 174   2.0000      -0.241818        -6.5802 
 175   2.0000      -0.189952        -5.1689 
 176   2.0000      -0.180581        -4.9139 
 177   2.0000      -0.077776        -2.1164 
 178   2.0000      -0.059070        -1.6074 
 179   0.0000       0.028356         0.7716 
 180   0.0000       0.065712         1.7881 
 181   0.0000       0.090711         2.4684 
 182   0.0000       0.107864         2.9351 
 183   0.0000       0.112749         3.0681 
 184   0.0000       0.136992         3.7278 
 185   0.0000       0.139562         3.7977 
 186   0.0000       0.142250         3.8708 
 187   0.0000       0.163754         4.4560 
 188   0.0000       0.165081         4.4921 
 189   0.0000       0.165819         4.5122 
 190   0.0000       0.171367         4.6631 
 191   0.0000       0.181695         4.9442 
 192   0.0000       0.185098         5.0368 
 193   0.0000       0.188046         5.1170 
 194   0.0000       0.204863         5.5746 
 195   0.0000       0.205725         5.5981 
 196   0.0000       0.208231         5.6663 
 197   0.0000       0.208764         5.6808 
 198   0.0000       0.217760         5.9255 
 199   0.0000       0.227766         6.1978 
 200   0.0000       0.232220         6.3190 
 201   0.0000       0.235007         6.3949 
 202   0.0000       0.239025         6.5042 
 203   0.0000       0.239903         6.5281 
 204   0.0000       0.247021         6.7218 
 205   0.0000       0.255929         6.9642 
 206   0.0000       0.256594         6.9823 
 207   0.0000       0.257276         7.0008 
 208   0.0000       0.259736         7.0678 
 209   0.0000       0.261351         7.1117 
 210   0.0000       0.263749         7.1770 
 211   0.0000       0.267499         7.2790 
 212   0.0000       0.269096         7.3225 
 213   0.0000       0.270478         7.3601 
 214   0.0000       0.273176         7.4335 
 215   0.0000       0.276481         7.5234 
 216   0.0000       0.278772         7.5858 
 217   0.0000       0.280864         7.6427 
 218   0.0000       0.285522         7.7695 
 219   0.0000       0.287808         7.8316 
 220   0.0000       0.288925         7.8621 
 221   0.0000       0.292055         7.9472 
 222   0.0000       0.294391         8.0108 
 223   0.0000       0.296642         8.0720 
 224   0.0000       0.297581         8.0976 
 225   0.0000       0.300468         8.1762 
 226   0.0000       0.304952         8.2982 
 227   0.0000       0.308547         8.3960 
 228   0.0000       0.310824         8.4579 
 229   0.0000       0.324661         8.8345 
 230   0.0000       0.327220         8.9041 
 231   0.0000       0.332572         9.0497 
 232   0.0000       0.342101         9.3090 
 233   0.0000       0.351245         9.5579 
 234   0.0000       0.354763         9.6536 
 235   0.0000       0.358886         9.7658 
 236   0.0000       0.376252        10.2384 
 237   0.0000       0.388992        10.5850 
 238   0.0000       0.394623        10.7382 
 239   0.0000       0.397091        10.8054 
 240   0.0000       0.402453        10.9513 
 241   0.0000       0.409580        11.1452 
 242   0.0000       0.412761        11.2318 
 243   0.0000       0.419404        11.4126 
 244   0.0000       0.429238        11.6802 
 245   0.0000       0.434221        11.8158 
 246   0.0000       0.436470        11.8770 
 247   0.0000       0.441106        12.0031 
 248   0.0000       0.441759        12.0209 
 249   0.0000       0.448505        12.2044 
 250   0.0000       0.458288        12.4707 
 251   0.0000       0.464810        12.6481 
 252   0.0000       0.467204        12.7133 
 253   0.0000       0.471281        12.8242 
 254   0.0000       0.472619        12.8606 
 255   0.0000       0.474184        12.9032 
 256   0.0000       0.476761        12.9733 
 257   0.0000       0.480277        13.0690 
 258   0.0000       0.487877        13.2758 
 259   0.0000       0.496299        13.5050 
 260   0.0000       0.503410        13.6985 
 261   0.0000       0.505400        13.7526 
 262   0.0000       0.506580        13.7847 
 263   0.0000       0.513144        13.9634 
 264   0.0000       0.514736        14.0067 
 265   0.0000       0.518471        14.1083 
 266   0.0000       0.524488        14.2720 
 267   0.0000       0.530252        14.4289 
 268   0.0000       0.532856        14.4998 
 269   0.0000       0.536077        14.5874 
 270   0.0000       0.541264        14.7285 
 271   0.0000       0.545000        14.8302 
 272   0.0000       0.557188        15.1619 
 273   0.0000       0.559471        15.2240 
 274   0.0000       0.561838        15.2884 
 275   0.0000       0.565788        15.3959 
 276   0.0000       0.570035        15.5115 
 277   0.0000       0.573614        15.6088 
 278   0.0000       0.578148        15.7322 
 279   0.0000       0.586350        15.9554 
 280   0.0000       0.590711        16.0741 
 281   0.0000       0.591979        16.1086 
 282   0.0000       0.594444        16.1756 
 283   0.0000       0.595564        16.2061 
 284   0.0000       0.598229        16.2786 
 285   0.0000       0.602357        16.3910 
 286   0.0000       0.607692        16.5361 
 287   0.0000       0.611113        16.6292 
 288   0.0000       0.614479        16.7208 
 289   0.0000       0.624214        16.9857 
 290   0.0000       0.626365        17.0443 
 291   0.0000       0.629297        17.1240 
 292   0.0000       0.634961        17.2782 
 293   0.0000       0.637162        17.3381 
 294   0.0000       0.645407        17.5624 
 295   0.0000       0.647857        17.6291 
 296   0.0000       0.653112        17.7721 
 297   0.0000       0.655451        17.8357 
 298   0.0000       0.661821        18.0091 
 299   0.0000       0.666551        18.1378 
 300   0.0000       0.671883        18.2829 
 301   0.0000       0.675245        18.3743 
 302   0.0000       0.676964        18.4211 
 303   0.0000       0.678404        18.4603 
 304   0.0000       0.679714        18.4960 
 305   0.0000       0.684441        18.6246 
 306   0.0000       0.689390        18.7593 
 307   0.0000       0.692549        18.8452 
 308   0.0000       0.695659        18.9298 
 309   0.0000       0.698795        19.0152 
 310   0.0000       0.702282        19.1101 
 311   0.0000       0.703926        19.1548 
 312   0.0000       0.706189        19.2164 
 313   0.0000       0.711428        19.3589 
 314   0.0000       0.712065        19.3763 
 315   0.0000       0.715676        19.4745 
 316   0.0000       0.717566        19.5260 
 317   0.0000       0.717834        19.5332 
 318   0.0000       0.722404        19.6576 
 319   0.0000       0.724124        19.7044 
 320   0.0000       0.727197        19.7880 
 321   0.0000       0.729971        19.8635 
 322   0.0000       0.730936        19.8898 
 323   0.0000       0.732948        19.9445 
 324   0.0000       0.736281        20.0352 
 325   0.0000       0.740640        20.1538 
 326   0.0000       0.742567        20.2063 
 327   0.0000       0.747191        20.3321 
 328   0.0000       0.752478        20.4760 
 329   0.0000       0.753847        20.5132 
 330   0.0000       0.757871        20.6227 
 331   0.0000       0.760295        20.6887 
 332   0.0000       0.761787        20.7293 
 333   0.0000       0.766078        20.8460 
 334   0.0000       0.767977        20.8977 
 335   0.0000       0.771750        21.0004 
 336   0.0000       0.777071        21.1452 
 337   0.0000       0.781704        21.2712 
 338   0.0000       0.786599        21.4044 
 339   0.0000       0.788786        21.4640 
 340   0.0000       0.791806        21.5461 
 341   0.0000       0.794760        21.6265 
 342   0.0000       0.797854        21.7107 
 343   0.0000       0.802391        21.8342 
 344   0.0000       0.805896        21.9295 
 345   0.0000       0.808408        21.9979 
 346   0.0000       0.809192        22.0192 
 347   0.0000       0.812004        22.0958 
 348   0.0000       0.816214        22.2103 
 349   0.0000       0.817687        22.2504 
 350   0.0000       0.818349        22.2684 
 351   0.0000       0.820662        22.3314 
 352   0.0000       0.824251        22.4290 
 353   0.0000       0.826916        22.5015 
 354   0.0000       0.829362        22.5681 
 355   0.0000       0.831666        22.6308 
 356   0.0000       0.833616        22.6839 
 357   0.0000       0.836458        22.7612 
 358   0.0000       0.837936        22.8014 
 359   0.0000       0.838182        22.8081 
 360   0.0000       0.840084        22.8598 
 361   0.0000       0.842049        22.9133 
 362   0.0000       0.843948        22.9650 
 363   0.0000       0.847802        23.0699 
 364   0.0000       0.851242        23.1635 
 365   0.0000       0.856603        23.3094 
 366   0.0000       0.859567        23.3900 
 367   0.0000       0.861489        23.4423 
 368   0.0000       0.864876        23.5345 
 369   0.0000       0.866638        23.5824 
 370   0.0000       0.869153        23.6509 
 371   0.0000       0.872601        23.7447 
 372   0.0000       0.873969        23.7819 
 373   0.0000       0.877308        23.8728 
 374   0.0000       0.879599        23.9351 
 375   0.0000       0.883120        24.0309 
 376   0.0000       0.887267        24.1438 
 377   0.0000       0.888309        24.1721 
 378   0.0000       0.891121        24.2486 
 379   0.0000       0.891673        24.2637 
 380   0.0000       0.896665        24.3995 
 381   0.0000       0.898262        24.4430 
 382   0.0000       0.900681        24.5088 
 383   0.0000       0.902461        24.5572 
 384   0.0000       0.905551        24.6413 
 385   0.0000       0.905745        24.6466 
 386   0.0000       0.907225        24.6868 
 387   0.0000       0.909736        24.7552 
 388   0.0000       0.915479        24.9115 
 389   0.0000       0.916540        24.9403 
 390   0.0000       0.920695        25.0534 
 391   0.0000       0.923930        25.1414 
 392   0.0000       0.926575        25.2134 
 393   0.0000       0.928014        25.2526 
 394   0.0000       0.929148        25.2834 
 395   0.0000       0.931617        25.3506 
 396   0.0000       0.932990        25.3879 
 397   0.0000       0.938536        25.5389 
 398   0.0000       0.942996        25.6602 
 399   0.0000       0.945164        25.7192 
 400   0.0000       0.946633        25.7592 
 401   0.0000       0.952583        25.9211 
 402   0.0000       0.953936        25.9579 
 403   0.0000       0.955630        26.0040 
 404   0.0000       0.959983        26.1225 
 405   0.0000       0.963148        26.2086 
 406   0.0000       0.969217        26.3737 
 407   0.0000       0.973384        26.4871 
 408   0.0000       0.980413        26.6784 
 409   0.0000       0.981944        26.7201 
 410   0.0000       0.986244        26.8371 
 411   0.0000       0.986822        26.8528 
 412   0.0000       0.996272        27.1099 
 413   0.0000       0.999864        27.2077 
 414   0.0000       1.002745        27.2861 
 415   0.0000       1.006214        27.3805 
 416   0.0000       1.012038        27.5390 
 417   0.0000       1.015185        27.6246 
 418   0.0000       1.023426        27.8488 
 419   0.0000       1.030383        28.0381 
 420   0.0000       1.033185        28.1144 
 421   0.0000       1.035191        28.1690 
 422   0.0000       1.040844        28.3228 
 423   0.0000       1.050532        28.5864 
 424   0.0000       1.058122        28.7930 
 425   0.0000       1.058528        28.8040 
 426   0.0000       1.064869        28.9766 
 427   0.0000       1.069048        29.0903 
 428   0.0000       1.077133        29.3103 
 429   0.0000       1.084927        29.5224 
 430   0.0000       1.085732        29.5443 
 431   0.0000       1.089332        29.6422 
 432   0.0000       1.096042        29.8248 
 433   0.0000       1.096724        29.8434 
 434   0.0000       1.100680        29.9510 
 435   0.0000       1.105366        30.0785 
 436   0.0000       1.109350        30.1870 
 437   0.0000       1.111986        30.2587 
 438   0.0000       1.116874        30.3917 
 439   0.0000       1.121114        30.5071 
 440   0.0000       1.121650        30.5216 
 441   0.0000       1.124166        30.5901 
 442   0.0000       1.127544        30.6820 
 443   0.0000       1.128957        30.7205 
 444   0.0000       1.132836        30.8260 
 445   0.0000       1.136834        30.9348 
 446   0.0000       1.140588        31.0370 
 447   0.0000       1.147488        31.2247 
 448   0.0000       1.149492        31.2793 
 449   0.0000       1.150152        31.2972 
 450   0.0000       1.154996        31.4290 
 451   0.0000       1.159679        31.5565 
 452   0.0000       1.165390        31.7119 
 453   0.0000       1.167674        31.7740 
 454   0.0000       1.169525        31.8244 
 455   0.0000       1.172729        31.9116 
 456   0.0000       1.175819        31.9957 
 457   0.0000       1.183227        32.1972 
 458   0.0000       1.186995        32.2998 
 459   0.0000       1.195630        32.5347 
 460   0.0000       1.196350        32.5543 
 461   0.0000       1.198633        32.6165 
 462   0.0000       1.202573        32.7237 
 463   0.0000       1.204099        32.7652 
 464   0.0000       1.208555        32.8865 
 465   0.0000       1.212907        33.0049 
 466   0.0000       1.216133        33.0927 
 467   0.0000       1.216751        33.1095 
 468   0.0000       1.223823        33.3019 
 469   0.0000       1.228867        33.4392 
 470   0.0000       1.230117        33.4732 
 471   0.0000       1.234840        33.6017 
 472   0.0000       1.236548        33.6482 
 473   0.0000       1.240493        33.7555 
 474   0.0000       1.243371        33.8338 
 475   0.0000       1.244452        33.8632 
 476   0.0000       1.249882        34.0110 
 477   0.0000       1.250242        34.0208 
 478   0.0000       1.252393        34.0793 
 479   0.0000       1.256048        34.1788 
 480   0.0000       1.260441        34.2983 
 481   0.0000       1.263400        34.3789 
 482   0.0000       1.264671        34.4135 
 483   0.0000       1.272478        34.6259 
 484   0.0000       1.276743        34.7419 
 485   0.0000       1.280647        34.8482 
 486   0.0000       1.282717        34.9045 
 487   0.0000       1.287401        35.0320 
 488   0.0000       1.288966        35.0746 
 489   0.0000       1.293180        35.1892 
 490   0.0000       1.296545        35.2808 
 491   0.0000       1.299334        35.3567 
 492   0.0000       1.302187        35.4343 
 493   0.0000       1.310119        35.6501 
 494   0.0000       1.311614        35.6908 
 495   0.0000       1.317900        35.8619 
 496   0.0000       1.319885        35.9159 
 497   0.0000       1.320999        35.9462 
 498   0.0000       1.326454        36.0946 
 499   0.0000       1.330437        36.2030 
 500   0.0000       1.332472        36.2584 
 501   0.0000       1.340722        36.4829 
 502   0.0000       1.342836        36.5404 
 503   0.0000       1.345144        36.6032 
 504   0.0000       1.346923        36.6516 
 505   0.0000       1.350682        36.7539 
 506   0.0000       1.351633        36.7798 
 507   0.0000       1.355288        36.8793 
 508   0.0000       1.358888        36.9772 
 509   0.0000       1.360286        37.0153 
[...]
      pz      :     0.022112  p :     0.079770
      px      :     0.043596
      py      :     0.014062
 77 H s       :     0.884760  s :     0.884760
      pz      :     0.047959  p :     0.079271
      px      :     0.015023
      py      :     0.016288
 78 H s       :     0.885107  s :     0.885107
      pz      :     0.025874  p :     0.079239
      px      :     0.020460
      py      :     0.032905
 79 H s       :     0.910651  s :     0.910651
      pz      :     0.021810  p :     0.086325
      px      :     0.021665
      py      :     0.042850
 80 H s       :     0.864745  s :     0.864745
      pz      :     0.039364  p :     0.084791
      px      :     0.030264
      py      :     0.015163
 81 H s       :     0.886857  s :     0.886857
      pz      :     0.037817  p :     0.084113
      px      :     0.016181
      py      :     0.030115
 82 H s       :     0.915959  s :     0.915959
      pz      :     0.021956  p :     0.086733
      px      :     0.031640
      py      :     0.033137
 83 H s       :     0.873333  s :     0.873333
      pz      :     0.039280  p :     0.084090
      px      :     0.015273
      py      :     0.029538
 84 H s       :     0.886668  s :     0.886668
      pz      :     0.035774  p :     0.083451
      px      :     0.031698
      py      :     0.015979
 85 H s       :     0.892835  s :     0.892835
      pz      :     0.022492  p :     0.079787
      px      :     0.014069
      py      :     0.043226
 86 H s       :     0.890964  s :     0.890964
      pz      :     0.024731  p :     0.078831
      px      :     0.032982
      py      :     0.021119
 87 H s       :     0.889883  s :     0.889883
      pz      :     0.048011  p :     0.078738
      px      :     0.015588
      py      :     0.015139
 88 H s       :     0.910688  s :     0.910688
      pz      :     0.021636  p :     0.087012
      px      :     0.042924
      py      :     0.022453
 89 H s       :     0.871377  s :     0.871377
      pz      :     0.037943  p :     0.083837
      px      :     0.030482
      py      :     0.015412


                      *****************************
                      * MAYER POPULATION ANALYSIS *
                      *****************************

  NA   - Mulliken gross atomic population
  ZA   - Total nuclear charge
  QA   - Mulliken gross atomic charge
  VA   - Mayer's total valence
  BVA  - Mayer's bonded valence
  FA   - Mayer's free valence

  ATOM       NA         ZA         QA         VA         BVA        FA
  0 C      5.7901     6.0000     0.2099     3.8435     3.8435     0.0000
  1 N      7.4559     7.0000    -0.4559     3.3364     3.3364     0.0000
  2 C      6.0701     6.0000    -0.0701     3.9218     3.9218     0.0000
  3 N      7.3391     7.0000    -0.3391     3.4565     3.4565    -0.0000
  4 C      6.0508     6.0000    -0.0508     4.0591     4.0591    -0.0000
  5 N      7.5662     7.0000    -0.5662     3.0948     3.0948    -0.0000
  6 C      6.1182     6.0000    -0.1182     3.9754     3.9754    -0.0000
  7 N      7.3406     7.0000    -0.3406     3.4333     3.4333    -0.0000
  8 C      5.7895     6.0000     0.2105     3.8464     3.8464    -0.0000
  9 N      7.5623     7.0000    -0.5623     3.0773     3.0773    -0.0000
 10 C      5.8809     6.0000     0.1191     3.9090     3.9090     0.0000
 11 N      7.4384     7.0000    -0.4384     3.3782     3.3782     0.0000
 12 C      6.0740     6.0000    -0.0740     3.8789     3.8789    -0.0000
 13 N      7.4300     7.0000    -0.4300     3.4256     3.4256     0.0000
 14 C      5.7726     6.0000     0.2274     3.7889     3.7889    -0.0000
 15 N      7.4410     7.0000    -0.4410     3.3722     3.3722    -0.0000
 16 C      5.7707     6.0000     0.2293     3.7771     3.7771    -0.0000
 17 C      6.1136     6.0000    -0.1136     3.9657     3.9657    -0.0000
 18 C      6.1884     6.0000    -0.1884     3.7649     3.7649     0.0000
 19 C      5.7793     6.0000     0.2207     3.8650     3.8650     0.0000
 20 C      5.7867     6.0000     0.2133     3.8291     3.8291     0.0000
 21 C      6.0822     6.0000    -0.0822     3.8623     3.8623     0.0000
 22 C      6.0911     6.0000    -0.0911     3.9828     3.9828    -0.0000
 23 C      6.0398     6.0000    -0.0398     3.9926     3.9926     0.0000
 24 C      5.8060     6.0000     0.1940     3.8213     3.8213     0.0000
 25 C      5.8854     6.0000     0.1146     3.8916     3.8916     0.0000
 26 C      6.0865     6.0000    -0.0865     3.9111     3.9111     0.0000
 27 C      5.7860     6.0000     0.2140     3.8625     3.8625     0.0000
 28 C      6.0614     6.0000    -0.0614     3.9886     3.9886     0.0000
 29 C      6.1808     6.0000    -0.1808     3.7452     3.7452    -0.0000
 30 C      5.7543     6.0000     0.2457     3.8006     3.8006    -0.0000
 31 C      5.7708     6.0000     0.2292     3.8177     3.8177     0.0000
 32 C      6.0619     6.0000    -0.0619     3.9229     3.9229     0.0000
 33 C      6.0614     6.0000    -0.0614     3.9722     3.9722     0.0000
 34 C      6.0511     6.0000    -0.0511     3.9840     3.9840    -0.0000
 35 C      5.7729     6.0000     0.2271     3.8170     3.8170    -0.0000
 36 C      5.8915     6.0000     0.1085     3.8756     3.8756     0.0000
 37 C      6.0644     6.0000    -0.0644     3.9178     3.9178     0.0000
 38 C      5.7686     6.0000     0.2314     3.8005     3.8005     0.0000
 39 C      6.0579     6.0000    -0.0579     3.9835     3.9835     0.0000
 40 C      6.1817     6.0000    -0.1817     3.7279     3.7279     0.0000
 41 C      5.7743     6.0000     0.2257     3.8867     3.8867    -0.0000
 42 C      5.8024     6.0000     0.1976     3.8259     3.8259    -0.0000
 43 C      6.0724     6.0000    -0.0724     3.9001     3.9001    -0.0000
 44 C      6.0894     6.0000    -0.0894     3.9850     3.9850    -0.0000
 45 C      6.0610     6.0000    -0.0610     3.9922     3.9922    -0.0000
 46 C      5.7888     6.0000     0.2112     3.8284     3.8284    -0.0000
 47 C      5.8846     6.0000     0.1154     3.8929     3.8929     0.0000
 48 C      6.0672     6.0000    -0.0672     3.9094     3.9094     0.0000
 49 C      5.7615     6.0000     0.2385     3.8934     3.8934     0.0000
 50 C      6.0467     6.0000    -0.0467     3.9904     3.9904    -0.0000
 51 C      6.1926     6.0000    -0.1926     3.7361     3.7361    -0.0000
 52 H      0.9618     1.0000     0.0382     0.9859     0.9859    -0.0000
 53 H      1.0173     1.0000    -0.0173     0.9986     0.9986     0.0000
 54 H      0.9527     1.0000     0.0473     1.0171     1.0171     0.0000
 55 H      0.9636     1.0000     0.0364     0.9865     0.9865    -0.0000
 56 H      0.9505     1.0000     0.0495     0.9695     0.9695     0.0000
 57 H      0.9527     1.0000     0.0473     0.9827     0.9827    -0.0000
 58 H      0.9522     1.0000     0.0478     0.9848     0.9848     0.0000
 59 H      1.0015     1.0000    -0.0015     1.0013     1.0013    -0.0000
 60 H      0.9503     1.0000     0.0497     1.0190     1.0190     0.0000
 61 H      0.8288     1.0000     0.1712     1.0421     1.0421    -0.0000
 62 H      0.8246     1.0000     0.1754     1.0436     1.0436    -0.0000
 63 H      0.9448     1.0000     0.0552     0.9853     0.9853     0.0000
 64 H      1.0143     1.0000    -0.0143     0.9933     0.9933     0.0000
 65 H      0.9527     1.0000     0.0473     1.0097     1.0097     0.0000
 66 H      0.9443     1.0000     0.0557     0.9855     0.9855    -0.0000
 67 H      0.9377     1.0000     0.0623     0.9719     0.9719     0.0000
 68 H      0.9428     1.0000     0.0572     0.9868     0.9868     0.0000
 69 H      0.9436     1.0000     0.0564     0.9828     0.9828     0.0000
 70 H      1.0302     1.0000    -0.0302     0.9938     0.9938     0.0000
 71 H      0.9553     1.0000     0.0447     1.0059     1.0059    -0.0000
 72 H      0.9294     1.0000     0.0706     0.9836     0.9836     0.0000
 73 H      1.0082     1.0000    -0.0082     1.0009     1.0009     0.0000
 74 H      0.9402     1.0000     0.0598     1.0101     1.0101    -0.0000
 75 H      0.9300     1.0000     0.0700     0.9839     0.9839     0.0000
 76 H      0.9257     1.0000     0.0743     0.9721     0.9721    -0.0000
 77 H      0.9325     1.0000     0.0675     0.9855     0.9855     0.0000
 78 H      0.9332     1.0000     0.0668     0.9854     0.9854     0.0000
 79 H      1.0165     1.0000    -0.0165     0.9976     0.9976     0.0000
 80 H      0.9393     1.0000     0.0607     1.0072     1.0072    -0.0000
 81 H      0.9458     1.0000     0.0542     0.9856     0.9856    -0.0000
 82 H      1.0248     1.0000    -0.0248     0.9935     0.9935    -0.0000
 83 H      0.9580     1.0000     0.0420     1.0083     1.0083    -0.0000
 84 H      0.9458     1.0000     0.0542     0.9852     0.9852     0.0000
 85 H      0.9391     1.0000     0.0609     0.9716     0.9716     0.0000
 86 H      0.9444     1.0000     0.0556     0.9839     0.9839    -0.0000
 87 H      0.9428     1.0000     0.0572     0.9856     0.9856    -0.0000
 88 H      1.0147     1.0000    -0.0147     0.9967     0.9967     0.0000
 89 H      0.9536     1.0000     0.0464     1.0075     1.0075    -0.0000

  Mayer bond orders larger than 0.100000
B(  0-C ,  1-N ) :   1.0912 B(  0-C , 17-C ) :   1.7124 B(  0-C , 52-H ) :   0.9650 
B(  1-N ,  8-C ) :   1.0935 B(  1-N , 10-C ) :   0.9773 B(  2-C , 12-C ) :   1.4990 
B(  2-C , 16-C ) :   1.3632 B(  2-C , 53-H ) :   0.9740 B(  3-N , 14-C ) :   1.2199 
B(  3-N , 16-C ) :   1.1859 B(  3-N , 61-H ) :   0.8989 B(  4-C ,  6-C ) :   1.2138 
B(  4-C , 17-C ) :   1.2117 B(  4-C , 18-C ) :   1.4538 B(  5-N , 19-C ) :   1.4549 
B(  5-N , 27-C ) :   1.3755 B(  6-C ,  8-C ) :   1.7078 B(  6-C , 54-H ) :   0.9381 
B(  7-N , 30-C ) :   1.1957 B(  7-N , 38-C ) :   1.1902 B(  7-N , 62-H ) :   0.8968 
B(  8-C , 55-H ) :   0.9660 B(  9-N , 41-C ) :   1.3946 B(  9-N , 49-C ) :   1.4251 
B( 10-C , 56-H ) :   0.9773 B( 10-C , 57-H ) :   0.9822 B( 10-C , 58-H ) :   0.9843 
B( 11-N , 20-C ) :   1.1307 B( 11-N , 24-C ) :   1.1073 B( 11-N , 25-C ) :   0.9602 
B( 12-C , 14-C ) :   1.3568 B( 12-C , 59-H ) :   0.9632 B( 13-N , 31-C ) :   1.1595 
B( 13-N , 35-C ) :   1.1579 B( 13-N , 36-C ) :   0.9423 B( 14-C , 18-C ) :   1.1251 
B( 15-N , 42-C ) :   1.1080 B( 15-N , 46-C ) :   1.1237 B( 15-N , 47-C ) :   0.9613 
B( 16-C , 51-C ) :   1.1696 B( 17-C , 60-H ) :   0.9282 B( 18-C , 19-C ) :   1.1269 
B( 19-C , 21-C ) :   1.2494 B( 20-C , 28-C ) :   1.6287 B( 20-C , 63-H ) :   0.9703 
B( 21-C , 26-C ) :   1.5941 B( 21-C , 64-H ) :   0.9511 B( 22-C , 23-C ) :   1.2890 
B( 22-C , 28-C ) :   1.2640 B( 22-C , 29-C ) :   1.2248 B( 23-C , 24-C ) :   1.6203 
B( 23-C , 65-H ) :   0.9703 B( 24-C , 66-H ) :   0.9695 B( 25-C , 67-H ) :   0.9760 
B( 25-C , 68-H ) :   0.9828 B( 25-C , 69-H ) :   0.9823 B( 26-C , 27-C ) :   1.2512 
B( 26-C , 70-H ) :   0.9694 B( 27-C , 29-C ) :   1.2092 B( 28-C , 71-H ) :   0.9720 
B( 29-C , 30-C ) :   1.2442 B( 30-C , 32-C ) :   1.2809 B( 31-C , 39-C ) :   1.5900 
B( 31-C , 72-H ) :   0.9682 B( 32-C , 37-C ) :   1.5778 B( 32-C , 73-H ) :   0.9786 
B( 33-C , 34-C ) :   1.3055 B( 33-C , 39-C ) :   1.3022 B( 33-C , 40-C ) :   1.1797 
B( 34-C , 35-C ) :   1.5875 B( 34-C , 74-H ) :   0.9697 B( 35-C , 75-H ) :   0.9682 
B( 36-C , 76-H ) :   0.9767 B( 36-C , 77-H ) :   0.9816 B( 36-C , 78-H ) :   0.9824 
B( 37-C , 38-C ) :   1.2865 B( 37-C , 79-H ) :   0.9765 B( 38-C , 40-C ) :   1.2324 
B( 39-C , 80-H ) :   0.9706 B( 40-C , 41-C ) :   1.2494 B( 41-C , 43-C ) :   1.1856 
B( 42-C , 50-C ) :   1.6332 B( 42-C , 81-H ) :   0.9697 B( 43-C , 48-C ) :   1.6671 
B( 43-C , 82-H ) :   0.9722 B( 44-C , 45-C ) :   1.2639 B( 44-C , 50-C ) :   1.2721 
B( 44-C , 51-C ) :   1.2606 B( 45-C , 46-C ) :   1.6346 B( 45-C , 83-H ) :   0.9718 
B( 46-C , 84-H ) :   0.9700 B( 47-C , 85-H ) :   0.9762 B( 47-C , 86-H ) :   0.9829 
B( 47-C , 87-H ) :   0.9824 B( 48-C , 49-C ) :   1.1891 B( 48-C , 88-H ) :   0.9748 
B( 49-C , 51-C ) :   1.2428 B( 50-C , 89-H ) :   0.9709 

-------
TIMINGS
-------

Total SCF time: 0 days 0 hours 28 min 50 sec 

Total time                  ....    1730.762 sec
Sum of individual times     ....    1725.944 sec  ( 99.7%)

Fock matrix formation       ....    1698.185 sec  ( 98.1%)
Diagonalization             ....       8.757 sec  (  0.5%)
Density matrix formation    ....       0.524 sec  (  0.0%)
Population analysis         ....       0.588 sec  (  0.0%)
Initial guess               ....       2.523 sec  (  0.1%)
Orbital Transformation      ....       0.000 sec  (  0.0%)
Orbital Orthonormalization  ....       0.000 sec  (  0.0%)
DIIS solution               ....       3.979 sec  (  0.2%)
SOSCF solution              ....      10.096 sec  (  0.6%)

Maximum memory used throughout the entire SCF-calculation: 302.7 MB


           ************************************************************
           *        Program running with 16 parallel MPI-processes    *
           *              working on a common directory               *
           ************************************************************

------------------------------------------------------------------------------
                                ORCA  MP2 
------------------------------------------------------------------------------

Freezing NCore=104 chemical core electrons

----------
MP2 ENERGY (disk based algorithm)
----------

Dimension of the basis                    ...  918
Memory devoted to MP2                     ... 2000 MB   
Data format for buffers                   ... DOUBLE
Compression type for matrix containers    ... UNCOMPRESSED

-------------------------------
PARTIAL EXCHANGE TRANSFORMATION
-------------------------------

Transformation type                        ... one-operator
Generation of integrals (i,mue|j,nue)      ... ON
Generation of integrals (mue,kappa|nue,tau)... OFF
Generation of integrals (i,mue|a,nue)      ... OFF
Dimension of the basis                     ...  918
Number of internal MOs                     ...  127 (  52- 178)
Pair cutoff                                ... 2.500e-12 Eh
Number of AO pairs in the trafo            ... 421821
Total Number of distinct AO pairs          ... 421821
Memory devoted for trafo                   ... 2000.0 MB 
Max. Number of MO pairs treated together   ...  311      
Number Format for Storage                  ... Double (8 Byte)
Integral package used                      ... LIBINT

Starting integral evaluation:
    ... done with AO integral generation
Closing buffer AOK     (38.31 GB; CompressionRatio= 1.32)
Collecting buffer AOK 
Number of MO pairs included in the trafo   ... 8128
------------------------
SORTING OF (i,mue|j,nue)
------------------------

IBATCH = 1 of  2
IBATCH = 2 of  2
Closing buffer KAO     (51.03 GB; CompressionRatio= 1.00)
Collecting buffer KAO 
N(AO-Batches) Done                         ...  86046907 
N(AO-Batches) Skipped                      ...  82253516 
N(IJ)-pairs Skipped                        ...         0 
TOTAL TIME for half transformation         ...  2409.202 sec
AO-integral generation                     ...   211.082 sec
Half transformation                        ...   423.981 sec
K-integral sorting                         ...  1552.812 sec
Process 10:   Internal MO 132
Process 13:   Internal MO 156

Finished integral transformation - now doing MP2 part

Process  7:   Internal MO 108
OPERATOR COMBINATION   0   0: ij=( 52..178, 52..178)
Process  4:   Internal MO  84
Process  1:   Internal MO  60
Process  2:   Internal MO  69
Process  0:   Internal MO  54
Process  3:   Internal MO  78
Process  1:   Internal MO  63
Process  5:   Internal MO  93
Process  2:   Internal MO  72
Process  0:   Internal MO  57
Process  6:   Internal MO 102
Process  1:   Internal MO  66
Process 11:   Internal MO 141
Process 14:   Internal MO 165
Process  8:   Internal MO 117
Process  4:   Internal MO  87
Process  2:   Internal MO  75
Process  3:   Internal MO  81
Process  9:   Internal MO 126
Process  7:   Internal MO 111
Process 12:   Internal MO 150
Process  5:   Internal MO  96
Process 10:   Internal MO 135
Process  4:   Internal MO  90
Process  6:   Internal MO 105
Process 15:   Internal MO 174
Process  7:   Internal MO 114
Process  8:   Internal MO 120
Process  5:   Internal MO  99
Process  9:   Internal MO 129
Process 13:   Internal MO 159
Process 11:   Internal MO 144
Process 14:   Internal MO 168
Process 12:   Internal MO 153
Process 10:   Internal MO 138
Process  8:   Internal MO 123
Process 15:   Internal MO 177
Process 11:   Internal MO 147
Process 13:   Internal MO 162
Process 14:   Internal MO 171
-----------------------------------------------
 MP2 CORRELATION ENERGY   :     -7.285591823 Eh
-----------------------------------------------


-------
TIMINGS
-------
Total time                : 2696.312 sec
Integral trafo            : 2411.417 sec ( 89.4%)
K(i,j)                    :   23.837 sec (  0.9%)
T(i,j)                    :    0.209 sec (  0.0%)

---------------------------------------
MP2 TOTAL ENERGY:    -2130.846347156 Eh
---------------------------------------

Maximum memory used throughout the entire MP2-calculation: 2275.3 MB

-------------------------   --------------------
FINAL SINGLE POINT ENERGY     -2130.846347156141
-------------------------   --------------------


                            ***************************************
                            *     ORCA property calculations      *
                            ***************************************


  WARNING: The energy has been calculated at the MP2 level but the densities
           used in the property calculations are still SCF densities
           MP2 response densities have not been calculated 
           use %mp2 Density relaxed end
           or  %mp2 Density unrelaxed end

                                    ---------------------
                                    Active property flags
                                    ---------------------
   (+) Dipole Moment


------------------------------------------------------------------------------
                       ORCA ELECTRIC PROPERTIES CALCULATION
------------------------------------------------------------------------------

Dipole Moment Calculation                       ... on
Quadrupole Moment Calculation                   ... off
Polarizability Calculation                      ... off
GBWName                                         ... /scratch/allen/tmpyp4_amber_gaff2/conf1/conf1/Conf203.orca.gbw
Electron density                                ... /scratch/allen/tmpyp4_amber_gaff2/conf1/conf1/Conf203.orca.scfp
The origin for moment calculation is the CENTER OF MASS  = ( 0.002895, -0.002113 -0.000668)

-------------
DIPOLE MOMENT
-------------
                                X             Y             Z
Electronic contribution:      2.57704      -4.17536      -0.17562
Nuclear contribution   :      0.07489       0.23864       0.17297
                        -----------------------------------------
Total Dipole Moment    :      2.65194      -3.93672      -0.00265
                        -----------------------------------------
Magnitude (a.u.)       :      4.74664
Magnitude (Debye)      :     12.06499



--------------------
Rotational spectrum 
--------------------
 
Rotational constants in cm-1:     0.001501     0.001479     0.000760 
Rotational constants in MHz :    44.994959    44.335943    22.791654 

 Dipole components along the rotational axes: 
x,y,z [a.u.] :     3.390928     3.321471    -0.002473 
x,y,z [Debye]:     8.619053     8.442509    -0.006287 

 

Timings for individual modules:

Sum of individual times         ...     4451.618 sec (=  74.194 min)
GTO integral calculation        ...        3.684 sec (=   0.061 min)   0.1 %
SCF iterations                  ...     1731.999 sec (=  28.867 min)  38.9 %
MP2 module                      ...     2715.936 sec (=  45.266 min)  61.0 %
                             ****ORCA TERMINATED NORMALLY****
TOTAL RUN TIME: 0 days 1 hours 14 minutes 15 seconds 201 msec
# of primitive gaussian functions

