
                                 *****************
                                 * O   R   C   A *
                                 *****************

                                            #,                                       
                                            ###                                      
                                            ####                                     
                                            #####                                    
                                            ######                                   
                                           ########,                                 
                                     ,,################,,,,,                         
                               ,,#################################,,                 
                          ,,##########################################,,             
                       ,#########################################, ''#####,          
                    ,#############################################,,   '####,        
                  ,##################################################,,,,####,       
                ,###########''''           ''''###############################       
              ,#####''   ,,,,##########,,,,          '''####'''          '####       
            ,##' ,,,,###########################,,,                        '##       
           ' ,,###''''                  '''############,,,                           
         ,,##''                                '''############,,,,        ,,,,,,###''
      ,#''                                            '''#######################'''  
     '                                                          ''''####''''         
             ,#######,   #######,   ,#######,      ##                                
            ,#'     '#,  ##    ##  ,#'     '#,    #''#        ######   ,####,        
            ##       ##  ##   ,#'  ##            #'  '#       #        #'  '#        
            ##       ##  #######   ##           ,######,      #####,   #    #        
            '#,     ,#'  ##    ##  '#,     ,#' ,#      #,         ##   #,  ,#        
             '#######'   ##     ##  '#######'  #'      '#     #####' # '####'        



                  #######################################################
                  #                        -***-                        #
                  #          Department of theory and spectroscopy      #
                  #    Directorship and core code : Frank Neese         #
                  #        Max Planck Institute fuer Kohlenforschung    #
                  #                Kaiser Wilhelm Platz 1               #
                  #                 D-45470 Muelheim/Ruhr               #
                  #                      Germany                        #
                  #                                                     #
                  #                  All rights reserved                #
                  #                        -***-                        #
                  #######################################################


                         Program Version 5.0.4 -  RELEASE  -


 With contributions from (in alphabetic order):
   Daniel Aravena         : Magnetic Suceptibility
   Michael Atanasov       : Ab Initio Ligand Field Theory (pilot matlab implementation)
   Alexander A. Auer      : GIAO ZORA, VPT2 properties, NMR spectrum
   Ute Becker             : Parallelization
   Giovanni Bistoni       : ED, misc. LED, open-shell LED, HFLD
   Martin Brehm           : Molecular dynamics
   Dmytro Bykov           : SCF Hessian
   Vijay G. Chilkuri      : MRCI spin determinant printing, contributions to CSF-ICE
   Dipayan Datta          : RHF DLPNO-CCSD density
   Achintya Kumar Dutta   : EOM-CC, STEOM-CC
   Dmitry Ganyushin       : Spin-Orbit,Spin-Spin,Magnetic field MRCI
   Miquel Garcia          : C-PCM and meta-GGA Hessian, CC/C-PCM, Gaussian charge scheme
   Yang Guo               : DLPNO-NEVPT2, F12-NEVPT2, CIM, IAO-localization
   Andreas Hansen         : Spin unrestricted coupled pair/coupled cluster methods
   Benjamin Helmich-Paris : MC-RPA, TRAH-SCF, COSX integrals
   Lee Huntington         : MR-EOM, pCC
   Robert Izsak           : Overlap fitted RIJCOSX, COSX-SCS-MP3, EOM
   Marcus Kettner         : VPT2
   Christian Kollmar      : KDIIS, OOCD, Brueckner-CCSD(T), CCSD density, CASPT2, CASPT2-K
   Simone Kossmann        : Meta GGA functionals, TD-DFT gradient, OOMP2, MP2 Hessian
   Martin Krupicka        : Initial AUTO-CI
   Lucas Lang             : DCDCAS
   Marvin Lechner         : AUTO-CI (C++ implementation), FIC-MRCC
   Dagmar Lenk            : GEPOL surface, SMD
   Dimitrios Liakos       : Extrapolation schemes; Compound Job, initial MDCI parallelization
   Dimitrios Manganas     : Further ROCIS development; embedding schemes
   Dimitrios Pantazis     : SARC Basis sets
   Anastasios Papadopoulos: AUTO-CI, single reference methods and gradients
   Taras Petrenko         : DFT Hessian,TD-DFT gradient, ASA, ECA, R-Raman, ABS, FL, XAS/XES, NRVS
   Peter Pinski           : DLPNO-MP2, DLPNO-MP2 Gradient
   Christoph Reimann      : Effective Core Potentials
   Marius Retegan         : Local ZFS, SOC
   Christoph Riplinger    : Optimizer, TS searches, QM/MM, DLPNO-CCSD(T), (RO)-DLPNO pert. Triples
   Tobias Risthaus        : Range-separated hybrids, TD-DFT gradient, RPA, STAB
   Michael Roemelt        : Original ROCIS implementation
   Masaaki Saitow         : Open-shell DLPNO-CCSD energy and density
   Barbara Sandhoefer     : DKH picture change effects
   Avijit Sen             : IP-ROCIS
   Kantharuban Sivalingam : CASSCF convergence, NEVPT2, FIC-MRCI
   Bernardo de Souza      : ESD, SOC TD-DFT
   Georgi Stoychev        : AutoAux, RI-MP2 NMR, DLPNO-MP2 response
   Willem Van den Heuvel  : Paramagnetic NMR
   Boris Wezisla          : Elementary symmetry handling
   Frank Wennmohs         : Technical directorship


 We gratefully acknowledge several colleagues who have allowed us to
 interface, adapt or use parts of their codes:
   Stefan Grimme, W. Hujo, H. Kruse, P. Pracht,  : VdW corrections, initial TS optimization,
                  C. Bannwarth, S. Ehlert          DFT functionals, gCP, sTDA/sTD-DF
   Ed Valeev, F. Pavosevic, A. Kumar             : LibInt (2-el integral package), F12 methods
   Garnet Chan, S. Sharma, J. Yang, R. Olivares  : DMRG
   Ulf Ekstrom                                   : XCFun DFT Library
   Mihaly Kallay                                 : mrcc  (arbitrary order and MRCC methods)
   Jiri Pittner, Ondrej Demel                    : Mk-CCSD
   Frank Weinhold                                : gennbo (NPA and NBO analysis)
   Christopher J. Cramer and Donald G. Truhlar   : smd solvation model
   Lars Goerigk                                  : TD-DFT with DH, B97 family of functionals
   V. Asgeirsson, H. Jonsson                     : NEB implementation
   FAccTs GmbH                                   : IRC, NEB, NEB-TS, DLPNO-Multilevel, CI-OPT
                                                   MM, QMMM, 2- and 3-layer-ONIOM, Crystal-QMMM,
                                                   LR-CPCM, SF, NACMEs, symmetry and pop. for TD-DFT,
                                                   nearIR, NL-DFT gradient (VV10), updates on ESD,
                                                   ML-optimized integration grids
   S Lehtola, MJT Oliveira, MAL Marques          : LibXC Library
   Liviu Ungur et al                             : ANISO software


 Your calculation uses the libint2 library for the computation of 2-el integrals
 For citations please refer to: http://libint.valeyev.net

 Your ORCA version has been built with support for libXC version: 5.1.0
 For citations please refer to: https://tddft.org/programs/libxc/

 This ORCA versions uses:
   CBLAS   interface :  Fast vector & matrix operations
   LAPACKE interface :  Fast linear algebra routines
   SCALAPACK package :  Parallel linear algebra routines
   Shared memory     :  Shared parallel matrices
   BLAS/LAPACK       :  OpenBLAS 0.3.15  USE64BITINT DYNAMIC_ARCH NO_AFFINITY Sandybridge SINGLE_THREADED
        Core in use  :  Sandybridge
   Copyright (c) 2011-2014, The OpenBLAS Project


================================================================================

----- Orbital basis set information -----
Your calculation utilizes the basis: cc-pVDZ 
       H, B-Ne : Obtained from the ccRepo (grant-hill.group.shef.ac.uk/ccrepo) Feb. 2017
                 T. H. Dunning, Jr., J. Chem. Phys. 90, 1007 (1989)
            He : Obtained from the ccRepo (grant-hill.group.shef.ac.uk/ccrepo) Feb. 2017
                 D. E. Woon, T. H. Dunning, Jr., J. Chem. Phys. 100, 2975 (1994)
  Li-Be, Na-Mg : Obtained from the ccRepo (grant-hill.group.shef.ac.uk/ccrepo) Feb. 2017
                 B. P. Prascher, D. E. Woon, K. A. Peterson, T. H. Dunning, Jr., A. K. Wilson, Theor. Chem. Acc. 128, 69 (2011)
         Al-Ar : Obtained from the ccRepo (grant-hill.group.shef.ac.uk/ccrepo) Feb. 2017
                 D. E. Woon, T. H. Dunning, Jr., J. Chem. Phys. 98, 1358 (1993)
            Ca : Obtained from the Peterson Research Group Website (tyr0.chem.wsu.edu/~kipeters) Feb. 2017
                 J. Koput, K. A. Peterson, J. Phys. Chem. 106, 9595 (2002)
         Sc-Zn : Obtained from the ccRepo (grant-hill.group.shef.ac.uk/ccrepo) Feb. 2017
                 N. B. Balabanov, K. A. Peterson, J. Chem. Phys. 123, 064107 (2005)
                 N. B. Balabanov, K. A. Peterson, J. Chem. Phys. 125, 074110 (2006)
         Ga-Kr : Obtained from the ccRepo (grant-hill.group.shef.ac.uk/ccrepo) Feb. 2017
                 A. K. Wilson, D. E. Woon, K. A. Peterson, T. H. Dunning, Jr., J. Chem. Phys. 110, 7667 (1999)

================================================================================
                                        WARNINGS
                       Please study these warnings very carefully!
================================================================================


WARNING: No MP2 level density has been requested!
         To caclulate MP2 level properties use
         %mp2 Density relaxed end
         or
         %mp2 Density unrelaxed end

WARNING: Post HF methods need fully converged wavefunctions
  ===> : Setting SCFConvForced true
         You can overwrite this default with %scf ConvForced false 


INFO   : the flag for use of the SHARK integral package has been found!

================================================================================
                                       INPUT FILE
================================================================================
NAME = /scratch/allen/tmpyp4_amber_gaff2/2.Mdgx/conf11/conf11/Conf112.orca
|  1> ! PAL2
|  2> ! mp2 cc-pvdz TightSCF  NoKeepInts
|  3> 
|  4> %scf
|  5>   MaxCore 2000
|  6> end
|  7> %mp2
|  8>   MaxCore 2000
|  9> end
| 10> * xyz 0 1
| 11>    C       -4.31900         5.63900        -1.01600
| 12>    C        1.47400         4.04100         0.05700
| 13>    C       -2.80200         4.09300         0.04900
| 14>    C       -2.86000         4.90300         1.19300
| 15>    C       -3.64100         6.04200         1.19700
| 16>    C       -5.20900         7.60400         0.15200
| 17>    C        0.13200         4.30700         0.06100
| 18>    C       -0.56900         3.05600         0.04700
| 19>    C        1.64900         2.61800         0.02300
| 20>    C       -3.55800         4.48700        -1.06600
| 21>    N       -4.35300         6.39800         0.10300
| 22>    N        0.38800         2.06700         0.02500
| 23>    N       -2.01000         0.39500        -0.07500
| 24>    N       -0.38800        -2.07400        -0.02700
| 25>    N        2.01000        -0.40100         0.06500
| 26>    C       -1.96000         2.86100         0.02400
| 27>    C       -2.62300         1.61500        -0.01800
| 28>    C       -5.57300        -4.32900         1.06600
| 29>    C       -4.07300         1.47100         0.05600
| 30>    C       -4.10600        -2.75600        -0.02600
| 31>    C       -4.99500        -2.75700        -1.11100
| 32>    C       -6.13200        -3.54200        -1.07600
| 33>    C       -7.65100        -5.11300         0.04000
| 34>    C       -4.32400         0.14100         0.03700
| 35>    C       -3.02500        -0.52000        -0.04800
| 36>    C       -4.42200        -3.56600         1.07500
| 37>    N       -6.40700        -4.31300         0.00100
| 38>    C       -2.86700        -1.92200        -0.04000
| 39>    C       -1.65000        -2.62400        -0.02700
| 40>    C        3.56800        -6.14200        -1.04000
| 41>    C       -1.47600        -4.04900        -0.03400
| 42>    C        2.80300        -4.09900        -0.00800
| 43>    C        3.65700        -4.38400         1.06900
| 44>    C        4.42700        -5.53000         1.05900
| 45>    C        5.24500        -7.58800         0.01400
| 46>    C       -0.13400        -4.31500        -0.02200
| 47>    C        0.56800        -3.06400        -0.02700
| 48>    C        2.77500        -5.01200        -1.07400
| 49>    N        4.37600        -6.39100         0.01700
| 50>    C        1.95900        -2.86900        -0.00900
| 51>    C        2.62100        -1.62200         0.00900
| 52>    C        5.54300         4.33900        -1.13000
| 53>    C        4.07000        -1.47900        -0.09400
| 54>    C        4.10400         2.75100        -0.02100
| 55>    C        5.02700         2.72900         1.03600
| 56>    C        6.16600         3.50900         0.97800
| 57>    C        7.61900         5.15300        -0.11500
| 58>    C        4.32100        -0.14800        -0.09200
| 59>    C        3.02500         0.51400         0.01500
| 60>    C        4.38700         3.58200        -1.11500
| 61>    C        2.86600         1.91600         0.01300
| 62>    N        6.41300         4.29600        -0.09500
| 63>    H       -4.90700         5.98800        -1.85500
| 64>    H        2.27400         4.76600         0.08100
| 65>    H       -2.30700         4.64700         2.08900
| 66>    H       -3.72400         6.69300         2.05800
| 67>    H       -6.18200         7.33300         0.56800
| 68>    H       -4.72700         8.35100         0.78200
| 69>    H       -5.32900         7.99000        -0.86000
| 70>    H       -0.33200         5.28200         0.06900
| 71>    H       -3.54300         3.91100        -1.98400
| 72>    H        0.18200         1.07200         0.00500
| 73>    H       -0.18300        -1.08000        -0.02100
| 74>    H       -5.86400        -4.96200         1.89500
| 75>    H       -4.79400         2.27200         0.13900
| 76>    H       -4.80000        -2.16000        -1.99400
| 77>    H       -6.84100        -3.58200        -1.89300
| 78>    H       -8.42800        -4.53600         0.54600
| 79>    H       -7.95600        -5.33700        -0.98100
| 80>    H       -7.45600        -6.03700         0.58400
| 81>    H       -5.28700        -0.34400         0.10000
| 82>    H       -3.78000        -3.60100         1.94700
| 83>    H        3.58700        -6.86800        -1.84300
| 84>    H       -2.27600        -4.77400        -0.05000
| 85>    H        3.71400        -3.72400         1.92600
| 86>    H        5.09200        -5.79500         1.87100
| 87>    H        6.20500        -7.32900        -0.43900
| 88>    H        5.39300        -7.91700         1.04200
| 89>    H        4.75900        -8.37300        -0.56400
| 90>    H        0.32900        -5.29000        -0.00800
| 91>    H        2.14600        -4.84200        -1.94000
| 92>    H        5.80800         4.98600        -1.95600
| 93>    H        4.78800        -2.28100        -0.18500
| 94>    H        4.86000         2.11400         1.91200
| 95>    H        6.90100         3.53100         1.77200
| 96>    H        7.38300         6.10900         0.35600
| 97>    H        8.41400         4.65200         0.43500
| 98>    H        7.92100         5.31000        -1.15000
| 99>    H        5.28300         0.33600        -0.17900
|100>    H        3.72000         3.63200        -1.96700
|101> *
|102> 
|103>                          ****END OF INPUT****
================================================================================

                       ****************************
                       * Single Point Calculation *
                       ****************************

---------------------------------
CARTESIAN COORDINATES (ANGSTROEM)
---------------------------------
  C     -4.319000    5.639000   -1.016000
  C      1.474000    4.041000    0.057000
  C     -2.802000    4.093000    0.049000
  C     -2.860000    4.903000    1.193000
  C     -3.641000    6.042000    1.197000
  C     -5.209000    7.604000    0.152000
  C      0.132000    4.307000    0.061000
  C     -0.569000    3.056000    0.047000
  C      1.649000    2.618000    0.023000
  C     -3.558000    4.487000   -1.066000
  N     -4.353000    6.398000    0.103000
  N      0.388000    2.067000    0.025000
  N     -2.010000    0.395000   -0.075000
  N     -0.388000   -2.074000   -0.027000
  N      2.010000   -0.401000    0.065000
  C     -1.960000    2.861000    0.024000
  C     -2.623000    1.615000   -0.018000
  C     -5.573000   -4.329000    1.066000
  C     -4.073000    1.471000    0.056000
  C     -4.106000   -2.756000   -0.026000
  C     -4.995000   -2.757000   -1.111000
  C     -6.132000   -3.542000   -1.076000
  C     -7.651000   -5.113000    0.040000
  C     -4.324000    0.141000    0.037000
  C     -3.025000   -0.520000   -0.048000
  C     -4.422000   -3.566000    1.075000
  N     -6.407000   -4.313000    0.001000
  C     -2.867000   -1.922000   -0.040000
  C     -1.650000   -2.624000   -0.027000
  C      3.568000   -6.142000   -1.040000
  C     -1.476000   -4.049000   -0.034000
  C      2.803000   -4.099000   -0.008000
  C      3.657000   -4.384000    1.069000
  C      4.427000   -5.530000    1.059000
  C      5.245000   -7.588000    0.014000
  C     -0.134000   -4.315000   -0.022000
  C      0.568000   -3.064000   -0.027000
  C      2.775000   -5.012000   -1.074000
  N      4.376000   -6.391000    0.017000
  C      1.959000   -2.869000   -0.009000
  C      2.621000   -1.622000    0.009000
  C      5.543000    4.339000   -1.130000
  C      4.070000   -1.479000   -0.094000
  C      4.104000    2.751000   -0.021000
  C      5.027000    2.729000    1.036000
  C      6.166000    3.509000    0.978000
  C      7.619000    5.153000   -0.115000
  C      4.321000   -0.148000   -0.092000
  C      3.025000    0.514000    0.015000
  C      4.387000    3.582000   -1.115000
  C      2.866000    1.916000    0.013000
  N      6.413000    4.296000   -0.095000
  H     -4.907000    5.988000   -1.855000
  H      2.274000    4.766000    0.081000
  H     -2.307000    4.647000    2.089000
  H     -3.724000    6.693000    2.058000
  H     -6.182000    7.333000    0.568000
  H     -4.727000    8.351000    0.782000
  H     -5.329000    7.990000   -0.860000
  H     -0.332000    5.282000    0.069000
  H     -3.543000    3.911000   -1.984000
  H      0.182000    1.072000    0.005000
  H     -0.183000   -1.080000   -0.021000
  H     -5.864000   -4.962000    1.895000
  H     -4.794000    2.272000    0.139000
  H     -4.800000   -2.160000   -1.994000
  H     -6.841000   -3.582000   -1.893000
  H     -8.428000   -4.536000    0.546000
  H     -7.956000   -5.337000   -0.981000
  H     -7.456000   -6.037000    0.584000
  H     -5.287000   -0.344000    0.100000
  H     -3.780000   -3.601000    1.947000
  H      3.587000   -6.868000   -1.843000
  H     -2.276000   -4.774000   -0.050000
  H      3.714000   -3.724000    1.926000
  H      5.092000   -5.795000    1.871000
  H      6.205000   -7.329000   -0.439000
  H      5.393000   -7.917000    1.042000
  H      4.759000   -8.373000   -0.564000
  H      0.329000   -5.290000   -0.008000
  H      2.146000   -4.842000   -1.940000
  H      5.808000    4.986000   -1.956000
  H      4.788000   -2.281000   -0.185000
  H      4.860000    2.114000    1.912000
  H      6.901000    3.531000    1.772000
  H      7.383000    6.109000    0.356000
  H      8.414000    4.652000    0.435000
  H      7.921000    5.310000   -1.150000
  H      5.283000    0.336000   -0.179000
  H      3.720000    3.632000   -1.967000

----------------------------
CARTESIAN COORDINATES (A.U.)
----------------------------
  NO LB      ZA    FRAG     MASS         X           Y           Z
   0 C     6.0000    0    12.011   -8.161727   10.656166   -1.919962
   1 C     6.0000    0    12.011    2.785456    7.636383    0.107714
   2 C     6.0000    0    12.011   -5.295013    7.734649    0.092597
   3 C     6.0000    0    12.011   -5.404617    9.265327    2.254443
   4 C     6.0000    0    12.011   -6.880493   11.417725    2.262002
   5 C     6.0000    0    12.011   -9.843583   14.369478    0.287238
   6 C     6.0000    0    12.011    0.249444    8.139050    0.115273
   7 C     6.0000    0    12.011   -1.075254    5.775003    0.088817
   8 C     6.0000    0    12.011    3.116158    4.947303    0.043464
   9 C     6.0000    0    12.011   -6.723646    8.479201   -2.014448
  10 N     7.0000    0    14.007   -8.225978   12.090468    0.194642
  11 N     7.0000    0    14.007    0.733214    3.906064    0.047243
  12 N     7.0000    0    14.007   -3.798350    0.746442   -0.141729
  13 N     7.0000    0    14.007   -0.733214   -3.919292   -0.051023
  14 N     7.0000    0    14.007    3.798350   -0.757780    0.122832
  15 C     6.0000    0    12.011   -3.703863    5.406506    0.045353
  16 C     6.0000    0    12.011   -4.956752    3.051908   -0.034015
  17 C     6.0000    0    12.011  -10.531444   -8.180624    2.014448
  18 C     6.0000    0    12.011   -7.696855    2.779787    0.105825
  19 C     6.0000    0    12.011   -7.759216   -5.208085   -0.049133
  20 C     6.0000    0    12.011   -9.439182   -5.209975   -2.099486
  21 C     6.0000    0    12.011  -11.587801   -6.693410   -2.033345
  22 C     6.0000    0    12.011  -14.458295   -9.662170    0.075589
  23 C     6.0000    0    12.011   -8.171176    0.266451    0.069920
  24 C     6.0000    0    12.011   -5.716422   -0.982658   -0.090707
  25 C     6.0000    0    12.011   -8.356369   -6.738763    2.031456
  26 N     7.0000    0    14.007  -12.107475   -8.150389    0.001890
  27 C     6.0000    0    12.011   -5.417845   -3.632054   -0.075589
  28 C     6.0000    0    12.011   -3.118048   -4.958641   -0.051023
  29 C     6.0000    0    12.011    6.742543  -11.606698   -1.965315
  30 C     6.0000    0    12.011   -2.789236   -7.651501   -0.064251
  31 C     6.0000    0    12.011    5.296902   -7.745987   -0.015118
  32 C     6.0000    0    12.011    6.910728   -8.284559    2.020117
  33 C     6.0000    0    12.011    8.365818  -10.450186    2.001220
  34 C     6.0000    0    12.011    9.911614  -14.339242    0.026456
  35 C     6.0000    0    12.011   -0.253223   -8.154168   -0.041574
  36 C     6.0000    0    12.011    1.073364   -5.790121   -0.051023
  37 C     6.0000    0    12.011    5.243990   -9.471307   -2.029566
  38 N     7.0000    0    14.007    8.269442  -12.077240    0.032125
  39 C     6.0000    0    12.011    3.701973   -5.421624   -0.017008
  40 C     6.0000    0    12.011    4.952972   -3.065136    0.017008
  41 C     6.0000    0    12.011   10.474752    8.199522   -2.135391
  42 C     6.0000    0    12.011    7.691185   -2.794905   -0.177634
  43 C     6.0000    0    12.011    7.755436    5.198637   -0.039684
  44 C     6.0000    0    12.011    9.499653    5.157063    1.957756
  45 C     6.0000    0    12.011   11.652051    6.631049    1.848152
  46 C     6.0000    0    12.011   14.397823    9.737759   -0.217319
  47 C     6.0000    0    12.011    8.165507   -0.279679   -0.173855
  48 C     6.0000    0    12.011    5.716422    0.971319    0.028346
  49 C     6.0000    0    12.011    8.290229    6.768999   -2.107045
  50 C     6.0000    0    12.011    5.415955    3.620715    0.024566
  51 N     7.0000    0    14.007   12.118814    8.118263   -0.179524
  52 H     1.0000    0     1.008   -9.272886   11.315680   -3.505442
  53 H     1.0000    0     1.008    4.297237    9.006435    0.153068
  54 H     1.0000    0     1.008   -4.359598    8.781557    3.947638
  55 H     1.0000    0     1.008   -7.037340   12.647937    3.889056
  56 H     1.0000    0     1.008  -11.682287   13.857362    1.073364
  57 H     1.0000    0     1.008   -8.932735   15.781103    1.477766
  58 H     1.0000    0     1.008  -10.070351   15.098912   -1.625164
  59 H     1.0000    0     1.008   -0.627389    9.981533    0.130391
  60 H     1.0000    0     1.008   -6.695300    7.390719   -3.749217
  61 H     1.0000    0     1.008    0.343930    2.025786    0.009449
  62 H     1.0000    0     1.008   -0.345820   -2.040904   -0.039684
  63 H     1.0000    0     1.008  -11.081354   -9.376821    3.581031
  64 H     1.0000    0     1.008   -9.059347    4.293458    0.262672
  65 H     1.0000    0     1.008   -9.070685   -4.081808   -3.768114
  66 H     1.0000    0     1.008  -12.927616   -6.768999   -3.577252
  67 H     1.0000    0     1.008  -15.926612   -8.571798    1.031790
  68 H     1.0000    0     1.008  -15.034661  -10.085468   -1.853821
  69 H     1.0000    0     1.008  -14.089798  -11.408277    1.103600
  70 H     1.0000    0     1.008   -9.990982   -0.650066    0.188973
  71 H     1.0000    0     1.008   -7.143165   -6.804904    3.679297
  72 H     1.0000    0     1.008    6.778448  -12.978639   -3.482765
  73 H     1.0000    0     1.008   -4.301017   -9.021553   -0.094486
  74 H     1.0000    0     1.008    7.018443   -7.037340    3.639613
  75 H     1.0000    0     1.008    9.622485  -10.950963    3.535678
  76 H     1.0000    0     1.008   11.725751  -13.849803   -0.829590
  77 H     1.0000    0     1.008   10.191293  -14.960962    1.969095
  78 H     1.0000    0     1.008    8.993207  -15.822677   -1.065806
  79 H     1.0000    0     1.008    0.621720   -9.996651   -0.015118
  80 H     1.0000    0     1.008    4.055352   -9.150054   -3.666069
  81 H     1.0000    0     1.008   10.975529    9.422175   -3.696304
  82 H     1.0000    0     1.008    9.048009   -4.310465   -0.349599
  83 H     1.0000    0     1.008    9.184069    3.994881    3.613156
  84 H     1.0000    0     1.008   13.041000    6.672623    3.348595
  85 H     1.0000    0     1.008   13.951848   11.544337    0.672743
  86 H     1.0000    0     1.008   15.900156    8.791006    0.822031
  87 H     1.0000    0     1.008   14.968521   10.034446   -2.173185
  88 H     1.0000    0     1.008    9.983423    0.634948   -0.338261
  89 H     1.0000    0     1.008    7.029781    6.863485   -3.717091

--------------------------------
INTERNAL COORDINATES (ANGSTROEM)
--------------------------------
 C      0   0   0     0.000000000000     0.00000000     0.00000000
 C      1   0   0     6.104406768884     0.00000000     0.00000000
 C      1   2   0     2.413634189350    32.68143610     0.00000000
 C      3   1   2     1.402925514773    87.93716628    91.77817083
 C      4   3   1     1.381049600847   120.12673570     0.17789434
 C      5   4   3     2.447548365201   152.54719681     1.53879451
 C      2   1   3     1.368114030335    11.11096209   325.88129635
 C      7   2   3     1.434084376876   108.05010202     0.84668783
 C      2   1   3     1.434123425651   111.80082757    39.07518867
 C      1   2   3     1.381566140292    42.72290966   312.18047865
 N      1   2   3     1.352552401942    91.45158988    88.81805003
 N      9   2   1     1.376127174356   106.58526707   348.03850675
 N     12   9   2     2.925062050624   168.53581413   171.12065651
 N     13  12   9     2.954513327098    91.55032014    11.12112580
 N     14  13  12     2.925371258490    88.43092389   359.84326247
 C      8   7   2     1.404790019896   127.24786865   181.11170171
 C     13  12   9     1.366535034311    81.72106996   188.00453233
 C     14  13  12     5.758810554272    80.56209567   166.76250791
 C     17  13  12     1.459010623676   111.08861209   183.82872609
 C     18  14  13     2.412235892279    27.27532823    36.33507194
 C     20  18  14     1.402692767501    87.95206320   148.94598259
 C     21  20  18     1.382106725257   120.14573887   359.70382047
 C     18  14  13     2.446510985056   144.15733107    82.80075377
 C     19  17  13     1.353610726908   106.29293361   359.75308708
 C     13  12   9     1.366813447402   172.21332906    33.46711076
 C     18  14  13     1.380960173213    15.08449437   309.23336894
 N     22  21  20     1.352773077792   120.73759875     0.27865223
 C     25  13  17     1.410897586645   125.60330303   182.37774668
 C     14  13  12     1.376642291955    80.24689249   177.85461986
 C     14  13  12     5.764089607215   164.51507311   312.20821879
 C     29  14  13     1.435600919476   106.58649366   178.76395472
 C     30  14  13     2.413316804732    27.10625047    82.12560436
 C     32  30  14     1.403734305344    87.90059683   149.76154742
 C     33  32  30     1.380694028378   120.14881443   359.74174632
 C     34  33  32     2.448777858443   152.49203239     2.45173620
 C     31  29  14     1.368160809262   108.16950133     0.70383075
 C     14  13  12     1.376239804685   169.26375223   353.09862627
 C     30  14  13     1.380907310430    14.68948582   353.70041132
 N     34  33  32     1.352658863128   120.85575621     0.19603406
 C     37  14  29     1.404717053360   126.01551127   180.90772073
 C     15  14  13     1.366491126938    81.61824056   183.09049352
 C      2   1   3     4.249062720177   147.27853685   160.08351764
 C     41  15  14     1.459677704153   111.05201287   175.08990246
 C     42   2   1     2.412953791518    41.78584867   209.19568956
 C     44  42   2     1.403446472082    87.95153797   233.97558675
 C     45  44  42     1.381696421071   120.11137308     0.19721020
 C     42   2   1     2.450019795838   135.97209175   119.51053866
 C     43  41  15     1.354461516618   106.26758155     0.30894352
 C     15  14  13     1.367461151185   171.87382904   332.35056460
 C     42   2   1     1.381886391857    32.59078432   258.05096875
 C      9   2   1     1.404988612053   126.98745415   169.04284428
 N     42   2   1     1.352765315936   113.57249190   147.24712786
 H      1   2   3     1.082342829237   137.41018269   222.28004181
 H      2   1   3     1.079907866440   122.08479533   208.59512272
 H      4   3   1     1.083587098484   121.11585481   179.53223408
 H      5   4   3     1.082594568617   122.79265820   179.46706755
 H      6   5   4     1.092348845379   104.46086515   100.14379765
 H      6   5   4     1.089602220996    84.67900304   209.57599301
 H      6   5   4     1.089743088989   133.87589813   322.41146242
 H      7   2  54     1.079807853278   126.66122480     1.30600390
 H     10   1   2     1.083847313970   118.77755007   233.90981258
 H     12   9   2     1.016297692608   125.29023241   180.00180175
 H     14  13  12     1.014936943854    44.97226959   359.42596618
 H     18  14  13     1.082871645210   128.03556573   234.20482432
 H     19  17  13     1.080893611786   126.41830519   178.11313280
 H     21  20  18     1.083569563987   121.05669627   180.67006309
 H     22  21  20     1.082483256222   122.73097286   180.59748951
 H     23  18  14     1.092105306278   103.92715769   234.93429879
 H     23  18  14     1.088871893291   134.19244188    12.25587044
 H     23  18  14     1.089833473518    84.85857450   125.45241208
 H     24  19  17     1.080075460327   127.28078426   178.44613241
 H     26  18  14     1.083408048706   118.76995697   244.94906660
 H     30  14  13     1.082703098730   127.99711412   279.66882698
 H     31  29  14     1.079759695488   125.22293469   180.92530585
 H     33  32  30     1.083188810873   121.01964473   180.74284758
 H     34  33  32     1.082494341787   122.70821597   180.59516895
 H     35  34  33     1.092652735319   105.73575241    97.19771933
 H     35  34  33     1.089462711615    84.05943581   206.43036958
 H     35  34  33     1.089268102902   133.08365142   318.50306270
 H     36  31  29     1.079439669458   126.61599965   178.98859863
 H     38  30  73     1.083742127999   118.77264435   359.90091293
 H     42   2   1     1.082178358682   119.31790784     3.87865831
 H     43  41  15     1.080281907652   126.36969097   182.06329380
 H     45  44  42     1.083277434455   121.10105945   179.58025624
 H     46  45  44     1.082194529648   122.72144639   179.46906377
 H     47  42   2     1.091546151109   106.65128841   315.16475048
 H     47  42   2     1.088818625851   132.46019523    94.52397119
 H     47  42   2     1.089531091801    83.63838232   206.04504406
 H     48  43  41     1.080402239909   127.23657387   181.62955349
 H     50  42   2     1.083186502870   118.77001737    94.71359229

---------------------------
INTERNAL COORDINATES (A.U.)
---------------------------
 C      0   0   0     0.000000000000     0.00000000     0.00000000
 C      1   0   0    11.535657003246     0.00000000     0.00000000
 C      1   2   0     4.561107605341    32.68143610     0.00000000
 C      3   1   2     2.651145009211    87.93716628    91.77817083
 C      4   3   1     2.609805522962   120.12673570     0.17789434
 C      5   4   3     4.625196109757   152.54719681     1.53879451
 C      2   1   3     2.585360837309    11.11096209   325.88129635
 C      7   2   3     2.710026725231   108.05010202     0.84668783
 C      2   1   3     2.710100516721   111.80082757    39.07518867
 C      1   2   3     2.610781641050    42.72290966   312.18047865
 N      1   2   3     2.555953621448    91.45158988    88.81805003
 N      9   2   1     2.600503484979   106.58526707   348.03850675
 N     12   9   2     5.527566200405   168.53581413   171.12065651
 N     13  12   9     5.583221047236    91.55032014    11.12112580
 N     14  13  12     5.528150518591    88.43092389   359.84326247
 C      8   7   2     2.654668413270   127.24786865   181.11170171
 C     13  12   9     2.582376967257    81.72106996   188.00453233
 C     14  13  12    10.882574804710    80.56209567   166.76250791
 C     17  13  12     2.757130505230   111.08861209   183.82872609
 C     18  14  13     4.558465206823    27.27532823    36.33507194
 C     20  18  14     2.650705180609    87.95206320   148.94598259
 C     21  20  18     2.611803198586   120.14573887   359.70382047
 C     18  14  13     4.623235745386   144.15733107    82.80075377
 C     19  17  13     2.557953565794   106.29293361   359.75308708
 C     13  12   9     2.582903091751   172.21332906    33.46711076
 C     18  14  13     2.609636529225    15.08449437   309.23336894
 N     22  21  20     2.556370638369   120.73759875     0.27865223
 C     25  13  17     2.666210041769   125.60330303   182.37774668
 C     14  13  12     2.601476916169    80.24689249   177.85461986
 C     14  13  12    10.892550769017   164.51507311   312.20821879
 C     29  14  13     2.712892575415   106.58649366   178.76395472
 C     30  14  13     4.560507835333    27.10625047    82.12560436
 C     32  30  14     2.652673401891    87.90059683   149.76154742
 C     33  32  30     2.609133588376   120.14881443   359.74174632
 C     34  33  32     4.627519515267   152.49203239     2.45173620
 C     31  29  14     2.585449236669   108.16950133     0.70383075
 C     14  13  12     2.600716325456   169.26375223   353.09862627
 C     30  14  13     2.609536633043    14.68948582   353.70041132
 N     34  33  32     2.556154803934   120.85575621     0.19603406
 C     37  14  29     2.654530526499   126.01551127   180.90772073
 C     15  14  13     2.582293994346    81.61824056   183.09049352
 C      2   1   3     8.029564866989   147.27853685   160.08351764
 C     41  15  14     2.758391104639   111.05201287   175.08990246
 C     42   2   1     4.559821839776    41.78584867   209.19568956
 C     44  42   2     2.652129475853    87.95153797   233.97558675
 C     45  44  42     2.611027836043   120.11137308     0.19721020
 C     42   2   1     4.629866436820   135.97209175   119.51053866
 C     43  41  15     2.559561325344   106.26758155     0.30894352
 C     15  14  13     2.584127074516   171.87382904   332.35056460
 C     42   2   1     2.611386828803    32.59078432   258.05096875
 C      9   2   1     2.655043698059   126.98745415   169.04284428
 N     42   2   1     2.556355970587   113.57249190   147.24712786
 H      1   2   3     2.045331530271   137.41018269   222.28004181
 H      2   1   3     2.040730117440   122.08479533   208.59512272
 H      4   3   1     2.047682858384   121.11585481   179.53223408
 H      5   4   3     2.045807248758   122.79265820   179.46706755
 H      6   5   4     2.064240160471   104.46086515   100.14379765
 H      6   5   4     2.059049792595    84.67900304   209.57599301
 H      6   5   4     2.059315994523   133.87589813   322.41146242
 H      7   2  54     2.040541119952   126.66122480     1.30600390
 H     10   1   2     2.048174594389   118.77755007   233.90981258
 H     12   9   2     1.920524309565   125.29023241   180.00180175
 H     14  13  12     1.917952867083    44.97226959   359.42596618
 H     18  14  13     2.046330847636   128.03556573   234.20482432
 H     19  17  13     2.042592906181   126.41830519   178.11313280
 H     21  20  18     2.047649722989   121.05669627   180.67006309
 H     22  21  20     2.045596898814   122.73097286   180.59748951
 H     23  18  14     2.063779938267   103.92715769   234.93429879
 H     23  18  14     2.057669673245   134.19244188    12.25587044
 H     23  18  14     2.059486796529    84.85857450   125.45241208
 H     24  19  17     2.041046823986   127.28078426   178.44613241
 H     26  18  14     2.047344503340   118.76995697   244.94906660
 H     30  14  13     2.046012340948   127.99711412   279.66882698
 H     31  29  14     2.040450114918   125.22293469   180.92530585
 H     33  32  30     2.046930203877   121.01964473   180.74284758
 H     34  33  32     2.045617847496   122.70821597   180.59516895
 H     35  34  33     2.064814429233   105.73575241    97.19771933
 H     35  34  33     2.058786158072    84.05943581   206.43036958
 H     35  34  33     2.058418400901   133.08365142   318.50306270
 H     36  31  29     2.039845353366   126.61599965   178.98859863
 H     38  30  73     2.047975821711   118.77264435   359.90091293
 H     42   2   1     2.045020725966   119.31790784     3.87865831
 H     43  41  15     2.041436952892   126.36969097   182.06329380
 H     45  44  42     2.047097678177   121.10105945   179.58025624
 H     46  45  44     2.045051284662   122.72144639   179.46906377
 H     47  42   2     2.062723288131   106.65128841   315.16475048
 H     47  42   2     2.057569012371   132.46019523    94.52397119
 H     47  42   2     2.058915377895    83.63838232   206.04504406
 H     48  43  41     2.041664347903   127.23657387   181.62955349
 H     50  42   2     2.046925842384   118.77001737    94.71359229

---------------------
BASIS SET INFORMATION
---------------------
There are 3 groups of distinct atoms

 Group   1 Type C   : 17s4p1d contracted to 3s2p1d pattern {881/31/1}
 Group   2 Type N   : 17s4p1d contracted to 3s2p1d pattern {881/31/1}
 Group   3 Type H   : 4s1p contracted to 2s1p pattern {31/1}

Atom   0C    basis set group =>   1
Atom   1N    basis set group =>   2
Atom   2C    basis set group =>   1
Atom   3N    basis set group =>   2
Atom   4C    basis set group =>   1
Atom   5N    basis set group =>   2
Atom   6C    basis set group =>   1
Atom   7N    basis set group =>   2
Atom   8C    basis set group =>   1
Atom   9N    basis set group =>   2
Atom  10C    basis set group =>   1
Atom  11N    basis set group =>   2
Atom  12C    basis set group =>   1
Atom  13N    basis set group =>   2
Atom  14C    basis set group =>   1
Atom  15N    basis set group =>   2
Atom  16C    basis set group =>   1
Atom  17C    basis set group =>   1
Atom  18C    basis set group =>   1
Atom  19C    basis set group =>   1
Atom  20C    basis set group =>   1
Atom  21C    basis set group =>   1
Atom  22C    basis set group =>   1
Atom  23C    basis set group =>   1
Atom  24C    basis set group =>   1
Atom  25C    basis set group =>   1
Atom  26C    basis set group =>   1
Atom  27C    basis set group =>   1
Atom  28C    basis set group =>   1
Atom  29C    basis set group =>   1
Atom  30C    basis set group =>   1
Atom  31C    basis set group =>   1
Atom  32C    basis set group =>   1
Atom  33C    basis set group =>   1
Atom  34C    basis set group =>   1
Atom  35C    basis set group =>   1
Atom  36C    basis set group =>   1
Atom  37C    basis set group =>   1
Atom  38C    basis set group =>   1
Atom  39C    basis set group =>   1
Atom  40C    basis set group =>   1
Atom  41C    basis set group =>   1
Atom  42C    basis set group =>   1
Atom  43C    basis set group =>   1
Atom  44C    basis set group =>   1
Atom  45C    basis set group =>   1
Atom  46C    basis set group =>   1
Atom  47C    basis set group =>   1
Atom  48C    basis set group =>   1
Atom  49C    basis set group =>   1
Atom  50C    basis set group =>   1
Atom  51C    basis set group =>   1
Atom  52H    basis set group =>   3
Atom  53H    basis set group =>   3
Atom  54H    basis set group =>   3
Atom  55H    basis set group =>   3
Atom  56H    basis set group =>   3
Atom  57H    basis set group =>   3
Atom  58H    basis set group =>   3
Atom  59H    basis set group =>   3
Atom  60H    basis set group =>   3
Atom  61H    basis set group =>   3
Atom  62H    basis set group =>   3
Atom  63H    basis set group =>   3
Atom  64H    basis set group =>   3
Atom  65H    basis set group =>   3
Atom  66H    basis set group =>   3
Atom  67H    basis set group =>   3
Atom  68H    basis set group =>   3
Atom  69H    basis set group =>   3
Atom  70H    basis set group =>   3
Atom  71H    basis set group =>   3
Atom  72H    basis set group =>   3
Atom  73H    basis set group =>   3
Atom  74H    basis set group =>   3
Atom  75H    basis set group =>   3
Atom  76H    basis set group =>   3
Atom  77H    basis set group =>   3
Atom  78H    basis set group =>   3
Atom  79H    basis set group =>   3
Atom  80H    basis set group =>   3
Atom  81H    basis set group =>   3
Atom  82H    basis set group =>   3
Atom  83H    basis set group =>   3
Atom  84H    basis set group =>   3
Atom  85H    basis set group =>   3
Atom  86H    basis set group =>   3
Atom  87H    basis set group =>   3
Atom  88H    basis set group =>   3
Atom  89H    basis set group =>   3


           ************************************************************
           *        Program running with 16 parallel MPI-processes    *
           *              working on a common directory               *
           ************************************************************
------------------------------------------------------------------------------
                           ORCA GTO INTEGRAL CALCULATION
------------------------------------------------------------------------------
------------------------------------------------------------------------------
                   ___                                                        
                  /   \      - P O W E R E D   B Y -                         
                 /     \                                                     
                 |  |  |   _    _      __       _____    __    __             
                 |  |  |  | |  | |    /  \     |  _  \  |  |  /  |          
                  \  \/   | |  | |   /    \    | | | |  |  | /  /          
                 / \  \   | |__| |  /  /\  \   | |_| |  |  |/  /          
                |  |  |   |  __  | /  /__\  \  |    /   |      \           
                |  |  |   | |  | | |   __   |  |    \   |  |\   \          
                \     /   | |  | | |  |  |  |  | |\  \  |  | \   \       
                 \___/    |_|  |_| |__|  |__|  |_| \__\ |__|  \__/        
                                                                              
                      - O R C A' S   B I G   F R I E N D -                    
                                      &                                       
                       - I N T E G R A L  F E E D E R -                       
                                                                              
 v1 FN, 2020, v2 2021                                                         
------------------------------------------------------------------------------


Reading SHARK input file /scratch/allen/tmpyp4_amber_gaff2/conf1/conf1/Conf112.orca.SHARKINP.tmp ... ok
----------------------
SHARK INTEGRAL PACKAGE
----------------------

Number of atoms                             ...     90
Number of basis functions                   ...   1230
Number of shells                            ...    738
Maximum angular momentum                    ...      2
Integral batch strategy                     ... SHARK/LIBINT Hybrid
RI-J (if used) integral strategy            ... SPLIT-RIJ (Revised 2003 algorithm where possible)
Printlevel                                  ...      1
Contraction scheme used                     ... PARTIAL GENERAL contraction
Coulomb Range Separation                    ... NOT USED
Exchange Range Separation                   ... NOT USED
Finite Nucleus Model                        ... NOT USED
Auxiliary Coulomb fitting basis             ... NOT available
Auxiliary J/K fitting basis                 ... NOT available
Auxiliary Correlation fitting basis         ... NOT available
Auxiliary 'external' fitting basis          ... NOT available
Integral threshold                          ...     2.500000e-11
Primitive cut-off                           ...     2.500000e-12
Primitive pair pre-selection threshold      ...     2.500000e-12

Calculating pre-screening integrals         ... done (  0.1 sec) Dimension = 738
Calculating pre-screening integrals (ORCA)  ... done (  0.3 sec) Dimension = 426
Organizing shell pair data                  ... done (  0.5 sec)
Shell pair information
Total number of shell pairs                 ...    272691
Shell pairs after pre-screening             ...     71571
Total number of primitive shell pairs       ...    422091
Primitive shell pairs kept                  ...     92342
          la=0 lb=0:  29396 shell pairs
          la=1 lb=0:  25955 shell pairs
          la=1 lb=1:   4686 shell pairs
          la=2 lb=0:   7879 shell pairs
          la=2 lb=1:   3124 shell pairs
          la=2 lb=2:    531 shell pairs

Calculating one electron integrals          ... done (  0.2 sec)
Calculating Nuclear repulsion               ... done (  0.0 sec) ENN=   6223.158460053749 Eh

SHARK setup successfully completed in   1.7 seconds

Maximum memory used throughout the entire GTOINT-calculation: 99.0 MB


           ************************************************************
           *        Program running with 16 parallel MPI-processes    *
           *              working on a common directory               *
           ************************************************************
-------------------------------------------------------------------------------
                                 ORCA SCF
-------------------------------------------------------------------------------

------------
SCF SETTINGS
------------
Hamiltonian:
 Ab initio Hamiltonian  Method          .... Hartree-Fock(GTOs)


General Settings:
 Integral files         IntName         .... /scratch/allen/tmpyp4_amber_gaff2/conf1/conf1/Conf112.orca
 Hartree-Fock type      HFTyp           .... RHF
 Total Charge           Charge          ....    0
 Multiplicity           Mult            ....    1
 Number of Electrons    NEL             ....  358
 Basis Dimension        Dim             ....  918
 Nuclear Repulsion      ENuc            ....   6223.1584600537 Eh

Convergence Acceleration:
 DIIS                   CNVDIIS         .... on
   Start iteration      DIISMaxIt       ....    12
   Startup error        DIISStart       ....  0.200000
   # of expansion vecs  DIISMaxEq       ....     5
   Bias factor          DIISBfac        ....   1.050
   Max. coefficient     DIISMaxC        ....  10.000
 Trust-Rad. Augm. Hess. CNVTRAH         .... auto
   Auto Start mean grad. ratio tolernc. ....  1.125000
   Auto Start start iteration           ....    20
   Auto Start num. interpolation iter.  ....    10
   Max. Number of Micro iterations      ....    16
   Max. Number of Macro iterations      .... Maxiter - #DIIS iter
   Number of Davidson start vectors     ....     2
   Converg. threshold I  (grad. norm)   ....   1.000e-05
   Converg. threshold II (energy diff.) ....   1.000e-08
   Grad. Scal. Fac. for Micro threshold ....   0.100
   Minimum threshold for Micro iter.    ....   0.010
   NR start threshold (gradient norm)   ....   0.001
   Initial trust radius                 ....   0.400
   Minimum AH scaling param. (alpha)    ....   1.000
   Maximum AH scaling param. (alpha)    .... 1000.000
   Orbital update algorithm             .... Taylor
   White noise on init. David. guess    .... on
   Maximum white noise                  ....   0.010
   Quad. conv. algorithm                .... NR
 SOSCF                  CNVSOSCF        .... on
   Start iteration      SOSCFMaxIt      ....   150
   Startup grad/error   SOSCFStart      ....  0.003300
 Level Shifting         CNVShift        .... on
   Level shift para.    LevelShift      ....    0.2500
   Turn off err/grad.   ShiftErr        ....    0.0010
 Zerner damping         CNVZerner       .... off
 Static damping         CNVDamp         .... on
   Fraction old density DampFac         ....    0.7000
   Max. Damping (<1)    DampMax         ....    0.9800
   Min. Damping (>=0)   DampMin         ....    0.0000
   Turn off err/grad.   DampErr         ....    0.1000
 Fernandez-Rico         CNVRico         .... off

SCF Procedure:
 Maximum # iterations   MaxIter         ....   125
 SCF integral mode      SCFMode         .... Direct
   Integral package                     .... SHARK and LIBINT hybrid scheme
 Reset frequency        DirectResetFreq ....    20
 Integral Threshold     Thresh          ....  2.500e-11 Eh
 Primitive CutOff       TCut            ....  2.500e-12 Eh

Convergence Tolerance:
 Convergence Check Mode ConvCheckMode   .... Total+1el-Energy
 Convergence forced     ConvForced      .... 1
 Energy Change          TolE            ....  1.000e-08 Eh
 1-El. energy change                    ....  1.000e-05 Eh
 Orbital Gradient       TolG            ....  1.000e-05
 Orbital Rotation angle TolX            ....  1.000e-05
 DIIS Error             TolErr          ....  5.000e-07


Diagonalization of the overlap matrix:
Smallest eigenvalue                        ... 2.260e-04
Time for diagonalization                   ...    0.404 sec
Threshold for overlap eigenvalues          ... 1.000e-08
Number of eigenvalues below threshold      ... 0
Time for construction of square roots      ...    0.189 sec
Total time needed                          ...    0.599 sec

Time for model grid setup =    1.006 sec

------------------------------
INITIAL GUESS: MODEL POTENTIAL
------------------------------
Loading Hartree-Fock densities                     ... done
Calculating cut-offs                               ... done
Initializing the effective Hamiltonian             ... done
Setting up the integral package (SHARK)            ... done
Starting the Coulomb interaction                   ... done (   1.1 sec)
Reading the grid                                   ... done
Mapping shells                                     ... done
Starting the XC term evaluation                    ... done (   0.2 sec)
Transforming the Hamiltonian                       ... done (   0.2 sec)
Diagonalizing the Hamiltonian                      ... done (   0.3 sec)
Back transforming the eigenvectors                 ... done (   0.1 sec)
Now organizing SCF variables                       ... done
                      ------------------
                      INITIAL GUESS DONE (   2.9 sec)
                      ------------------
--------------
SCF ITERATIONS
--------------
ITER       Energy         Delta-E        Max-DP      RMS-DP      [F,P]     Damp
               ***  Starting incremental Fock matrix formation  ***
  0  -2121.6586833724   0.000000000000 0.06919720  0.00121059  0.2339254 0.7000
  1  -2122.3266781381  -0.667994765676 0.05254429  0.00098131  0.1446667 0.7000
                               ***Turning on DIIS***
  2  -2122.7417182071  -0.415040069049 0.11657536  0.00222070  0.0803898 0.0000
  3  -2117.6904750041   5.051243203043 0.03221810  0.00068616  0.0444280 0.0000
  4  -2123.4040783851  -5.713603381024 0.00886508  0.00022940  0.0070210 0.0000
  5  -2123.5868895454  -0.182811160243 0.00511117  0.00013654  0.0049637 0.0000
  6  -2123.5689384165   0.017951128895 0.00333367  0.00009011  0.0020268 0.0000
  7  -2123.6745317232  -0.105593306724 0.00285260  0.00007278  0.0015212 0.0000
  8  -2123.6987638667  -0.024232143531 0.00274453  0.00007052  0.0014095 0.0000
  9  -2123.6600549878   0.038708878943 0.00227121  0.00004932  0.0010940 0.0000
 10  -2123.6789851802  -0.018930192420 0.00510443  0.00010313  0.0008198 0.0000
                      *** Initiating the SOSCF procedure ***
                           *** Shutting down DIIS ***
                      *** Re-Reading the Fockian *** 
                      *** Removing any level shift *** 
ITER      Energy       Delta-E        Grad      Rot      Max-DP    RMS-DP
 11  -2123.54078618   0.1381990031  0.000324  0.000324  0.000280  0.000007
               *** Restarting incremental Fock matrix formation ***
 12  -2123.61865675  -0.0778705702  0.001006  0.006943  0.001183  0.000031
 13  -2123.61874385  -0.0000870995  0.001116  0.028028  0.004806  0.000102
 14  -2123.61885516  -0.0001113128  0.000431  0.002339  0.000472  0.000012
 15  -2123.61886997  -0.0000148112  0.000283  0.004673  0.000610  0.000017
 16  -2123.61887860  -0.0000086263  0.000161  0.005387  0.000893  0.000020
 17  -2123.61888635  -0.0000077569  0.000232  0.007909  0.000931  0.000024
 18  -2123.61889310  -0.0000067457  0.000138  0.007941  0.000869  0.000024
 19  -2123.61889848  -0.0000053841  0.000162  0.003890  0.000523  0.000012
 20  -2123.61890065  -0.0000021636  0.000073  0.001350  0.000262  0.000006
 21  -2123.61890132  -0.0000006730  0.000065  0.000573  0.000133  0.000003
 22  -2123.61890171  -0.0000003917  0.000038  0.000440  0.000128  0.000002
 23  -2123.61890195  -0.0000002343  0.000027  0.000752  0.000151  0.000003
 24  -2123.61890207  -0.0000001277  0.000012  0.000426  0.000060  0.000001
 25  -2123.61890212  -0.0000000464  0.000014  0.000308  0.000058  0.000001
 26  -2123.61890216  -0.0000000378  0.000012  0.000301  0.000041  0.000001
 27  -2123.61890217  -0.0000000163  0.000007  0.000290  0.000034  0.000001
 28  -2123.61890219  -0.0000000117  0.000004  0.000201  0.000025  0.000001
 29  -2123.61890220  -0.0000000089  0.000003  0.000067  0.000013  0.000000
                  ***Gradient check signals convergence***
              ***Rediagonalizing the Fockian in SOSCF/NRSCF***

               *****************************************************
               *                     SUCCESS                       *
               *           SCF CONVERGED AFTER  30 CYCLES          *
               *****************************************************


----------------
TOTAL SCF ENERGY
----------------

Total Energy       :        -2123.61890220 Eh          -57786.60814 eV

Components:
Nuclear Repulsion  :         6223.15846005 Eh          169340.75082 eV
Electronic Energy  :        -8346.77736225 Eh         -227127.35896 eV
One Electron Energy:       -15287.67343927 Eh         -415998.74325 eV
Two Electron Energy:         6940.89607702 Eh          188871.38429 eV

Virial components:
Potential Energy   :        -4245.60167739 Eh         -115528.69501 eV
Kinetic Energy     :         2121.98277519 Eh           57742.08686 eV
Virial Ratio       :            2.00077104


---------------
SCF CONVERGENCE
---------------

  Last Energy change         ...   -3.4743e-10  Tolerance :   1.0000e-08
  Last MAX-Density change    ...    5.3239e-06  Tolerance :   1.0000e-07
  Last RMS-Density change    ...    1.3643e-07  Tolerance :   5.0000e-09
  Last Orbital Gradient      ...    1.7096e-06  Tolerance :   1.0000e-05
  Last Orbital Rotation      ...    3.5329e-05  Tolerance :   1.0000e-05

             **** THE GBW FILE WAS UPDATED (/scratch/allen/tmpyp4_amber_gaff2/conf1/conf1/Conf112.orca.gbw) ****
             **** DENSITY /scratch/allen/tmpyp4_amber_gaff2/conf1/conf1/Conf112.orca.scfp WAS UPDATED ****
             **** ENERGY FILE WAS UPDATED (/scratch/allen/tmpyp4_amber_gaff2/conf1/conf1/Conf112.orca.en.tmp) ****
             **** THE GBW FILE WAS UPDATED (/scratch/allen/tmpyp4_amber_gaff2/conf1/conf1/Conf112.orca.gbw) ****
             **** DENSITY /scratch/allen/tmpyp4_amber_gaff2/conf1/conf1/Conf112.orca.scfp WAS UPDATED ****
----------------
ORBITAL ENERGIES
----------------

  NO   OCC          E(Eh)            E(eV) 
   0   2.0000     -15.654870      -425.9907 
   1   2.0000     -15.639206      -425.5644 
   2   2.0000     -15.626488      -425.2183 
   3   2.0000     -15.615361      -424.9156 
   4   2.0000     -15.516442      -422.2238 
   5   2.0000     -15.513662      -422.1482 
   6   2.0000     -15.446270      -420.3144 
   7   2.0000     -15.437384      -420.0726 
   8   2.0000     -11.312027      -307.8159 
   9   2.0000     -11.307224      -307.6852 
  10   2.0000     -11.306320      -307.6606 
  11   2.0000     -11.302554      -307.5581 
  12   2.0000     -11.295896      -307.3770 
  13   2.0000     -11.294446      -307.3375 
  14   2.0000     -11.292733      -307.2909 
  15   2.0000     -11.287752      -307.1554 
  16   2.0000     -11.284999      -307.0804 
  17   2.0000     -11.281838      -306.9944 
  18   2.0000     -11.275980      -306.8350 
  19   2.0000     -11.272783      -306.7480 
  20   2.0000     -11.256296      -306.2994 
  21   2.0000     -11.244796      -305.9865 
  22   2.0000     -11.244544      -305.9796 
  23   2.0000     -11.242489      -305.9237 
  24   2.0000     -11.234178      -305.6975 
  25   2.0000     -11.233421      -305.6769 
  26   2.0000     -11.230647      -305.6014 
  27   2.0000     -11.224532      -305.4351 
  28   2.0000     -11.224418      -305.4319 
  29   2.0000     -11.220806      -305.3337 
  30   2.0000     -11.216919      -305.2279 
  31   2.0000     -11.216091      -305.2053 
  32   2.0000     -11.198793      -304.7346 
  33   2.0000     -11.198673      -304.7314 
  34   2.0000     -11.193139      -304.5808 
  35   2.0000     -11.192992      -304.5768 
  36   2.0000     -11.178368      -304.1788 
  37   2.0000     -11.178345      -304.1782 
  38   2.0000     -11.175073      -304.0892 
  39   2.0000     -11.170189      -303.9563 
  40   2.0000     -11.164081      -303.7901 
  41   2.0000     -11.161031      -303.7071 
  42   2.0000     -11.160801      -303.7008 
  43   2.0000     -11.160146      -303.6830 
  44   2.0000     -11.158918      -303.6496 
  45   2.0000     -11.155899      -303.5674 
  46   2.0000     -11.153335      -303.4977 
  47   2.0000     -11.150637      -303.4243 
  48   2.0000     -11.149019      -303.3802 
  49   2.0000     -11.148416      -303.3638 
  50   2.0000     -11.132179      -302.9220 
  51   2.0000     -11.130362      -302.8726 
  52   2.0000      -1.338636       -36.4261 
  53   2.0000      -1.325663       -36.0731 
  54   2.0000      -1.314466       -35.7684 
  55   2.0000      -1.305250       -35.5177 
  56   2.0000      -1.216041       -33.0902 
  57   2.0000      -1.211029       -32.9538 
  58   2.0000      -1.164904       -31.6987 
  59   2.0000      -1.150350       -31.3026 
  60   2.0000      -1.124246       -30.5923 
  61   2.0000      -1.113088       -30.2887 
  62   2.0000      -1.103877       -30.0380 
  63   2.0000      -1.095062       -29.7982 
  64   2.0000      -1.061359       -28.8810 
  65   2.0000      -1.049419       -28.5561 
  66   2.0000      -1.039006       -28.2728 
  67   2.0000      -1.030557       -28.0429 
  68   2.0000      -1.028375       -27.9835 
  69   2.0000      -1.012557       -27.5531 
  70   2.0000      -1.006482       -27.3878 
  71   2.0000      -0.995228       -27.0815 
  72   2.0000      -0.980520       -26.6813 
  73   2.0000      -0.975054       -26.5326 
  74   2.0000      -0.970436       -26.4069 
  75   2.0000      -0.960902       -26.1475 
  76   2.0000      -0.949203       -25.8291 
  77   2.0000      -0.947553       -25.7842 
  78   2.0000      -0.932724       -25.3807 
  79   2.0000      -0.922034       -25.0898 
  80   2.0000      -0.892522       -24.2868 
  81   2.0000      -0.885801       -24.1039 
  82   2.0000      -0.876085       -23.8395 
  83   2.0000      -0.866272       -23.5725 
  84   2.0000      -0.860384       -23.4122 
  85   2.0000      -0.857721       -23.3398 
  86   2.0000      -0.852030       -23.1849 
  87   2.0000      -0.837571       -22.7915 
  88   2.0000      -0.822221       -22.3738 
  89   2.0000      -0.797153       -21.6916 
  90   2.0000      -0.796188       -21.6654 
  91   2.0000      -0.740462       -20.1490 
  92   2.0000      -0.731352       -19.9011 
  93   2.0000      -0.726995       -19.7825 
  94   2.0000      -0.723050       -19.6752 
  95   2.0000      -0.716290       -19.4912 
  96   2.0000      -0.710228       -19.3263 
  97   2.0000      -0.707254       -19.2453 
  98   2.0000      -0.698337       -19.0027 
  99   2.0000      -0.691331       -18.8121 
 100   2.0000      -0.689721       -18.7683 
 101   2.0000      -0.682322       -18.5669 
 102   2.0000      -0.679939       -18.5021 
 103   2.0000      -0.671782       -18.2801 
 104   2.0000      -0.669395       -18.2152 
 105   2.0000      -0.667361       -18.1598 
 106   2.0000      -0.662842       -18.0368 
 107   2.0000      -0.660974       -17.9860 
 108   2.0000      -0.657840       -17.9007 
 109   2.0000      -0.656497       -17.8642 
 110   2.0000      -0.650622       -17.7043 
 111   2.0000      -0.647921       -17.6308 
 112   2.0000      -0.645179       -17.5562 
 113   2.0000      -0.640050       -17.4167 
 114   2.0000      -0.633032       -17.2257 
 115   2.0000      -0.627113       -17.0646 
 116   2.0000      -0.623069       -16.9546 
 117   2.0000      -0.616405       -16.7732 
 118   2.0000      -0.612719       -16.6729 
 119   2.0000      -0.607947       -16.5431 
 120   2.0000      -0.606535       -16.5047 
 121   2.0000      -0.599951       -16.3255 
 122   2.0000      -0.598215       -16.2783 
 123   2.0000      -0.594772       -16.1846 
 124   2.0000      -0.592960       -16.1352 
 125   2.0000      -0.584878       -15.9153 
 126   2.0000      -0.576638       -15.6911 
 127   2.0000      -0.570092       -15.5130 
 128   2.0000      -0.569423       -15.4948 
 129   2.0000      -0.563385       -15.3305 
 130   2.0000      -0.554093       -15.0776 
 131   2.0000      -0.547585       -14.9006 
 132   2.0000      -0.540593       -14.7103 
 133   2.0000      -0.534174       -14.5356 
 134   2.0000      -0.531623       -14.4662 
 135   2.0000      -0.528382       -14.3780 
 136   2.0000      -0.525797       -14.3077 
 137   2.0000      -0.522714       -14.2238 
 138   2.0000      -0.519595       -14.1389 
 139   2.0000      -0.514930       -14.0120 
 140   2.0000      -0.508977       -13.8500 
 141   2.0000      -0.505123       -13.7451 
 142   2.0000      -0.502665       -13.6782 
 143   2.0000      -0.500401       -13.6166 
 144   2.0000      -0.498436       -13.5631 
 145   2.0000      -0.496286       -13.5046 
 146   2.0000      -0.494044       -13.4436 
 147   2.0000      -0.493116       -13.4184 
 148   2.0000      -0.487928       -13.2772 
 149   2.0000      -0.466509       -12.6944 
 150   2.0000      -0.460447       -12.5294 
 151   2.0000      -0.452475       -12.3125 
 152   2.0000      -0.447595       -12.1797 
 153   2.0000      -0.443616       -12.0714 
 154   2.0000      -0.441931       -12.0256 
 155   2.0000      -0.440059       -11.9746 
 156   2.0000      -0.432889       -11.7795 
 157   2.0000      -0.425987       -11.5917 
 158   2.0000      -0.391152       -10.6438 
 159   2.0000      -0.385104       -10.4792 
 160   2.0000      -0.373990       -10.1768 
 161   2.0000      -0.369855       -10.0643 
 162   2.0000      -0.369088       -10.0434 
 163   2.0000      -0.359752        -9.7894 
 164   2.0000      -0.350853        -9.5472 
 165   2.0000      -0.343859        -9.3569 
 166   2.0000      -0.338094        -9.2000 
 167   2.0000      -0.334345        -9.0980 
 168   2.0000      -0.323372        -8.7994 
 169   2.0000      -0.299952        -8.1621 
 170   2.0000      -0.293751        -7.9934 
 171   2.0000      -0.288213        -7.8427 
 172   2.0000      -0.286147        -7.7865 
 173   2.0000      -0.257673        -7.0116 
 174   2.0000      -0.242397        -6.5960 
 175   2.0000      -0.186371        -5.0714 
 176   2.0000      -0.176032        -4.7901 
 177   2.0000      -0.063211        -1.7201 
 178   2.0000      -0.052791        -1.4365 
 179   0.0000       0.032779         0.8920 
 180   0.0000       0.068055         1.8519 
 181   0.0000       0.092316         2.5120 
 182   0.0000       0.095733         2.6050 
 183   0.0000       0.123809         3.3690 
 184   0.0000       0.134322         3.6551 
 185   0.0000       0.143735         3.9112 
 186   0.0000       0.151491         4.1223 
 187   0.0000       0.154634         4.2078 
 188   0.0000       0.161740         4.4012 
 189   0.0000       0.162462         4.4208 
 190   0.0000       0.169265         4.6059 
 191   0.0000       0.174934         4.7602 
 192   0.0000       0.194030         5.2798 
 193   0.0000       0.197858         5.3840 
 194   0.0000       0.201675         5.4878 
 195   0.0000       0.206298         5.6136 
 196   0.0000       0.209231         5.6935 
 197   0.0000       0.212918         5.7938 
 198   0.0000       0.215250         5.8572 
 199   0.0000       0.218483         5.9452 
 200   0.0000       0.229658         6.2493 
 201   0.0000       0.237007         6.4493 
 202   0.0000       0.243374         6.6226 
 203   0.0000       0.247094         6.7238 
 204   0.0000       0.248698         6.7674 
 205   0.0000       0.253675         6.9028 
 206   0.0000       0.255762         6.9597 
 207   0.0000       0.261208         7.1078 
 208   0.0000       0.263923         7.1817 
 209   0.0000       0.265068         7.2129 
 210   0.0000       0.266766         7.2591 
 211   0.0000       0.267813         7.2876 
 212   0.0000       0.271476         7.3872 
 213   0.0000       0.274269         7.4632 
 214   0.0000       0.277600         7.5539 
 215   0.0000       0.279529         7.6064 
 216   0.0000       0.282509         7.6875 
 217   0.0000       0.283379         7.7111 
 218   0.0000       0.283673         7.7191 
 219   0.0000       0.287354         7.8193 
 220   0.0000       0.289214         7.8699 
 221   0.0000       0.291928         7.9438 
 222   0.0000       0.294022         8.0008 
 223   0.0000       0.295409         8.0385 
 224   0.0000       0.299485         8.1494 
 225   0.0000       0.301814         8.2128 
 226   0.0000       0.302764         8.2386 
 227   0.0000       0.304900         8.2968 
 228   0.0000       0.307416         8.3652 
 229   0.0000       0.309136         8.4120 
 230   0.0000       0.315589         8.5876 
 231   0.0000       0.317611         8.6426 
 232   0.0000       0.325477         8.8567 
 233   0.0000       0.327493         8.9115 
 234   0.0000       0.331856         9.0303 
 235   0.0000       0.340316         9.2605 
 236   0.0000       0.357690         9.7332 
 237   0.0000       0.380373        10.3505 
 238   0.0000       0.397202        10.8084 
 239   0.0000       0.399117        10.8605 
 240   0.0000       0.404071        10.9953 
 241   0.0000       0.411924        11.2090 
 242   0.0000       0.418182        11.3793 
 243   0.0000       0.423387        11.5210 
 244   0.0000       0.427957        11.6453 
 245   0.0000       0.431188        11.7332 
 246   0.0000       0.433661        11.8005 
 247   0.0000       0.437741        11.9115 
 248   0.0000       0.441825        12.0227 
 249   0.0000       0.445711        12.1284 
 250   0.0000       0.447445        12.1756 
 251   0.0000       0.453419        12.3382 
 252   0.0000       0.454448        12.3662 
 253   0.0000       0.461331        12.5534 
 254   0.0000       0.469754        12.7827 
 255   0.0000       0.477038        12.9809 
 256   0.0000       0.482864        13.1394 
 257   0.0000       0.487053        13.2534 
 258   0.0000       0.490346        13.3430 
 259   0.0000       0.494104        13.4452 
 260   0.0000       0.499015        13.5789 
 261   0.0000       0.503175        13.6921 
 262   0.0000       0.506629        13.7861 
 263   0.0000       0.511240        13.9116 
 264   0.0000       0.511759        13.9257 
 265   0.0000       0.516058        14.0426 
 266   0.0000       0.518026        14.0962 
 267   0.0000       0.522771        14.2253 
 268   0.0000       0.535215        14.5640 
 269   0.0000       0.539331        14.6759 
 270   0.0000       0.542608        14.7651 
 271   0.0000       0.543929        14.8011 
 272   0.0000       0.546205        14.8630 
 273   0.0000       0.551834        15.0162 
 274   0.0000       0.562468        15.3055 
 275   0.0000       0.564111        15.3502 
 276   0.0000       0.575664        15.6646 
 277   0.0000       0.577005        15.7011 
 278   0.0000       0.579048        15.7567 
 279   0.0000       0.582015        15.8374 
 280   0.0000       0.586681        15.9644 
 281   0.0000       0.590317        16.0634 
 282   0.0000       0.593185        16.1414 
 283   0.0000       0.597059        16.2468 
 284   0.0000       0.600992        16.3538 
 285   0.0000       0.601651        16.3717 
 286   0.0000       0.606425        16.5017 
 287   0.0000       0.608833        16.5672 
 288   0.0000       0.611777        16.6473 
 289   0.0000       0.616357        16.7719 
 290   0.0000       0.617820        16.8117 
 291   0.0000       0.628225        17.0949 
 292   0.0000       0.634679        17.2705 
 293   0.0000       0.639429        17.3998 
 294   0.0000       0.646054        17.5800 
 295   0.0000       0.649675        17.6786 
 296   0.0000       0.651526        17.7289 
 297   0.0000       0.660409        17.9707 
 298   0.0000       0.663906        18.0658 
 299   0.0000       0.666499        18.1363 
 300   0.0000       0.668194        18.1825 
 301   0.0000       0.674136        18.3442 
 302   0.0000       0.674751        18.3609 
 303   0.0000       0.682242        18.5647 
 304   0.0000       0.683649        18.6030 
 305   0.0000       0.685584        18.6557 
 306   0.0000       0.688512        18.7354 
 307   0.0000       0.690892        18.8001 
 308   0.0000       0.698055        18.9950 
 309   0.0000       0.700068        19.0498 
 310   0.0000       0.701141        19.0790 
 311   0.0000       0.705311        19.1925 
 312   0.0000       0.707911        19.2632 
 313   0.0000       0.709489        19.3062 
 314   0.0000       0.710041        19.3212 
 315   0.0000       0.713939        19.4273 
 316   0.0000       0.716831        19.5060 
 317   0.0000       0.719444        19.5771 
 318   0.0000       0.719591        19.5811 
 319   0.0000       0.722631        19.6638 
 320   0.0000       0.726194        19.7607 
 321   0.0000       0.727036        19.7836 
 322   0.0000       0.732119        19.9220 
 323   0.0000       0.734147        19.9771 
 324   0.0000       0.735560        20.0156 
 325   0.0000       0.740709        20.1557 
 326   0.0000       0.742083        20.1931 
 327   0.0000       0.743474        20.2310 
 328   0.0000       0.746756        20.3203 
 329   0.0000       0.749459        20.3938 
 330   0.0000       0.753694        20.5091 
 331   0.0000       0.755435        20.5564 
 332   0.0000       0.757181        20.6039 
 333   0.0000       0.759001        20.6535 
 334   0.0000       0.766600        20.8603 
 335   0.0000       0.768688        20.9171 
 336   0.0000       0.772148        21.0112 
 337   0.0000       0.779702        21.2168 
 338   0.0000       0.783964        21.3327 
 339   0.0000       0.787294        21.4234 
 340   0.0000       0.790406        21.5080 
 341   0.0000       0.792571        21.5670 
 342   0.0000       0.795505        21.6468 
 343   0.0000       0.799488        21.7552 
 344   0.0000       0.804847        21.9010 
 345   0.0000       0.806027        21.9331 
 346   0.0000       0.808752        22.0073 
 347   0.0000       0.811489        22.0817 
 348   0.0000       0.814778        22.1712 
 349   0.0000       0.817208        22.2374 
 350   0.0000       0.819719        22.3057 
 351   0.0000       0.820479        22.3264 
 352   0.0000       0.826705        22.4958 
 353   0.0000       0.827927        22.5290 
 354   0.0000       0.828578        22.5468 
 355   0.0000       0.829571        22.5738 
 356   0.0000       0.832120        22.6431 
 357   0.0000       0.834925        22.7195 
 358   0.0000       0.835651        22.7392 
 359   0.0000       0.839106        22.8332 
 360   0.0000       0.839594        22.8465 
 361   0.0000       0.841376        22.8950 
 362   0.0000       0.844108        22.9693 
 363   0.0000       0.846465        23.0335 
 364   0.0000       0.848988        23.1021 
 365   0.0000       0.851443        23.1689 
 366   0.0000       0.852595        23.2003 
 367   0.0000       0.853426        23.2229 
 368   0.0000       0.856930        23.3182 
 369   0.0000       0.860980        23.4285 
 370   0.0000       0.863304        23.4917 
 371   0.0000       0.866134        23.5687 
 372   0.0000       0.873379        23.7659 
 373   0.0000       0.876518        23.8513 
 374   0.0000       0.879821        23.9412 
 375   0.0000       0.884422        24.0664 
 376   0.0000       0.885046        24.0833 
 377   0.0000       0.889638        24.2083 
 378   0.0000       0.890908        24.2429 
 379   0.0000       0.895694        24.3731 
 380   0.0000       0.898537        24.4504 
 381   0.0000       0.901474        24.5304 
 382   0.0000       0.902868        24.5683 
 383   0.0000       0.905445        24.6384 
 384   0.0000       0.906798        24.6752 
 385   0.0000       0.907499        24.6943 
 386   0.0000       0.908501        24.7216 
 387   0.0000       0.909590        24.7512 
 388   0.0000       0.913858        24.8674 
 389   0.0000       0.914813        24.8933 
 390   0.0000       0.917594        24.9690 
 391   0.0000       0.920454        25.0468 
 392   0.0000       0.923220        25.1221 
 393   0.0000       0.925332        25.1796 
 394   0.0000       0.926905        25.2224 
 395   0.0000       0.931191        25.3390 
 396   0.0000       0.931523        25.3480 
 397   0.0000       0.934676        25.4338 
 398   0.0000       0.936851        25.4930 
 399   0.0000       0.941845        25.6289 
 400   0.0000       0.944700        25.7066 
 401   0.0000       0.946548        25.7569 
 402   0.0000       0.948824        25.8188 
 403   0.0000       0.951591        25.8941 
 404   0.0000       0.955532        26.0014 
 405   0.0000       0.956507        26.0279 
 406   0.0000       0.958263        26.0757 
 407   0.0000       0.962806        26.1993 
 408   0.0000       0.966855        26.3095 
 409   0.0000       0.969616        26.3846 
 410   0.0000       0.975745        26.5514 
 411   0.0000       0.977418        26.5969 
 412   0.0000       0.983523        26.7630 
 413   0.0000       0.985211        26.8090 
 414   0.0000       0.991829        26.9890 
 415   0.0000       0.992835        27.0164 
 416   0.0000       1.000488        27.2247 
 417   0.0000       1.003254        27.2999 
 418   0.0000       1.009441        27.4683 
 419   0.0000       1.013656        27.5830 
 420   0.0000       1.024267        27.8717 
 421   0.0000       1.029386        28.0110 
 422   0.0000       1.031614        28.0716 
 423   0.0000       1.038738        28.2655 
 424   0.0000       1.043963        28.4077 
 425   0.0000       1.046975        28.4896 
 426   0.0000       1.055604        28.7244 
 427   0.0000       1.063518        28.9398 
 428   0.0000       1.066555        29.0224 
 429   0.0000       1.070861        29.1396 
 430   0.0000       1.078376        29.3441 
 431   0.0000       1.082008        29.4429 
 432   0.0000       1.086173        29.5563 
 433   0.0000       1.091212        29.6934 
 434   0.0000       1.094892        29.7935 
 435   0.0000       1.103784        30.0355 
 436   0.0000       1.109041        30.1785 
 437   0.0000       1.110585        30.2206 
 438   0.0000       1.114730        30.3334 
 439   0.0000       1.117180        30.4000 
 440   0.0000       1.120678        30.4952 
 441   0.0000       1.125618        30.6296 
 442   0.0000       1.129173        30.7264 
 443   0.0000       1.132008        30.8035 
 444   0.0000       1.134436        30.8696 
 445   0.0000       1.135424        30.8965 
 446   0.0000       1.137473        30.9522 
 447   0.0000       1.140484        31.0342 
 448   0.0000       1.142699        31.0944 
 449   0.0000       1.149156        31.2701 
 450   0.0000       1.151965        31.3466 
 451   0.0000       1.153093        31.3773 
 452   0.0000       1.155606        31.4456 
 453   0.0000       1.159926        31.5632 
 454   0.0000       1.160234        31.5716 
 455   0.0000       1.165847        31.7243 
 456   0.0000       1.176540        32.0153 
 457   0.0000       1.178286        32.0628 
 458   0.0000       1.179358        32.0920 
 459   0.0000       1.184405        32.2293 
 460   0.0000       1.185366        32.2554 
 461   0.0000       1.191556        32.4239 
 462   0.0000       1.198521        32.6134 
 463   0.0000       1.207563        32.8595 
 464   0.0000       1.209401        32.9095 
 465   0.0000       1.211428        32.9646 
 466   0.0000       1.214672        33.0529 
 467   0.0000       1.220584        33.2138 
 468   0.0000       1.222951        33.2782 
 469   0.0000       1.227881        33.4123 
 470   0.0000       1.232099        33.5271 
 471   0.0000       1.232611        33.5411 
 472   0.0000       1.238072        33.6897 
 473   0.0000       1.240516        33.7562 
 474   0.0000       1.243254        33.8307 
 475   0.0000       1.249725        34.0067 
 476   0.0000       1.251479        34.0545 
 477   0.0000       1.253895        34.1202 
 478   0.0000       1.255031        34.1511 
 479   0.0000       1.257304        34.2130 
 480   0.0000       1.259950        34.2850 
 481   0.0000       1.263090        34.3704 
 482   0.0000       1.264868        34.4188 
 483   0.0000       1.269142        34.5351 
 484   0.0000       1.271681        34.6042 
 485   0.0000       1.277593        34.7651 
 486   0.0000       1.281509        34.8716 
 487   0.0000       1.284011        34.9397 
 488   0.0000       1.289140        35.0793 
 489   0.0000       1.291037        35.1309 
 490   0.0000       1.292762        35.1778 
 491   0.0000       1.298776        35.3415 
 492   0.0000       1.301390        35.4126 
 493   0.0000       1.307389        35.5759 
 494   0.0000       1.309538        35.6343 
 495   0.0000       1.316402        35.8211 
 496   0.0000       1.318276        35.8721 
 497   0.0000       1.323069        36.0025 
 498   0.0000       1.330315        36.1997 
 499   0.0000       1.330860        36.2145 
 500   0.0000       1.334366        36.3099 
 501   0.0000       1.337507        36.3954 
 502   0.0000       1.340227        36.4694 
 503   0.0000       1.343787        36.5663 
 504   0.0000       1.345276        36.6068 
 505   0.0000       1.350953        36.7613 
[...]
      pz      :     0.021881  p :     0.079440
      px      :     0.043107
      py      :     0.014452
 77 H s       :     0.891918  s :     0.891918
      pz      :     0.047409  p :     0.078648
      px      :     0.015007
      py      :     0.016232
 78 H s       :     0.892341  s :     0.892341
      pz      :     0.025591  p :     0.078571
      px      :     0.020621
      py      :     0.032358
 79 H s       :     0.908099  s :     0.908099
      pz      :     0.022297  p :     0.086947
      px      :     0.021830
      py      :     0.042821
 80 H s       :     0.874720  s :     0.874720
      pz      :     0.038556  p :     0.083704
      px      :     0.029731
      py      :     0.015418
 81 H s       :     0.887542  s :     0.887542
      pz      :     0.037694  p :     0.083637
      px      :     0.016101
      py      :     0.029842
 82 H s       :     0.914842  s :     0.914842
      pz      :     0.022275  p :     0.086970
      px      :     0.031164
      py      :     0.033531
 83 H s       :     0.872245  s :     0.872245
      pz      :     0.039234  p :     0.083877
      px      :     0.015244
      py      :     0.029399
 84 H s       :     0.887558  s :     0.887558
      pz      :     0.035808  p :     0.083979
      px      :     0.031751
      py      :     0.016419
 85 H s       :     0.894407  s :     0.894407
      pz      :     0.022507  p :     0.079685
      px      :     0.014106
      py      :     0.043073
 86 H s       :     0.890593  s :     0.890593
      pz      :     0.024720  p :     0.078886
      px      :     0.033005
      py      :     0.021160
 87 H s       :     0.890421  s :     0.890421
      pz      :     0.047920  p :     0.078674
      px      :     0.015627
      py      :     0.015127
 88 H s       :     0.916030  s :     0.916030
      pz      :     0.022326  p :     0.086912
      px      :     0.042256
      py      :     0.022331
 89 H s       :     0.872994  s :     0.872994
      pz      :     0.037892  p :     0.083980
      px      :     0.030515
      py      :     0.015573


                      *****************************
                      * MAYER POPULATION ANALYSIS *
                      *****************************

  NA   - Mulliken gross atomic population
  ZA   - Total nuclear charge
  QA   - Mulliken gross atomic charge
  VA   - Mayer's total valence
  BVA  - Mayer's bonded valence
  FA   - Mayer's free valence

  ATOM       NA         ZA         QA         VA         BVA        FA
  0 C      5.7855     6.0000     0.2145     3.8200     3.8200     0.0000
  1 N      7.4329     7.0000    -0.4329     3.4038     3.4038    -0.0000
  2 C      6.0669     6.0000    -0.0669     3.9173     3.9173     0.0000
  3 N      7.3403     7.0000    -0.3403     3.4361     3.4361     0.0000
  4 C      6.0841     6.0000    -0.0841     3.9804     3.9804    -0.0000
  5 N      7.5635     7.0000    -0.5635     3.0790     3.0790    -0.0000
  6 C      6.0428     6.0000    -0.0428     3.9821     3.9821    -0.0000
  7 N      7.3376     7.0000    -0.3376     3.4427     3.4427    -0.0000
  8 C      5.7885     6.0000     0.2115     3.8202     3.8202    -0.0000
  9 N      7.5640     7.0000    -0.5640     3.0875     3.0875     0.0000
 10 C      5.8887     6.0000     0.1113     3.8836     3.8836     0.0000
 11 N      7.4375     7.0000    -0.4375     3.3846     3.3846     0.0000
 12 C      6.0631     6.0000    -0.0631     3.9144     3.9144    -0.0000
 13 N      7.4440     7.0000    -0.4440     3.3568     3.3568     0.0000
 14 C      5.7709     6.0000     0.2291     3.8013     3.8013    -0.0000
 15 N      7.4407     7.0000    -0.4407     3.3704     3.3704     0.0000
 16 C      5.7569     6.0000     0.2431     3.7968     3.7968    -0.0000
 17 C      6.0459     6.0000    -0.0459     3.9848     3.9848    -0.0000
 18 C      6.1866     6.0000    -0.1866     3.7217     3.7217    -0.0000
 19 C      5.7740     6.0000     0.2260     3.8914     3.8914    -0.0000
 20 C      5.7973     6.0000     0.2027     3.8232     3.8232     0.0000
 21 C      6.0694     6.0000    -0.0694     3.9004     3.9004    -0.0000
 22 C      6.0855     6.0000    -0.0855     3.9843     3.9843     0.0000
 23 C      6.0553     6.0000    -0.0553     3.9886     3.9886     0.0000
 24 C      5.7878     6.0000     0.2122     3.8253     3.8253     0.0000
 25 C      5.8863     6.0000     0.1137     3.8898     3.8898     0.0000
 26 C      6.0722     6.0000    -0.0722     3.9034     3.9034    -0.0000
 27 C      5.7682     6.0000     0.2318     3.8921     3.8921     0.0000
 28 C      6.0472     6.0000    -0.0472     3.9882     3.9882     0.0000
 29 C      6.1893     6.0000    -0.1893     3.7306     3.7306     0.0000
 30 C      5.7699     6.0000     0.2301     3.7881     3.7881    -0.0000
 31 C      5.7975     6.0000     0.2025     3.8300     3.8300    -0.0000
 32 C      6.0653     6.0000    -0.0653     3.9157     3.9157    -0.0000
 33 C      6.0895     6.0000    -0.0895     3.9858     3.9858     0.0000
 34 C      6.0498     6.0000    -0.0498     3.9949     3.9949    -0.0000
 35 C      5.8058     6.0000     0.1942     3.8271     3.8271    -0.0000
 36 C      5.8833     6.0000     0.1167     3.8986     3.8986     0.0000
 37 C      6.0678     6.0000    -0.0678     3.9168     3.9168    -0.0000
 38 C      5.7598     6.0000     0.2402     3.7983     3.7983    -0.0000
 39 C      6.0632     6.0000    -0.0632     3.9942     3.9942     0.0000
 40 C      6.1943     6.0000    -0.1943     3.7457     3.7457    -0.0000
 41 C      5.7817     6.0000     0.2183     3.8783     3.8783     0.0000
 42 C      5.7931     6.0000     0.2069     3.8290     3.8290     0.0000
 43 C      6.0750     6.0000    -0.0750     3.9043     3.9043    -0.0000
 44 C      6.0889     6.0000    -0.0889     3.9851     3.9851    -0.0000
 45 C      6.0475     6.0000    -0.0475     3.9934     3.9934     0.0000
 46 C      5.8026     6.0000     0.1974     3.8236     3.8236    -0.0000
 47 C      5.8842     6.0000     0.1158     3.8945     3.8945     0.0000
 48 C      6.0783     6.0000    -0.0783     3.9010     3.9010    -0.0000
 49 C      5.7808     6.0000     0.2192     3.8774     3.8774    -0.0000
 50 C      6.0575     6.0000    -0.0575     3.9899     3.9899    -0.0000
 51 C      6.1902     6.0000    -0.1902     3.7377     3.7377    -0.0000
 52 H      0.9372     1.0000     0.0628     0.9845     0.9845     0.0000
 53 H      1.0123     1.0000    -0.0123     1.0002     1.0002     0.0000
 54 H      0.9479     1.0000     0.0521     1.0063     1.0063    -0.0000
 55 H      0.9379     1.0000     0.0621     0.9849     0.9849     0.0000
 56 H      0.9325     1.0000     0.0675     0.9722     0.9722     0.0000
 57 H      0.9372     1.0000     0.0628     0.9836     0.9836     0.0000
 58 H      0.9381     1.0000     0.0619     0.9866     0.9866     0.0000
 59 H      1.0192     1.0000    -0.0192     0.9976     0.9976    -0.0000
 60 H      0.9500     1.0000     0.0500     1.0082     1.0082    -0.0000
 61 H      0.8259     1.0000     0.1741     1.0429     1.0429    -0.0000
 62 H      0.8287     1.0000     0.1713     1.0434     1.0434    -0.0000
 63 H      0.9434     1.0000     0.0566     0.9856     0.9856     0.0000
 64 H      1.0261     1.0000    -0.0261     0.9942     0.9942     0.0000
 65 H      0.9546     1.0000     0.0454     1.0088     1.0088    -0.0000
 66 H      0.9422     1.0000     0.0578     0.9847     0.9847    -0.0000
 67 H      0.9376     1.0000     0.0624     0.9719     0.9719    -0.0000
 68 H      0.9419     1.0000     0.0581     0.9867     0.9867     0.0000
 69 H      0.9403     1.0000     0.0597     0.9831     0.9831    -0.0000
 70 H      1.0215     1.0000    -0.0215     0.9953     0.9953    -0.0000
 71 H      0.9512     1.0000     0.0488     1.0070     1.0070     0.0000
 72 H      0.9506     1.0000     0.0494     0.9854     0.9854    -0.0000
 73 H      1.0166     1.0000    -0.0166     0.9976     0.9976    -0.0000
 74 H      0.9597     1.0000     0.0403     1.0097     1.0097    -0.0000
 75 H      0.9517     1.0000     0.0483     0.9861     0.9861    -0.0000
 76 H      0.9439     1.0000     0.0561     0.9711     0.9711     0.0000
 77 H      0.9464     1.0000     0.0536     0.9848     0.9848     0.0000
 78 H      0.9472     1.0000     0.0528     0.9843     0.9843    -0.0000
 79 H      1.0128     1.0000    -0.0128     1.0004     1.0004     0.0000
 80 H      0.9597     1.0000     0.0403     1.0068     1.0068     0.0000
 81 H      0.9471     1.0000     0.0529     0.9853     0.9853     0.0000
 82 H      1.0236     1.0000    -0.0236     0.9945     0.9945    -0.0000
 83 H      0.9567     1.0000     0.0433     1.0099     1.0099    -0.0000
 84 H      0.9479     1.0000     0.0521     0.9858     0.9858    -0.0000
 85 H      0.9423     1.0000     0.0577     0.9715     0.9715    -0.0000
 86 H      0.9435     1.0000     0.0565     0.9841     0.9841     0.0000
 87 H      0.9438     1.0000     0.0562     0.9855     0.9855     0.0000
 88 H      1.0257     1.0000    -0.0257     0.9932     0.9932     0.0000
 89 H      0.9565     1.0000     0.0435     1.0064     1.0064    -0.0000

  Mayer bond orders larger than 0.100000
B(  0-C ,  1-N ) :   1.1407 B(  0-C , 17-C ) :   1.5999 B(  0-C , 52-H ) :   0.9687 
B(  1-N ,  8-C ) :   1.1369 B(  1-N , 10-C ) :   0.9514 B(  2-C , 12-C ) :   1.5488 
B(  2-C , 16-C ) :   1.3072 B(  2-C , 53-H ) :   0.9784 B(  3-N , 14-C ) :   1.1923 
B(  3-N , 16-C ) :   1.1985 B(  3-N , 61-H ) :   0.8975 B(  4-C ,  6-C ) :   1.2935 
B(  4-C , 17-C ) :   1.2961 B(  4-C , 18-C ) :   1.1933 B(  5-N , 19-C ) :   1.3997 
B(  5-N , 27-C ) :   1.4210 B(  6-C ,  8-C ) :   1.6023 B(  6-C , 54-H ) :   0.9713 
B(  7-N , 30-C ) :   1.1893 B(  7-N , 38-C ) :   1.2070 B(  7-N , 62-H ) :   0.8992 
B(  8-C , 55-H ) :   0.9698 B(  9-N , 41-C ) :   1.4163 B(  9-N , 49-C ) :   1.4096 
B( 10-C , 56-H ) :   0.9763 B( 10-C , 57-H ) :   0.9820 B( 10-C , 58-H ) :   0.9826 
B( 11-N , 20-C ) :   1.1183 B( 11-N , 24-C ) :   1.1309 B( 11-N , 25-C ) :   0.9579 
B( 12-C , 14-C ) :   1.3081 B( 12-C , 59-H ) :   0.9780 B( 13-N , 31-C ) :   1.1091 
B( 13-N , 35-C ) :   1.0999 B( 13-N , 36-C ) :   0.9678 B( 14-C , 18-C ) :   1.2211 
B( 15-N , 42-C ) :   1.1203 B( 15-N , 46-C ) :   1.1074 B( 15-N , 47-C ) :   0.9631 
B( 16-C , 51-C ) :   1.2156 B( 17-C , 60-H ) :   0.9713 B( 18-C , 19-C ) :   1.2470 
B( 19-C , 21-C ) :   1.1977 B( 20-C , 28-C ) :   1.6216 B( 20-C , 63-H ) :   0.9703 
B( 21-C , 26-C ) :   1.6528 B( 21-C , 64-H ) :   0.9737 B( 22-C , 23-C ) :   1.2764 
B( 22-C , 28-C ) :   1.2796 B( 22-C , 29-C ) :   1.2353 B( 23-C , 24-C ) :   1.6204 
B( 23-C , 65-H ) :   0.9713 B( 24-C , 66-H ) :   0.9690 B( 25-C , 67-H ) :   0.9763 
B( 25-C , 68-H ) :   0.9830 B( 25-C , 69-H ) :   0.9820 B( 26-C , 27-C ) :   1.1981 
B( 26-C , 70-H ) :   0.9740 B( 27-C , 29-C ) :   1.2316 B( 28-C , 71-H ) :   0.9712 
B( 29-C , 30-C ) :   1.2018 B( 30-C , 32-C ) :   1.3236 B( 31-C , 39-C ) :   1.6494 
B( 31-C , 72-H ) :   0.9701 B( 32-C , 37-C ) :   1.5349 B( 32-C , 73-H ) :   0.9774 
B( 33-C , 34-C ) :   1.2605 B( 33-C , 39-C ) :   1.2526 B( 33-C , 40-C ) :   1.2852 
B( 34-C , 35-C ) :   1.6468 B( 34-C , 74-H ) :   0.9706 B( 35-C , 75-H ) :   0.9702 
B( 36-C , 76-H ) :   0.9760 B( 36-C , 77-H ) :   0.9823 B( 36-C , 78-H ) :   0.9834 
B( 37-C , 38-C ) :   1.3229 B( 37-C , 79-H ) :   0.9783 B( 38-C , 40-C ) :   1.1993 
B( 39-C , 80-H ) :   0.9718 B( 40-C , 41-C ) :   1.2001 B( 41-C , 43-C ) :   1.2305 
B( 42-C , 50-C ) :   1.6352 B( 42-C , 81-H ) :   0.9696 B( 43-C , 48-C ) :   1.6207 
B( 43-C , 82-H ) :   0.9743 B( 44-C , 45-C ) :   1.2748 B( 44-C , 50-C ) :   1.2621 
B( 44-C , 51-C ) :   1.2535 B( 45-C , 46-C ) :   1.6317 B( 45-C , 83-H ) :   0.9708 
B( 46-C , 84-H ) :   0.9704 B( 47-C , 85-H ) :   0.9761 B( 47-C , 86-H ) :   0.9827 
B( 47-C , 87-H ) :   0.9827 B( 48-C , 49-C ) :   1.2281 B( 48-C , 88-H ) :   0.9733 
B( 49-C , 51-C ) :   1.2068 B( 50-C , 89-H ) :   0.9716 

-------
TIMINGS
-------

Total SCF time: 0 days 0 hours 23 min 50 sec 

Total time                  ....    1430.075 sec
Sum of individual times     ....    1426.268 sec  ( 99.7%)

Fock matrix formation       ....    1404.919 sec  ( 98.2%)
Diagonalization             ....       6.633 sec  (  0.5%)
Density matrix formation    ....       0.398 sec  (  0.0%)
Population analysis         ....       0.429 sec  (  0.0%)
Initial guess               ....       1.906 sec  (  0.1%)
Orbital Transformation      ....       0.000 sec  (  0.0%)
Orbital Orthonormalization  ....       0.000 sec  (  0.0%)
DIIS solution               ....       2.887 sec  (  0.2%)
SOSCF solution              ....       8.090 sec  (  0.6%)

Maximum memory used throughout the entire SCF-calculation: 302.6 MB


           ************************************************************
           *        Program running with 16 parallel MPI-processes    *
           *              working on a common directory               *
           ************************************************************

------------------------------------------------------------------------------
                                ORCA  MP2 
------------------------------------------------------------------------------

Freezing NCore=104 chemical core electrons

----------
MP2 ENERGY (disk based algorithm)
----------

Dimension of the basis                    ...  918
Memory devoted to MP2                     ... 2000 MB   
Data format for buffers                   ... DOUBLE
Compression type for matrix containers    ... UNCOMPRESSED

-------------------------------
PARTIAL EXCHANGE TRANSFORMATION
-------------------------------

Transformation type                        ... one-operator
Generation of integrals (i,mue|j,nue)      ... ON
Generation of integrals (mue,kappa|nue,tau)... OFF
Generation of integrals (i,mue|a,nue)      ... OFF
Dimension of the basis                     ...  918
Number of internal MOs                     ...  127 (  52- 178)
Pair cutoff                                ... 2.500e-12 Eh
Number of AO pairs in the trafo            ... 421821
Total Number of distinct AO pairs          ... 421821
Memory devoted for trafo                   ... 2000.0 MB 
Max. Number of MO pairs treated together   ...  311      
Number Format for Storage                  ... Double (8 Byte)
Integral package used                      ... LIBINT

Starting integral evaluation:
    ... done with AO integral generation
Closing buffer AOK     (38.09 GB; CompressionRatio= 1.33)
Collecting buffer AOK 
Number of MO pairs included in the trafo   ... 8128
------------------------
SORTING OF (i,mue|j,nue)
------------------------

IBATCH = 1 of  2
IBATCH = 2 of  2
Closing buffer KAO     (51.03 GB; CompressionRatio= 1.00)
Collecting buffer KAO 
N(AO-Batches) Done                         ...  85514422 
N(AO-Batches) Skipped                      ...  82135461 
N(IJ)-pairs Skipped                        ...         0 
TOTAL TIME for half transformation         ...  2753.408 sec
AO-integral generation                     ...   176.684 sec
Half transformation                        ...   315.515 sec
K-integral sorting                         ...  2120.732 sec
Process 13:   Internal MO 156
Process 10:   Internal MO 132
Process  4:   Internal MO  84

Finished integral transformation - now doing MP2 part

OPERATOR COMBINATION   0   0: ij=( 52..178, 52..178)
Process  7:   Internal MO 108
Process  1:   Internal MO  60
Process  0:   Internal MO  54
Process  2:   Internal MO  69
Process  0:   Internal MO  57
Process  5:   Internal MO  93
Process  3:   Internal MO  78
Process  2:   Internal MO  72
Process  8:   Internal MO 117
Process  4:   Internal MO  87
Process 14:   Internal MO 165
Process 11:   Internal MO 141
Process  2:   Internal MO  75
Process  1:   Internal MO  63
Process  3:   Internal MO  81
Process  6:   Internal MO 102
Process  9:   Internal MO 126
Process  1:   Internal MO  66
Process  5:   Internal MO  96
Process  7:   Internal MO 111
Process 10:   Internal MO 135
Process  4:   Internal MO  90
Process  8:   Internal MO 120
Process 12:   Internal MO 150
Process 15:   Internal MO 174
Process  6:   Internal MO 105
Process  5:   Internal MO  99
Process  9:   Internal MO 129
Process  7:   Internal MO 114
Process 13:   Internal MO 159
Process 11:   Internal MO 144
Process  8:   Internal MO 123
Process 10:   Internal MO 138
Process 14:   Internal MO 168
Process 12:   Internal MO 153
Process 15:   Internal MO 177
Process 11:   Internal MO 147
Process 13:   Internal MO 162
Process 14:   Internal MO 171
-----------------------------------------------
 MP2 CORRELATION ENERGY   :     -7.287780810 Eh
-----------------------------------------------


-------
TIMINGS
-------
Total time                : 3042.070 sec
Integral trafo            : 2755.196 sec ( 90.6%)
K(i,j)                    :    6.785 sec (  0.2%)
T(i,j)                    :    0.089 sec (  0.0%)

---------------------------------------
MP2 TOTAL ENERGY:    -2130.906683005 Eh
---------------------------------------

Maximum memory used throughout the entire MP2-calculation: 2275.2 MB

-------------------------   --------------------
FINAL SINGLE POINT ENERGY     -2130.906683005445
-------------------------   --------------------


                            ***************************************
                            *     ORCA property calculations      *
                            ***************************************


  WARNING: The energy has been calculated at the MP2 level but the densities
           used in the property calculations are still SCF densities
           MP2 response densities have not been calculated 
           use %mp2 Density relaxed end
           or  %mp2 Density unrelaxed end

                                    ---------------------
                                    Active property flags
                                    ---------------------
   (+) Dipole Moment


------------------------------------------------------------------------------
                       ORCA ELECTRIC PROPERTIES CALCULATION
------------------------------------------------------------------------------

Dipole Moment Calculation                       ... on
Quadrupole Moment Calculation                   ... off
Polarizability Calculation                      ... off
GBWName                                         ... /scratch/allen/tmpyp4_amber_gaff2/conf1/conf1/Conf112.orca.gbw
Electron density                                ... /scratch/allen/tmpyp4_amber_gaff2/conf1/conf1/Conf112.orca.scfp
The origin for moment calculation is the CENTER OF MASS  = ( 0.002489, -0.002468  0.003450)

-------------
DIPOLE MOMENT
-------------
                                X             Y             Z
Electronic contribution:     -1.74654       1.13427      -0.19052
Nuclear contribution   :     -0.00650       0.18065       0.22387
                        -----------------------------------------
Total Dipole Moment    :     -1.75304       1.31492       0.03335
                        -----------------------------------------
Magnitude (a.u.)       :      2.19164
Magnitude (Debye)      :      5.57071



--------------------
Rotational spectrum 
--------------------
 
Rotational constants in cm-1:     0.001498     0.001473     0.000762 
Rotational constants in MHz :    44.905138    44.170950    22.858913 

 Dipole components along the rotational axes: 
x,y,z [a.u.] :    -2.114858     0.574101     0.032698 
x,y,z [Debye]:    -5.375541     1.459248     0.083113 

 

Timings for individual modules:

Sum of individual times         ...     4495.999 sec (=  74.933 min)
GTO integral calculation        ...        2.640 sec (=   0.044 min)   0.1 %
SCF iterations                  ...     1431.005 sec (=  23.850 min)  31.8 %
MP2 module                      ...     3062.355 sec (=  51.039 min)  68.1 %
                             ****ORCA TERMINATED NORMALLY****
TOTAL RUN TIME: 0 days 1 hours 14 minutes 59 seconds 366 msec
# of primitive gaussian functions

