
                                 *****************
                                 * O   R   C   A *
                                 *****************

                                            #,                                       
                                            ###                                      
                                            ####                                     
                                            #####                                    
                                            ######                                   
                                           ########,                                 
                                     ,,################,,,,,                         
                               ,,#################################,,                 
                          ,,##########################################,,             
                       ,#########################################, ''#####,          
                    ,#############################################,,   '####,        
                  ,##################################################,,,,####,       
                ,###########''''           ''''###############################       
              ,#####''   ,,,,##########,,,,          '''####'''          '####       
            ,##' ,,,,###########################,,,                        '##       
           ' ,,###''''                  '''############,,,                           
         ,,##''                                '''############,,,,        ,,,,,,###''
      ,#''                                            '''#######################'''  
     '                                                          ''''####''''         
             ,#######,   #######,   ,#######,      ##                                
            ,#'     '#,  ##    ##  ,#'     '#,    #''#        ######   ,####,        
            ##       ##  ##   ,#'  ##            #'  '#       #        #'  '#        
            ##       ##  #######   ##           ,######,      #####,   #    #        
            '#,     ,#'  ##    ##  '#,     ,#' ,#      #,         ##   #,  ,#        
             '#######'   ##     ##  '#######'  #'      '#     #####' # '####'        



                  #######################################################
                  #                        -***-                        #
                  #          Department of theory and spectroscopy      #
                  #    Directorship and core code : Frank Neese         #
                  #        Max Planck Institute fuer Kohlenforschung    #
                  #                Kaiser Wilhelm Platz 1               #
                  #                 D-45470 Muelheim/Ruhr               #
                  #                      Germany                        #
                  #                                                     #
                  #                  All rights reserved                #
                  #                        -***-                        #
                  #######################################################


                         Program Version 5.0.4 -  RELEASE  -


 With contributions from (in alphabetic order):
   Daniel Aravena         : Magnetic Suceptibility
   Michael Atanasov       : Ab Initio Ligand Field Theory (pilot matlab implementation)
   Alexander A. Auer      : GIAO ZORA, VPT2 properties, NMR spectrum
   Ute Becker             : Parallelization
   Giovanni Bistoni       : ED, misc. LED, open-shell LED, HFLD
   Martin Brehm           : Molecular dynamics
   Dmytro Bykov           : SCF Hessian
   Vijay G. Chilkuri      : MRCI spin determinant printing, contributions to CSF-ICE
   Dipayan Datta          : RHF DLPNO-CCSD density
   Achintya Kumar Dutta   : EOM-CC, STEOM-CC
   Dmitry Ganyushin       : Spin-Orbit,Spin-Spin,Magnetic field MRCI
   Miquel Garcia          : C-PCM and meta-GGA Hessian, CC/C-PCM, Gaussian charge scheme
   Yang Guo               : DLPNO-NEVPT2, F12-NEVPT2, CIM, IAO-localization
   Andreas Hansen         : Spin unrestricted coupled pair/coupled cluster methods
   Benjamin Helmich-Paris : MC-RPA, TRAH-SCF, COSX integrals
   Lee Huntington         : MR-EOM, pCC
   Robert Izsak           : Overlap fitted RIJCOSX, COSX-SCS-MP3, EOM
   Marcus Kettner         : VPT2
   Christian Kollmar      : KDIIS, OOCD, Brueckner-CCSD(T), CCSD density, CASPT2, CASPT2-K
   Simone Kossmann        : Meta GGA functionals, TD-DFT gradient, OOMP2, MP2 Hessian
   Martin Krupicka        : Initial AUTO-CI
   Lucas Lang             : DCDCAS
   Marvin Lechner         : AUTO-CI (C++ implementation), FIC-MRCC
   Dagmar Lenk            : GEPOL surface, SMD
   Dimitrios Liakos       : Extrapolation schemes; Compound Job, initial MDCI parallelization
   Dimitrios Manganas     : Further ROCIS development; embedding schemes
   Dimitrios Pantazis     : SARC Basis sets
   Anastasios Papadopoulos: AUTO-CI, single reference methods and gradients
   Taras Petrenko         : DFT Hessian,TD-DFT gradient, ASA, ECA, R-Raman, ABS, FL, XAS/XES, NRVS
   Peter Pinski           : DLPNO-MP2, DLPNO-MP2 Gradient
   Christoph Reimann      : Effective Core Potentials
   Marius Retegan         : Local ZFS, SOC
   Christoph Riplinger    : Optimizer, TS searches, QM/MM, DLPNO-CCSD(T), (RO)-DLPNO pert. Triples
   Tobias Risthaus        : Range-separated hybrids, TD-DFT gradient, RPA, STAB
   Michael Roemelt        : Original ROCIS implementation
   Masaaki Saitow         : Open-shell DLPNO-CCSD energy and density
   Barbara Sandhoefer     : DKH picture change effects
   Avijit Sen             : IP-ROCIS
   Kantharuban Sivalingam : CASSCF convergence, NEVPT2, FIC-MRCI
   Bernardo de Souza      : ESD, SOC TD-DFT
   Georgi Stoychev        : AutoAux, RI-MP2 NMR, DLPNO-MP2 response
   Willem Van den Heuvel  : Paramagnetic NMR
   Boris Wezisla          : Elementary symmetry handling
   Frank Wennmohs         : Technical directorship


 We gratefully acknowledge several colleagues who have allowed us to
 interface, adapt or use parts of their codes:
   Stefan Grimme, W. Hujo, H. Kruse, P. Pracht,  : VdW corrections, initial TS optimization,
                  C. Bannwarth, S. Ehlert          DFT functionals, gCP, sTDA/sTD-DF
   Ed Valeev, F. Pavosevic, A. Kumar             : LibInt (2-el integral package), F12 methods
   Garnet Chan, S. Sharma, J. Yang, R. Olivares  : DMRG
   Ulf Ekstrom                                   : XCFun DFT Library
   Mihaly Kallay                                 : mrcc  (arbitrary order and MRCC methods)
   Jiri Pittner, Ondrej Demel                    : Mk-CCSD
   Frank Weinhold                                : gennbo (NPA and NBO analysis)
   Christopher J. Cramer and Donald G. Truhlar   : smd solvation model
   Lars Goerigk                                  : TD-DFT with DH, B97 family of functionals
   V. Asgeirsson, H. Jonsson                     : NEB implementation
   FAccTs GmbH                                   : IRC, NEB, NEB-TS, DLPNO-Multilevel, CI-OPT
                                                   MM, QMMM, 2- and 3-layer-ONIOM, Crystal-QMMM,
                                                   LR-CPCM, SF, NACMEs, symmetry and pop. for TD-DFT,
                                                   nearIR, NL-DFT gradient (VV10), updates on ESD,
                                                   ML-optimized integration grids
   S Lehtola, MJT Oliveira, MAL Marques          : LibXC Library
   Liviu Ungur et al                             : ANISO software


 Your calculation uses the libint2 library for the computation of 2-el integrals
 For citations please refer to: http://libint.valeyev.net

 Your ORCA version has been built with support for libXC version: 5.1.0
 For citations please refer to: https://tddft.org/programs/libxc/

 This ORCA versions uses:
   CBLAS   interface :  Fast vector & matrix operations
   LAPACKE interface :  Fast linear algebra routines
   SCALAPACK package :  Parallel linear algebra routines
   Shared memory     :  Shared parallel matrices
   BLAS/LAPACK       :  OpenBLAS 0.3.15  USE64BITINT DYNAMIC_ARCH NO_AFFINITY Sandybridge SINGLE_THREADED
        Core in use  :  Sandybridge
   Copyright (c) 2011-2014, The OpenBLAS Project


================================================================================

----- Orbital basis set information -----
Your calculation utilizes the basis: cc-pVDZ 
       H, B-Ne : Obtained from the ccRepo (grant-hill.group.shef.ac.uk/ccrepo) Feb. 2017
                 T. H. Dunning, Jr., J. Chem. Phys. 90, 1007 (1989)
            He : Obtained from the ccRepo (grant-hill.group.shef.ac.uk/ccrepo) Feb. 2017
                 D. E. Woon, T. H. Dunning, Jr., J. Chem. Phys. 100, 2975 (1994)
  Li-Be, Na-Mg : Obtained from the ccRepo (grant-hill.group.shef.ac.uk/ccrepo) Feb. 2017
                 B. P. Prascher, D. E. Woon, K. A. Peterson, T. H. Dunning, Jr., A. K. Wilson, Theor. Chem. Acc. 128, 69 (2011)
         Al-Ar : Obtained from the ccRepo (grant-hill.group.shef.ac.uk/ccrepo) Feb. 2017
                 D. E. Woon, T. H. Dunning, Jr., J. Chem. Phys. 98, 1358 (1993)
            Ca : Obtained from the Peterson Research Group Website (tyr0.chem.wsu.edu/~kipeters) Feb. 2017
                 J. Koput, K. A. Peterson, J. Phys. Chem. 106, 9595 (2002)
         Sc-Zn : Obtained from the ccRepo (grant-hill.group.shef.ac.uk/ccrepo) Feb. 2017
                 N. B. Balabanov, K. A. Peterson, J. Chem. Phys. 123, 064107 (2005)
                 N. B. Balabanov, K. A. Peterson, J. Chem. Phys. 125, 074110 (2006)
         Ga-Kr : Obtained from the ccRepo (grant-hill.group.shef.ac.uk/ccrepo) Feb. 2017
                 A. K. Wilson, D. E. Woon, K. A. Peterson, T. H. Dunning, Jr., J. Chem. Phys. 110, 7667 (1999)

================================================================================
                                        WARNINGS
                       Please study these warnings very carefully!
================================================================================


WARNING: No MP2 level density has been requested!
         To caclulate MP2 level properties use
         %mp2 Density relaxed end
         or
         %mp2 Density unrelaxed end

WARNING: Post HF methods need fully converged wavefunctions
  ===> : Setting SCFConvForced true
         You can overwrite this default with %scf ConvForced false 


INFO   : the flag for use of the SHARK integral package has been found!

================================================================================
                                       INPUT FILE
================================================================================
NAME = /scratch/allen/tmpyp4_amber_gaff2/2.Mdgx/conf11/conf11/Conf349.orca
|  1> ! PAL2
|  2> ! mp2 cc-pvdz TightSCF  NoKeepInts
|  3> 
|  4> %scf
|  5>   MaxCore 2000
|  6> end
|  7> %mp2
|  8>   MaxCore 2000
|  9> end
| 10> * xyz 0 1
| 11>    C       -3.05800         6.47300         0.35500
| 12>    C        1.47400         4.04100         0.05700
| 13>    C       -2.80200         4.09300         0.04900
| 14>    C       -4.18100         4.02900        -0.20200
| 15>    C       -4.94600         5.17800        -0.17000
| 16>    C       -5.22400         7.59500         0.09800
| 17>    C        0.13200         4.30700         0.06100
| 18>    C       -0.56900         3.05600         0.04700
| 19>    C        1.64900         2.61800         0.02300
| 20>    C       -2.25000         5.35300         0.32800
| 21>    N       -4.38400         6.37700         0.10900
| 22>    N        0.38800         2.06700         0.02500
| 23>    N       -2.01000         0.39500        -0.07500
| 24>    N       -0.38800        -2.07400        -0.02700
| 25>    N        2.01000        -0.40100         0.06500
| 26>    C       -1.96000         2.86100         0.02400
| 27>    C       -2.62300         1.61500        -0.01800
| 28>    C       -5.57300        -4.32900         1.06600
| 29>    C       -4.07300         1.47100         0.05600
| 30>    C       -4.10600        -2.75600        -0.02600
| 31>    C       -4.99500        -2.75700        -1.11100
| 32>    C       -6.13200        -3.54200        -1.07600
| 33>    C       -7.65100        -5.11300         0.04000
| 34>    C       -4.32400         0.14100         0.03700
| 35>    C       -3.02500        -0.52000        -0.04800
| 36>    C       -4.42200        -3.56600         1.07500
| 37>    N       -6.40700        -4.31300         0.00100
| 38>    C       -2.86700        -1.92200        -0.04000
| 39>    C       -1.65000        -2.62400        -0.02700
| 40>    C        3.56800        -6.14200        -1.04000
| 41>    C       -1.47600        -4.04900        -0.03400
| 42>    C        2.80300        -4.09900        -0.00800
| 43>    C        3.65700        -4.38400         1.06900
| 44>    C        4.42700        -5.53000         1.05900
| 45>    C        5.24500        -7.58800         0.01400
| 46>    C       -0.13400        -4.31500        -0.02200
| 47>    C        0.56800        -3.06400        -0.02700
| 48>    C        2.77500        -5.01200        -1.07400
| 49>    N        4.37600        -6.39100         0.01700
| 50>    C        1.95900        -2.86900        -0.00900
| 51>    C        2.62100        -1.62200         0.00900
| 52>    C        5.54300         4.33900        -1.13000
| 53>    C        4.07000        -1.47900        -0.09400
| 54>    C        4.10400         2.75100        -0.02100
| 55>    C        5.02700         2.72900         1.03600
| 56>    C        6.16600         3.50900         0.97800
| 57>    C        7.61900         5.15300        -0.11500
| 58>    C        4.32100        -0.14800        -0.09200
| 59>    C        3.02500         0.51400         0.01500
| 60>    C        4.38700         3.58200        -1.11500
| 61>    C        2.86600         1.91600         0.01300
| 62>    N        6.41300         4.29600        -0.09500
| 63>    H       -2.67700         7.46200         0.57800
| 64>    H        2.27400         4.76600         0.08100
| 65>    H       -4.66400         3.08700        -0.43400
| 66>    H       -6.01100         5.17900        -0.36600
| 67>    H       -5.28300         7.97800        -0.92300
| 68>    H       -6.21900         7.33800         0.46000
| 69>    H       -4.77000         8.34000         0.75100
| 70>    H       -0.33200         5.28200         0.06900
| 71>    H       -1.19400         5.46600         0.54500
| 72>    H        0.18200         1.07200         0.00500
| 73>    H       -0.18300        -1.08000        -0.02100
| 74>    H       -5.86400        -4.96200         1.89500
| 75>    H       -4.79400         2.27200         0.13900
| 76>    H       -4.80000        -2.16000        -1.99400
| 77>    H       -6.84100        -3.58200        -1.89300
| 78>    H       -8.42800        -4.53600         0.54600
| 79>    H       -7.95600        -5.33700        -0.98100
| 80>    H       -7.45600        -6.03700         0.58400
| 81>    H       -5.28700        -0.34400         0.10000
| 82>    H       -3.78000        -3.60100         1.94700
| 83>    H        3.58700        -6.86800        -1.84300
| 84>    H       -2.27600        -4.77400        -0.05000
| 85>    H        3.71400        -3.72400         1.92600
| 86>    H        5.09200        -5.79500         1.87100
| 87>    H        6.20500        -7.32900        -0.43900
| 88>    H        5.39300        -7.91700         1.04200
| 89>    H        4.75900        -8.37300        -0.56400
| 90>    H        0.32900        -5.29000        -0.00800
| 91>    H        2.14600        -4.84200        -1.94000
| 92>    H        5.80800         4.98600        -1.95600
| 93>    H        4.78800        -2.28100        -0.18500
| 94>    H        4.86000         2.11400         1.91200
| 95>    H        6.90100         3.53100         1.77200
| 96>    H        7.38300         6.10900         0.35600
| 97>    H        8.41400         4.65200         0.43500
| 98>    H        7.92100         5.31000        -1.15000
| 99>    H        5.28300         0.33600        -0.17900
|100>    H        3.72000         3.63200        -1.96700
|101> *
|102> 
|103>                          ****END OF INPUT****
================================================================================

                       ****************************
                       * Single Point Calculation *
                       ****************************

---------------------------------
CARTESIAN COORDINATES (ANGSTROEM)
---------------------------------
  C     -3.058000    6.473000    0.355000
  C      1.474000    4.041000    0.057000
  C     -2.802000    4.093000    0.049000
  C     -4.181000    4.029000   -0.202000
  C     -4.946000    5.178000   -0.170000
  C     -5.224000    7.595000    0.098000
  C      0.132000    4.307000    0.061000
  C     -0.569000    3.056000    0.047000
  C      1.649000    2.618000    0.023000
  C     -2.250000    5.353000    0.328000
  N     -4.384000    6.377000    0.109000
  N      0.388000    2.067000    0.025000
  N     -2.010000    0.395000   -0.075000
  N     -0.388000   -2.074000   -0.027000
  N      2.010000   -0.401000    0.065000
  C     -1.960000    2.861000    0.024000
  C     -2.623000    1.615000   -0.018000
  C     -5.573000   -4.329000    1.066000
  C     -4.073000    1.471000    0.056000
  C     -4.106000   -2.756000   -0.026000
  C     -4.995000   -2.757000   -1.111000
  C     -6.132000   -3.542000   -1.076000
  C     -7.651000   -5.113000    0.040000
  C     -4.324000    0.141000    0.037000
  C     -3.025000   -0.520000   -0.048000
  C     -4.422000   -3.566000    1.075000
  N     -6.407000   -4.313000    0.001000
  C     -2.867000   -1.922000   -0.040000
  C     -1.650000   -2.624000   -0.027000
  C      3.568000   -6.142000   -1.040000
  C     -1.476000   -4.049000   -0.034000
  C      2.803000   -4.099000   -0.008000
  C      3.657000   -4.384000    1.069000
  C      4.427000   -5.530000    1.059000
  C      5.245000   -7.588000    0.014000
  C     -0.134000   -4.315000   -0.022000
  C      0.568000   -3.064000   -0.027000
  C      2.775000   -5.012000   -1.074000
  N      4.376000   -6.391000    0.017000
  C      1.959000   -2.869000   -0.009000
  C      2.621000   -1.622000    0.009000
  C      5.543000    4.339000   -1.130000
  C      4.070000   -1.479000   -0.094000
  C      4.104000    2.751000   -0.021000
  C      5.027000    2.729000    1.036000
  C      6.166000    3.509000    0.978000
  C      7.619000    5.153000   -0.115000
  C      4.321000   -0.148000   -0.092000
  C      3.025000    0.514000    0.015000
  C      4.387000    3.582000   -1.115000
  C      2.866000    1.916000    0.013000
  N      6.413000    4.296000   -0.095000
  H     -2.677000    7.462000    0.578000
  H      2.274000    4.766000    0.081000
  H     -4.664000    3.087000   -0.434000
  H     -6.011000    5.179000   -0.366000
  H     -5.283000    7.978000   -0.923000
  H     -6.219000    7.338000    0.460000
  H     -4.770000    8.340000    0.751000
  H     -0.332000    5.282000    0.069000
  H     -1.194000    5.466000    0.545000
  H      0.182000    1.072000    0.005000
  H     -0.183000   -1.080000   -0.021000
  H     -5.864000   -4.962000    1.895000
  H     -4.794000    2.272000    0.139000
  H     -4.800000   -2.160000   -1.994000
  H     -6.841000   -3.582000   -1.893000
  H     -8.428000   -4.536000    0.546000
  H     -7.956000   -5.337000   -0.981000
  H     -7.456000   -6.037000    0.584000
  H     -5.287000   -0.344000    0.100000
  H     -3.780000   -3.601000    1.947000
  H      3.587000   -6.868000   -1.843000
  H     -2.276000   -4.774000   -0.050000
  H      3.714000   -3.724000    1.926000
  H      5.092000   -5.795000    1.871000
  H      6.205000   -7.329000   -0.439000
  H      5.393000   -7.917000    1.042000
  H      4.759000   -8.373000   -0.564000
  H      0.329000   -5.290000   -0.008000
  H      2.146000   -4.842000   -1.940000
  H      5.808000    4.986000   -1.956000
  H      4.788000   -2.281000   -0.185000
  H      4.860000    2.114000    1.912000
  H      6.901000    3.531000    1.772000
  H      7.383000    6.109000    0.356000
  H      8.414000    4.652000    0.435000
  H      7.921000    5.310000   -1.150000
  H      5.283000    0.336000   -0.179000
  H      3.720000    3.632000   -1.967000

----------------------------
CARTESIAN COORDINATES (A.U.)
----------------------------
  NO LB      ZA    FRAG     MASS         X           Y           Z
   0 C     6.0000    0    12.011   -5.778783   12.232197    0.670853
   1 C     6.0000    0    12.011    2.785456    7.636383    0.107714
   2 C     6.0000    0    12.011   -5.295013    7.734649    0.092597
   3 C     6.0000    0    12.011   -7.900945    7.613707   -0.381725
   4 C     6.0000    0    12.011   -9.346585    9.785002   -0.321253
   5 C     6.0000    0    12.011   -9.871929   14.352470    0.185193
   6 C     6.0000    0    12.011    0.249444    8.139050    0.115273
   7 C     6.0000    0    12.011   -1.075254    5.775003    0.088817
   8 C     6.0000    0    12.011    3.116158    4.947303    0.043464
   9 C     6.0000    0    12.011   -4.251884   10.115704    0.619830
  10 N     7.0000    0    14.007   -8.284559   12.050784    0.205980
  11 N     7.0000    0    14.007    0.733214    3.906064    0.047243
  12 N     7.0000    0    14.007   -3.798350    0.746442   -0.141729
  13 N     7.0000    0    14.007   -0.733214   -3.919292   -0.051023
  14 N     7.0000    0    14.007    3.798350   -0.757780    0.122832
  15 C     6.0000    0    12.011   -3.703863    5.406506    0.045353
  16 C     6.0000    0    12.011   -4.956752    3.051908   -0.034015
  17 C     6.0000    0    12.011  -10.531444   -8.180624    2.014448
  18 C     6.0000    0    12.011   -7.696855    2.779787    0.105825
  19 C     6.0000    0    12.011   -7.759216   -5.208085   -0.049133
  20 C     6.0000    0    12.011   -9.439182   -5.209975   -2.099486
  21 C     6.0000    0    12.011  -11.587801   -6.693410   -2.033345
  22 C     6.0000    0    12.011  -14.458295   -9.662170    0.075589
  23 C     6.0000    0    12.011   -8.171176    0.266451    0.069920
  24 C     6.0000    0    12.011   -5.716422   -0.982658   -0.090707
  25 C     6.0000    0    12.011   -8.356369   -6.738763    2.031456
  26 N     7.0000    0    14.007  -12.107475   -8.150389    0.001890
  27 C     6.0000    0    12.011   -5.417845   -3.632054   -0.075589
  28 C     6.0000    0    12.011   -3.118048   -4.958641   -0.051023
  29 C     6.0000    0    12.011    6.742543  -11.606698   -1.965315
  30 C     6.0000    0    12.011   -2.789236   -7.651501   -0.064251
  31 C     6.0000    0    12.011    5.296902   -7.745987   -0.015118
  32 C     6.0000    0    12.011    6.910728   -8.284559    2.020117
  33 C     6.0000    0    12.011    8.365818  -10.450186    2.001220
  34 C     6.0000    0    12.011    9.911614  -14.339242    0.026456
  35 C     6.0000    0    12.011   -0.253223   -8.154168   -0.041574
  36 C     6.0000    0    12.011    1.073364   -5.790121   -0.051023
  37 C     6.0000    0    12.011    5.243990   -9.471307   -2.029566
  38 N     7.0000    0    14.007    8.269442  -12.077240    0.032125
  39 C     6.0000    0    12.011    3.701973   -5.421624   -0.017008
  40 C     6.0000    0    12.011    4.952972   -3.065136    0.017008
  41 C     6.0000    0    12.011   10.474752    8.199522   -2.135391
  42 C     6.0000    0    12.011    7.691185   -2.794905   -0.177634
  43 C     6.0000    0    12.011    7.755436    5.198637   -0.039684
  44 C     6.0000    0    12.011    9.499653    5.157063    1.957756
  45 C     6.0000    0    12.011   11.652051    6.631049    1.848152
  46 C     6.0000    0    12.011   14.397823    9.737759   -0.217319
  47 C     6.0000    0    12.011    8.165507   -0.279679   -0.173855
  48 C     6.0000    0    12.011    5.716422    0.971319    0.028346
  49 C     6.0000    0    12.011    8.290229    6.768999   -2.107045
  50 C     6.0000    0    12.011    5.415955    3.620715    0.024566
  51 N     7.0000    0    14.007   12.118814    8.118263   -0.179524
  52 H     1.0000    0     1.008   -5.058797   14.101136    1.092262
  53 H     1.0000    0     1.008    4.297237    9.006435    0.153068
  54 H     1.0000    0     1.008   -8.813683    5.833585   -0.820141
  55 H     1.0000    0     1.008  -11.359144    9.786892   -0.691640
  56 H     1.0000    0     1.008   -9.983423   15.076235   -1.744217
  57 H     1.0000    0     1.008  -11.752207   13.866810    0.869274
  58 H     1.0000    0     1.008   -9.013994   15.760316    1.419184
  59 H     1.0000    0     1.008   -0.627389    9.981533    0.130391
  60 H     1.0000    0     1.008   -2.256333   10.329243    1.029901
  61 H     1.0000    0     1.008    0.343930    2.025786    0.009449
  62 H     1.0000    0     1.008   -0.345820   -2.040904   -0.039684
  63 H     1.0000    0     1.008  -11.081354   -9.376821    3.581031
  64 H     1.0000    0     1.008   -9.059347    4.293458    0.262672
  65 H     1.0000    0     1.008   -9.070685   -4.081808   -3.768114
  66 H     1.0000    0     1.008  -12.927616   -6.768999   -3.577252
  67 H     1.0000    0     1.008  -15.926612   -8.571798    1.031790
  68 H     1.0000    0     1.008  -15.034661  -10.085468   -1.853821
  69 H     1.0000    0     1.008  -14.089798  -11.408277    1.103600
  70 H     1.0000    0     1.008   -9.990982   -0.650066    0.188973
  71 H     1.0000    0     1.008   -7.143165   -6.804904    3.679297
  72 H     1.0000    0     1.008    6.778448  -12.978639   -3.482765
  73 H     1.0000    0     1.008   -4.301017   -9.021553   -0.094486
  74 H     1.0000    0     1.008    7.018443   -7.037340    3.639613
  75 H     1.0000    0     1.008    9.622485  -10.950963    3.535678
  76 H     1.0000    0     1.008   11.725751  -13.849803   -0.829590
  77 H     1.0000    0     1.008   10.191293  -14.960962    1.969095
  78 H     1.0000    0     1.008    8.993207  -15.822677   -1.065806
  79 H     1.0000    0     1.008    0.621720   -9.996651   -0.015118
  80 H     1.0000    0     1.008    4.055352   -9.150054   -3.666069
  81 H     1.0000    0     1.008   10.975529    9.422175   -3.696304
  82 H     1.0000    0     1.008    9.048009   -4.310465   -0.349599
  83 H     1.0000    0     1.008    9.184069    3.994881    3.613156
  84 H     1.0000    0     1.008   13.041000    6.672623    3.348595
  85 H     1.0000    0     1.008   13.951848   11.544337    0.672743
  86 H     1.0000    0     1.008   15.900156    8.791006    0.822031
  87 H     1.0000    0     1.008   14.968521   10.034446   -2.173185
  88 H     1.0000    0     1.008    9.983423    0.634948   -0.338261
  89 H     1.0000    0     1.008    7.029781    6.863485   -3.717091

--------------------------------
INTERNAL COORDINATES (ANGSTROEM)
--------------------------------
 C      0   0   0     0.000000000000     0.00000000     0.00000000
 C      1   0   0     5.151936723214     0.00000000     0.00000000
 C      1   2   0     2.413207823624    55.51350587     0.00000000
 C      3   1   2     1.403117243854    87.90301558   189.69161987
 C      4   3   1     1.380742553846   120.16046756     0.15765646
 C      5   4   3     2.447651323208   152.52417535     1.61742889
 C      2   1   3     1.368114030335    17.28696346     3.59224655
 C      7   2   1     1.434084376876   108.05010202   190.03328796
 C      2   1   3     1.434123425651   125.24737138   352.75720785
 C      1   2   3     1.381301198146    26.04431419    10.80482906
 N      1   2   3     1.352038460991   144.95346149   342.98587195
 N      9   2   1     1.376127174356   106.58526707     2.60898950
 N     12   9   2     2.925062050624   168.53581413   171.12065651
 N     13  12   9     2.954513327098    91.55032014    11.12112580
 N     14  13  12     2.925371258490    88.43092389   359.84326247
 C      8   7   2     1.404790019896   127.24786865   181.11170171
 C     13  12   9     1.366535034311    81.72106996   188.00453233
 C     14  13  12     5.758810554272    80.56209567   166.76250791
 C     17  13  12     1.459010623676   111.08861209   183.82872609
 C     18  14  13     2.412235892279    27.27532823    36.33507194
 C     20  18  14     1.402692767501    87.95206320   148.94598259
 C     21  20  18     1.382106725257   120.14573887   359.70382047
 C     18  14  13     2.446510985056   144.15733107    82.80075377
 C     19  17  13     1.353610726908   106.29293361   359.75308708
 C     13  12   9     1.366813447402   172.21332906    33.46711076
 C     18  14  13     1.380960173213    15.08449437   309.23336894
 N     22  21  20     1.352773077792   120.73759875     0.27865223
 C     25  13  17     1.410897586645   125.60330303   182.37774668
 C     14  13  12     1.376642291955    80.24689249   177.85461986
 C     14  13  12     5.764089607215   164.51507311   312.20821879
 C     29  14  13     1.435600919476   106.58649366   178.76395472
 C     30  14  13     2.413316804732    27.10625047    82.12560436
 C     32  30  14     1.403734305344    87.90059683   149.76154742
 C     33  32  30     1.380694028378   120.14881443   359.74174632
 C     34  33  32     2.448777858443   152.49203239     2.45173620
 C     31  29  14     1.368160809262   108.16950133     0.70383075
 C     14  13  12     1.376239804685   169.26375223   353.09862627
 C     30  14  13     1.380907310430    14.68948582   353.70041132
 N     34  33  32     1.352658863128   120.85575621     0.19603406
 C     37  14  29     1.404717053360   126.01551127   180.90772073
 C     15  14  13     1.366491126938    81.61824056   183.09049352
 C      2   1   3     4.249062720177   145.63345809   149.16989011
 C     41  15  14     1.459677704153   111.05201287   175.08990246
 C     42   2   1     2.412953791518    41.78584867   175.45839433
 C     44  42   2     1.403446472082    87.95153797   233.97558675
 C     45  44  42     1.381696421071   120.11137308     0.19721020
 C     42   2   1     2.450019795838   135.97209175    85.77324343
 C     43  41  15     1.354461516618   106.26758155     0.30894352
 C     15  14  13     1.367461151185   171.87382904   332.35056460
 C     42   2   1     1.381886391857    32.59078432   224.31367352
 C      9   2   1     1.404988612053   126.98745415   183.61332702
 N     42   2   1     1.352765315936   113.57249190   113.50983263
 H      1   2   3     1.083056323558    97.67294456   175.00837715
 H      2   1   3     1.079907866440   109.47896524   175.96495567
 H      4   3   1     1.083732900672   121.06190802   179.48698870
 H      5   4   3     1.082885958908   122.78391216   179.42045990
 H      6   5   4     1.092067305618   104.48271475   100.08635619
 H      6   5   4     1.089549448167    84.67398462   209.52301702
 H      6   5   4     1.089747677217   133.89793739   322.34328737
 H      7   2   1     1.079807853278   126.66122480    10.27170174
 H     60   7   2     1.001736492297   122.62495462   214.12611750
 H     12   9   2     1.016297692608   125.29023241   180.00180175
 H     14  13  12     1.014936943854    44.97226959   359.42596618
 H     18  14  13     1.082871645210   128.03556573   234.20482432
 H     55   4   3     1.004715880237   129.84142337    65.91456569
 H     21  20  18     1.083569563987   121.05669627   180.67006309
 H     22  21  20     1.082483256222   122.73097286   180.59748951
 H     23  18  14     1.092105306278   103.92715769   234.93429879
 H     23  18  14     1.088871893291   134.19244188    12.25587044
 H     23  18  14     1.089833473518    84.85857450   125.45241208
 H     24  19  17     1.080075460327   127.28078426   178.44613241
 H     26  18  14     1.083408048706   118.76995697   244.94906660
 H     30  14  13     1.082703098730   127.99711412   279.66882698
 H     31  29  14     1.079759695488   125.22293469   180.92530585
 H     33  32  30     1.083188810873   121.01964473   180.74284758
 H     34  33  32     1.082494341787   122.70821597   180.59516895
 H     35  34  33     1.092652735319   105.73575241    97.19771933
 H     35  34  33     1.089462711615    84.05943581   206.43036958
 H     35  34  33     1.089268102902   133.08365142   318.50306270
 H     36  31  29     1.079439669458   126.61599965   178.98859863
 H     38  30  73     1.083742127999   118.77264435   359.90091293
 H     42   2   1     1.082178358682   119.31790784   330.14136308
 H     43  41  15     1.080281907652   126.36969097   182.06329380
 H     45  44  42     1.083277434455   121.10105945   179.58025624
 H     46  45  44     1.082194529648   122.72144639   179.46906377
 H     47  42   2     1.091546151109   106.65128841   315.16475048
 H     47  42   2     1.088818625851   132.46019523    94.52397119
 H     47  42   2     1.089531091801    83.63838232   206.04504406
 H     48  43  41     1.080402239909   127.23657387   181.62955349
 H     50  42   2     1.083186502870   118.77001737    94.71359229

---------------------------
INTERNAL COORDINATES (A.U.)
---------------------------
 C      0   0   0     0.000000000000     0.00000000     0.00000000
 C      1   0   0     9.735749466166     0.00000000     0.00000000
 C      1   2   0     4.560301890885    55.51350587     0.00000000
 C      3   1   2     2.651507324666    87.90301558   189.69161987
 C      4   3   1     2.609225288219   120.16046756     0.15765646
 C      5   4   3     4.625390672192   152.52417535     1.61742889
 C      2   1   3     2.585360837309    17.28696346     3.59224655
 C      7   2   1     2.710026725231   108.05010202   190.03328796
 C      2   1   3     2.710100516721   125.24737138   352.75720785
 C      1   2   3     2.610280972954    26.04431419    10.80482906
 N      1   2   3     2.554982413802   144.95346149   342.98587195
 N      9   2   1     2.600503484979   106.58526707     2.60898950
 N     12   9   2     5.527566200405   168.53581413   171.12065651
 N     13  12   9     5.583221047236    91.55032014    11.12112580
 N     14  13  12     5.528150518591    88.43092389   359.84326247
 C      8   7   2     2.654668413270   127.24786865   181.11170171
 C     13  12   9     2.582376967257    81.72106996   188.00453233
 C     14  13  12    10.882574804710    80.56209567   166.76250791
 C     17  13  12     2.757130505230   111.08861209   183.82872609
 C     18  14  13     4.558465206823    27.27532823    36.33507194
 C     20  18  14     2.650705180609    87.95206320   148.94598259
 C     21  20  18     2.611803198586   120.14573887   359.70382047
 C     18  14  13     4.623235745386   144.15733107    82.80075377
 C     19  17  13     2.557953565794   106.29293361   359.75308708
 C     13  12   9     2.582903091751   172.21332906    33.46711076
 C     18  14  13     2.609636529225    15.08449437   309.23336894
 N     22  21  20     2.556370638369   120.73759875     0.27865223
 C     25  13  17     2.666210041769   125.60330303   182.37774668
 C     14  13  12     2.601476916169    80.24689249   177.85461986
 C     14  13  12    10.892550769017   164.51507311   312.20821879
 C     29  14  13     2.712892575415   106.58649366   178.76395472
 C     30  14  13     4.560507835333    27.10625047    82.12560436
 C     32  30  14     2.652673401891    87.90059683   149.76154742
 C     33  32  30     2.609133588376   120.14881443   359.74174632
 C     34  33  32     4.627519515267   152.49203239     2.45173620
 C     31  29  14     2.585449236669   108.16950133     0.70383075
 C     14  13  12     2.600716325456   169.26375223   353.09862627
 C     30  14  13     2.609536633043    14.68948582   353.70041132
 N     34  33  32     2.556154803934   120.85575621     0.19603406
 C     37  14  29     2.654530526499   126.01551127   180.90772073
 C     15  14  13     2.582293994346    81.61824056   183.09049352
 C      2   1   3     8.029564866989   145.63345809   149.16989011
 C     41  15  14     2.758391104639   111.05201287   175.08990246
 C     42   2   1     4.559821839776    41.78584867   175.45839433
 C     44  42   2     2.652129475853    87.95153797   233.97558675
 C     45  44  42     2.611027836043   120.11137308     0.19721020
 C     42   2   1     4.629866436820   135.97209175    85.77324343
 C     43  41  15     2.559561325344   106.26758155     0.30894352
 C     15  14  13     2.584127074516   171.87382904   332.35056460
 C     42   2   1     2.611386828803    32.59078432   224.31367352
 C      9   2   1     2.655043698059   126.98745415   183.61332702
 N     42   2   1     2.556355970587   113.57249190   113.50983263
 H      1   2   3     2.046679839137    97.67294456   175.00837715
 H      2   1   3     2.040730117440   109.47896524   175.96495567
 H      4   3   1     2.047958384591   121.06190802   179.48698870
 H      5   4   3     2.046357896605   122.78391216   179.42045990
 H      6   5   4     2.063708127428   104.48271475   100.08635619
 H      6   5   4     2.058950066400    84.67398462   209.52301702
 H      6   5   4     2.059324665017   133.89793739   322.34328737
 H      7   2   1     2.040541119952   126.66122480    10.27170174
 H     60   7   2     1.893007628797   122.62495462   214.12611750
 H     12   9   2     1.920524309565   125.29023241   180.00180175
 H     14  13  12     1.917952867083    44.97226959   359.42596618
 H     18  14  13     2.046330847636   128.03556573   234.20482432
 H     55   4   3     1.898637856049   129.84142337    65.91456569
 H     21  20  18     2.047649722989   121.05669627   180.67006309
 H     22  21  20     2.045596898814   122.73097286   180.59748951
 H     23  18  14     2.063779938267   103.92715769   234.93429879
 H     23  18  14     2.057669673245   134.19244188    12.25587044
 H     23  18  14     2.059486796529    84.85857450   125.45241208
 H     24  19  17     2.041046823986   127.28078426   178.44613241
 H     26  18  14     2.047344503340   118.76995697   244.94906660
 H     30  14  13     2.046012340948   127.99711412   279.66882698
 H     31  29  14     2.040450114918   125.22293469   180.92530585
 H     33  32  30     2.046930203877   121.01964473   180.74284758
 H     34  33  32     2.045617847496   122.70821597   180.59516895
 H     35  34  33     2.064814429233   105.73575241    97.19771933
 H     35  34  33     2.058786158072    84.05943581   206.43036958
 H     35  34  33     2.058418400901   133.08365142   318.50306270
 H     36  31  29     2.039845353366   126.61599965   178.98859863
 H     38  30  73     2.047975821711   118.77264435   359.90091293
 H     42   2   1     2.045020725966   119.31790784   330.14136308
 H     43  41  15     2.041436952892   126.36969097   182.06329380
 H     45  44  42     2.047097678177   121.10105945   179.58025624
 H     46  45  44     2.045051284662   122.72144639   179.46906377
 H     47  42   2     2.062723288131   106.65128841   315.16475048
 H     47  42   2     2.057569012371   132.46019523    94.52397119
 H     47  42   2     2.058915377895    83.63838232   206.04504406
 H     48  43  41     2.041664347903   127.23657387   181.62955349
 H     50  42   2     2.046925842384   118.77001737    94.71359229

---------------------
BASIS SET INFORMATION
---------------------
There are 3 groups of distinct atoms

 Group   1 Type C   : 17s4p1d contracted to 3s2p1d pattern {881/31/1}
 Group   2 Type N   : 17s4p1d contracted to 3s2p1d pattern {881/31/1}
 Group   3 Type H   : 4s1p contracted to 2s1p pattern {31/1}

Atom   0C    basis set group =>   1
Atom   1N    basis set group =>   2
Atom   2C    basis set group =>   1
Atom   3N    basis set group =>   2
Atom   4C    basis set group =>   1
Atom   5N    basis set group =>   2
Atom   6C    basis set group =>   1
Atom   7N    basis set group =>   2
Atom   8C    basis set group =>   1
Atom   9N    basis set group =>   2
Atom  10C    basis set group =>   1
Atom  11N    basis set group =>   2
Atom  12C    basis set group =>   1
Atom  13N    basis set group =>   2
Atom  14C    basis set group =>   1
Atom  15N    basis set group =>   2
Atom  16C    basis set group =>   1
Atom  17C    basis set group =>   1
Atom  18C    basis set group =>   1
Atom  19C    basis set group =>   1
Atom  20C    basis set group =>   1
Atom  21C    basis set group =>   1
Atom  22C    basis set group =>   1
Atom  23C    basis set group =>   1
Atom  24C    basis set group =>   1
Atom  25C    basis set group =>   1
Atom  26C    basis set group =>   1
Atom  27C    basis set group =>   1
Atom  28C    basis set group =>   1
Atom  29C    basis set group =>   1
Atom  30C    basis set group =>   1
Atom  31C    basis set group =>   1
Atom  32C    basis set group =>   1
Atom  33C    basis set group =>   1
Atom  34C    basis set group =>   1
Atom  35C    basis set group =>   1
Atom  36C    basis set group =>   1
Atom  37C    basis set group =>   1
Atom  38C    basis set group =>   1
Atom  39C    basis set group =>   1
Atom  40C    basis set group =>   1
Atom  41C    basis set group =>   1
Atom  42C    basis set group =>   1
Atom  43C    basis set group =>   1
Atom  44C    basis set group =>   1
Atom  45C    basis set group =>   1
Atom  46C    basis set group =>   1
Atom  47C    basis set group =>   1
Atom  48C    basis set group =>   1
Atom  49C    basis set group =>   1
Atom  50C    basis set group =>   1
Atom  51C    basis set group =>   1
Atom  52H    basis set group =>   3
Atom  53H    basis set group =>   3
Atom  54H    basis set group =>   3
Atom  55H    basis set group =>   3
Atom  56H    basis set group =>   3
Atom  57H    basis set group =>   3
Atom  58H    basis set group =>   3
Atom  59H    basis set group =>   3
Atom  60H    basis set group =>   3
Atom  61H    basis set group =>   3
Atom  62H    basis set group =>   3
Atom  63H    basis set group =>   3
Atom  64H    basis set group =>   3
Atom  65H    basis set group =>   3
Atom  66H    basis set group =>   3
Atom  67H    basis set group =>   3
Atom  68H    basis set group =>   3
Atom  69H    basis set group =>   3
Atom  70H    basis set group =>   3
Atom  71H    basis set group =>   3
Atom  72H    basis set group =>   3
Atom  73H    basis set group =>   3
Atom  74H    basis set group =>   3
Atom  75H    basis set group =>   3
Atom  76H    basis set group =>   3
Atom  77H    basis set group =>   3
Atom  78H    basis set group =>   3
Atom  79H    basis set group =>   3
Atom  80H    basis set group =>   3
Atom  81H    basis set group =>   3
Atom  82H    basis set group =>   3
Atom  83H    basis set group =>   3
Atom  84H    basis set group =>   3
Atom  85H    basis set group =>   3
Atom  86H    basis set group =>   3
Atom  87H    basis set group =>   3
Atom  88H    basis set group =>   3
Atom  89H    basis set group =>   3


           ************************************************************
           *        Program running with 8 parallel MPI-processes     *
           *              working on a common directory               *
           ************************************************************
------------------------------------------------------------------------------
                           ORCA GTO INTEGRAL CALCULATION
------------------------------------------------------------------------------
------------------------------------------------------------------------------
                   ___                                                        
                  /   \      - P O W E R E D   B Y -                         
                 /     \                                                     
                 |  |  |   _    _      __       _____    __    __             
                 |  |  |  | |  | |    /  \     |  _  \  |  |  /  |          
                  \  \/   | |  | |   /    \    | | | |  |  | /  /          
                 / \  \   | |__| |  /  /\  \   | |_| |  |  |/  /          
                |  |  |   |  __  | /  /__\  \  |    /   |      \           
                |  |  |   | |  | | |   __   |  |    \   |  |\   \          
                \     /   | |  | | |  |  |  |  | |\  \  |  | \   \       
                 \___/    |_|  |_| |__|  |__|  |_| \__\ |__|  \__/        
                                                                              
                      - O R C A' S   B I G   F R I E N D -                    
                                      &                                       
                       - I N T E G R A L  F E E D E R -                       
                                                                              
 v1 FN, 2020, v2 2021                                                         
------------------------------------------------------------------------------


Reading SHARK input file /scratch/chu_02/allen/tmpyp4_amber_gaff2/conf1/conf1/Conf349.orca.SHARKINP.tmp ... ok
----------------------
SHARK INTEGRAL PACKAGE
----------------------

Number of atoms                             ...     90
Number of basis functions                   ...   1230
Number of shells                            ...    738
Maximum angular momentum                    ...      2
Integral batch strategy                     ... SHARK/LIBINT Hybrid
RI-J (if used) integral strategy            ... SPLIT-RIJ (Revised 2003 algorithm where possible)
Printlevel                                  ...      1
Contraction scheme used                     ... PARTIAL GENERAL contraction
Coulomb Range Separation                    ... NOT USED
Exchange Range Separation                   ... NOT USED
Finite Nucleus Model                        ... NOT USED
Auxiliary Coulomb fitting basis             ... NOT available
Auxiliary J/K fitting basis                 ... NOT available
Auxiliary Correlation fitting basis         ... NOT available
Auxiliary 'external' fitting basis          ... NOT available
Integral threshold                          ...     2.500000e-11
Primitive cut-off                           ...     2.500000e-12
Primitive pair pre-selection threshold      ...     2.500000e-12

Calculating pre-screening integrals         ... done (  0.1 sec) Dimension = 738
Calculating pre-screening integrals (ORCA)  ... done (  0.3 sec) Dimension = 426
Organizing shell pair data                  ... done (  0.5 sec)
Shell pair information
Total number of shell pairs                 ...    272691
Shell pairs after pre-screening             ...     71726
Total number of primitive shell pairs       ...    422091
Primitive shell pairs kept                  ...     92639
          la=0 lb=0:  29439 shell pairs
          la=1 lb=0:  26040 shell pairs
          la=1 lb=1:   4702 shell pairs
          la=2 lb=0:   7890 shell pairs
          la=2 lb=1:   3126 shell pairs
          la=2 lb=2:    529 shell pairs

Calculating one electron integrals          ... done (  0.2 sec)
Calculating Nuclear repulsion               ... done (  0.0 sec) ENN=   6234.859994659313 Eh

SHARK setup successfully completed in   1.6 seconds

Maximum memory used throughout the entire GTOINT-calculation: 99.1 MB


           ************************************************************
           *        Program running with 8 parallel MPI-processes     *
           *              working on a common directory               *
           ************************************************************
-------------------------------------------------------------------------------
                                 ORCA SCF
-------------------------------------------------------------------------------

------------
SCF SETTINGS
------------
Hamiltonian:
 Ab initio Hamiltonian  Method          .... Hartree-Fock(GTOs)


General Settings:
 Integral files         IntName         .... /scratch/chu_02/allen/tmpyp4_amber_gaff2/conf1/conf1/Conf349.orca
 Hartree-Fock type      HFTyp           .... RHF
 Total Charge           Charge          ....    0
 Multiplicity           Mult            ....    1
 Number of Electrons    NEL             ....  358
 Basis Dimension        Dim             ....  918
 Nuclear Repulsion      ENuc            ....   6234.8599946593 Eh

Convergence Acceleration:
 DIIS                   CNVDIIS         .... on
   Start iteration      DIISMaxIt       ....    12
   Startup error        DIISStart       ....  0.200000
   # of expansion vecs  DIISMaxEq       ....     5
   Bias factor          DIISBfac        ....   1.050
   Max. coefficient     DIISMaxC        ....  10.000
 Trust-Rad. Augm. Hess. CNVTRAH         .... auto
   Auto Start mean grad. ratio tolernc. ....  1.125000
   Auto Start start iteration           ....    20
   Auto Start num. interpolation iter.  ....    10
   Max. Number of Micro iterations      ....    16
   Max. Number of Macro iterations      .... Maxiter - #DIIS iter
   Number of Davidson start vectors     ....     2
   Converg. threshold I  (grad. norm)   ....   1.000e-05
   Converg. threshold II (energy diff.) ....   1.000e-08
   Grad. Scal. Fac. for Micro threshold ....   0.100
   Minimum threshold for Micro iter.    ....   0.010
   NR start threshold (gradient norm)   ....   0.001
   Initial trust radius                 ....   0.400
   Minimum AH scaling param. (alpha)    ....   1.000
   Maximum AH scaling param. (alpha)    .... 1000.000
   Orbital update algorithm             .... Taylor
   White noise on init. David. guess    .... on
   Maximum white noise                  ....   0.010
   Quad. conv. algorithm                .... NR
 SOSCF                  CNVSOSCF        .... on
   Start iteration      SOSCFMaxIt      ....   150
   Startup grad/error   SOSCFStart      ....  0.003300
 Level Shifting         CNVShift        .... on
   Level shift para.    LevelShift      ....    0.2500
   Turn off err/grad.   ShiftErr        ....    0.0010
 Zerner damping         CNVZerner       .... off
 Static damping         CNVDamp         .... on
   Fraction old density DampFac         ....    0.7000
   Max. Damping (<1)    DampMax         ....    0.9800
   Min. Damping (>=0)   DampMin         ....    0.0000
   Turn off err/grad.   DampErr         ....    0.1000
 Fernandez-Rico         CNVRico         .... off

SCF Procedure:
 Maximum # iterations   MaxIter         ....   125
 SCF integral mode      SCFMode         .... Direct
   Integral package                     .... SHARK and LIBINT hybrid scheme
 Reset frequency        DirectResetFreq ....    20
 Integral Threshold     Thresh          ....  2.500e-11 Eh
 Primitive CutOff       TCut            ....  2.500e-12 Eh

Convergence Tolerance:
 Convergence Check Mode ConvCheckMode   .... Total+1el-Energy
 Convergence forced     ConvForced      .... 1
 Energy Change          TolE            ....  1.000e-08 Eh
 1-El. energy change                    ....  1.000e-05 Eh
 Orbital Gradient       TolG            ....  1.000e-05
 Orbital Rotation angle TolX            ....  1.000e-05
 DIIS Error             TolErr          ....  5.000e-07


Diagonalization of the overlap matrix:
Smallest eigenvalue                        ... 1.744e-04
Time for diagonalization                   ...    0.206 sec
Threshold for overlap eigenvalues          ... 1.000e-08
Number of eigenvalues below threshold      ... 0
Time for construction of square roots      ...    0.119 sec
Total time needed                          ...    0.330 sec

Time for model grid setup =    1.322 sec

------------------------------
INITIAL GUESS: MODEL POTENTIAL
------------------------------
Loading Hartree-Fock densities                     ... done
Calculating cut-offs                               ... done
Initializing the effective Hamiltonian             ... done
Setting up the integral package (SHARK)            ... done
Starting the Coulomb interaction                   ... done (   1.5 sec)
Reading the grid                                   ... done
Mapping shells                                     ... done
Starting the XC term evaluation                    ... done (   0.3 sec)
Transforming the Hamiltonian                       ... done (   0.1 sec)
Diagonalizing the Hamiltonian                      ... done (   0.2 sec)
Back transforming the eigenvectors                 ... done (   0.0 sec)
Now organizing SCF variables                       ... done
                      ------------------
                      INITIAL GUESS DONE (   3.6 sec)
                      ------------------
--------------
SCF ITERATIONS
--------------
ITER       Energy         Delta-E        Max-DP      RMS-DP      [F,P]     Damp
               ***  Starting incremental Fock matrix formation  ***
  0  -2121.6191165769   0.000000000000 0.08109932  0.00127321  0.2311908 0.7000
  1  -2122.2618883828  -0.642771805862 0.06142721  0.00103787  0.1434748 0.7000
                               ***Turning on DIIS***
  2  -2122.6629040494  -0.401015666606 0.14286317  0.00235496  0.0803097 0.0000
  3  -2118.0455696113   4.617334438093 0.06570818  0.00070266  0.0434364 0.0000
  4  -2123.3595556893  -5.313986078041 0.01915215  0.00023272  0.0092469 0.0000
  5  -2123.4917260902  -0.132170400813 0.00934118  0.00013400  0.0048348 0.0000
  6  -2123.4759104336   0.015815656598 0.00587121  0.00008563  0.0022303 0.0000
  7  -2123.5680604112  -0.092149977643 0.00367745  0.00006734  0.0016270 0.0000
  8  -2123.5746298673  -0.006569456102 0.00334930  0.00006434  0.0015230 0.0000
  9  -2123.5478866461   0.026743221166 0.00268547  0.00004592  0.0012256 0.0000
 10  -2123.5555481549  -0.007661508724 0.00540930  0.00009662  0.0009594 0.0000
                      *** Initiating the SOSCF procedure ***
                           *** Shutting down DIIS ***
                      *** Re-Reading the Fockian *** 
                      *** Removing any level shift *** 
ITER      Energy       Delta-E        Grad      Rot      Max-DP    RMS-DP
 11  -2123.45022106   0.1053270988  0.000179  0.000179  0.000243  0.000005
               *** Restarting incremental Fock matrix formation ***
 12  -2123.51565761  -0.0654365567  0.000909  0.006302  0.001500  0.000035
 13  -2123.51577011  -0.0001124949  0.001120  0.030674  0.006820  0.000139
 14  -2123.51595603  -0.0001859241  0.000391  0.001940  0.000611  0.000013
 15  -2123.51597110  -0.0000150725  0.000168  0.001980  0.000497  0.000013
 16  -2123.51597765  -0.0000065437  0.000136  0.002104  0.000484  0.000008
 17  -2123.51598011  -0.0000024582  0.000118  0.001682  0.000283  0.000007
 18  -2123.51598118  -0.0000010771  0.000056  0.000807  0.000211  0.000003
 19  -2123.51598179  -0.0000006036  0.000041  0.001254  0.000212  0.000005
 20  -2123.51598215  -0.0000003629  0.000023  0.000761  0.000109  0.000003
 21  -2123.51598231  -0.0000001646  0.000026  0.001019  0.000147  0.000003
 22  -2123.51598248  -0.0000001628  0.000019  0.000953  0.000146  0.000003
 23  -2123.51598258  -0.0000001043  0.000014  0.000441  0.000072  0.000001
 24  -2123.51598263  -0.0000000474  0.000008  0.000323  0.000054  0.000001
 25  -2123.51598266  -0.0000000321  0.000008  0.000130  0.000038  0.000001
 26  -2123.51598268  -0.0000000160  0.000006  0.000080  0.000029  0.000000
 27  -2123.51598268  -0.0000000062  0.000003  0.000062  0.000020  0.000000
                  ***Gradient check signals convergence***
              ***Rediagonalizing the Fockian in SOSCF/NRSCF***

               *****************************************************
               *                     SUCCESS                       *
               *           SCF CONVERGED AFTER  28 CYCLES          *
               *****************************************************


----------------
TOTAL SCF ENERGY
----------------

Total Energy       :        -2123.51598269 Eh          -57783.80756 eV

Components:
Nuclear Repulsion  :         6234.85999466 Eh          169659.16576 eV
Electronic Energy  :        -8358.37597735 Eh         -227442.97332 eV
One Electron Energy:       -15310.25868570 Eh         -416613.31905 eV
Two Electron Energy:         6951.88270835 Eh          189170.34573 eV

Virial components:
Potential Energy   :        -4246.01449056 Eh         -115539.92822 eV
Kinetic Energy     :         2122.49850787 Eh           57756.12066 eV
Virial Ratio       :            2.00047938


---------------
SCF CONVERGENCE
---------------

  Last Energy change         ...   -5.2059e-09  Tolerance :   1.0000e-08
  Last MAX-Density change    ...    9.4337e-06  Tolerance :   1.0000e-07
  Last RMS-Density change    ...    1.8677e-07  Tolerance :   5.0000e-09
  Last Orbital Gradient      ...    1.7695e-06  Tolerance :   1.0000e-05
  Last Orbital Rotation      ...    4.5456e-05  Tolerance :   1.0000e-05

             **** THE GBW FILE WAS UPDATED (/scratch/chu_02/allen/tmpyp4_amber_gaff2/conf1/conf1/Conf349.orca.gbw) ****
             **** DENSITY /scratch/chu_02/allen/tmpyp4_amber_gaff2/conf1/conf1/Conf349.orca.scfp WAS UPDATED ****
             **** ENERGY FILE WAS UPDATED (/scratch/chu_02/allen/tmpyp4_amber_gaff2/conf1/conf1/Conf349.orca.en.tmp) ****
             **** THE GBW FILE WAS UPDATED (/scratch/chu_02/allen/tmpyp4_amber_gaff2/conf1/conf1/Conf349.orca.gbw) ****
             **** DENSITY /scratch/chu_02/allen/tmpyp4_amber_gaff2/conf1/conf1/Conf349.orca.scfp WAS UPDATED ****
----------------
ORBITAL ENERGIES
----------------

  NO   OCC          E(Eh)            E(eV) 
   0   2.0000     -15.680299      -426.6826 
   1   2.0000     -15.634738      -425.4428 
   2   2.0000     -15.631267      -425.3484 
   3   2.0000     -15.587334      -424.1529 
   4   2.0000     -15.525416      -422.4681 
   5   2.0000     -15.515342      -422.1939 
   6   2.0000     -15.453745      -420.5178 
   7   2.0000     -15.440161      -420.1482 
   8   2.0000     -11.329925      -308.3029 
   9   2.0000     -11.328689      -308.2693 
  10   2.0000     -11.328240      -308.2571 
  11   2.0000     -11.299798      -307.4831 
  12   2.0000     -11.298006      -307.4344 
  13   2.0000     -11.293648      -307.3158 
  14   2.0000     -11.290769      -307.2374 
  15   2.0000     -11.287259      -307.1419 
  16   2.0000     -11.286005      -307.1078 
  17   2.0000     -11.282529      -307.0132 
  18   2.0000     -11.269435      -306.6569 
  19   2.0000     -11.263730      -306.5017 
  20   2.0000     -11.262738      -306.4747 
  21   2.0000     -11.251518      -306.1694 
  22   2.0000     -11.247981      -306.0731 
  23   2.0000     -11.238500      -305.8151 
  24   2.0000     -11.236069      -305.7490 
  25   2.0000     -11.231709      -305.6303 
  26   2.0000     -11.231056      -305.6126 
  27   2.0000     -11.229317      -305.5652 
  28   2.0000     -11.229020      -305.5572 
  29   2.0000     -11.211556      -305.0820 
  30   2.0000     -11.210140      -305.0434 
  31   2.0000     -11.193389      -304.5876 
  32   2.0000     -11.191766      -304.5434 
  33   2.0000     -11.190840      -304.5182 
  34   2.0000     -11.188273      -304.4484 
  35   2.0000     -11.188002      -304.4410 
  36   2.0000     -11.186875      -304.4103 
  37   2.0000     -11.175595      -304.1034 
  38   2.0000     -11.175226      -304.0933 
  39   2.0000     -11.172822      -304.0279 
  40   2.0000     -11.172791      -304.0271 
  41   2.0000     -11.170197      -303.9565 
  42   2.0000     -11.168997      -303.9239 
  43   2.0000     -11.161842      -303.7292 
  44   2.0000     -11.160401      -303.6899 
  45   2.0000     -11.156863      -303.5937 
  46   2.0000     -11.156414      -303.5814 
  47   2.0000     -11.152525      -303.4756 
  48   2.0000     -11.146241      -303.3046 
  49   2.0000     -11.134845      -302.9945 
  50   2.0000     -11.129708      -302.8548 
  51   2.0000     -11.116959      -302.5078 
  52   2.0000      -1.360807       -37.0294 
  53   2.0000      -1.321882       -35.9703 
  54   2.0000      -1.319129       -35.8953 
  55   2.0000      -1.280189       -34.8357 
  56   2.0000      -1.226599       -33.3775 
  57   2.0000      -1.209986       -32.9254 
  58   2.0000      -1.173390       -31.9296 
  59   2.0000      -1.150928       -31.3183 
  60   2.0000      -1.144003       -31.1299 
  61   2.0000      -1.110745       -30.2249 
  62   2.0000      -1.108608       -30.1668 
  63   2.0000      -1.082471       -29.4555 
  64   2.0000      -1.076727       -29.2992 
  65   2.0000      -1.046045       -28.4643 
  66   2.0000      -1.043791       -28.4030 
  67   2.0000      -1.041423       -28.3386 
  68   2.0000      -1.015145       -27.6235 
  69   2.0000      -1.012666       -27.5561 
  70   2.0000      -1.008708       -27.4483 
  71   2.0000      -0.993999       -27.0481 
  72   2.0000      -0.985476       -26.8162 
  73   2.0000      -0.982000       -26.7216 
  74   2.0000      -0.972793       -26.4710 
  75   2.0000      -0.961925       -26.1753 
  76   2.0000      -0.954547       -25.9745 
  77   2.0000      -0.945697       -25.7337 
  78   2.0000      -0.937013       -25.4974 
  79   2.0000      -0.916941       -24.9512 
  80   2.0000      -0.910883       -24.7864 
  81   2.0000      -0.896992       -24.4084 
  82   2.0000      -0.876885       -23.8613 
  83   2.0000      -0.872899       -23.7528 
  84   2.0000      -0.870190       -23.6791 
  85   2.0000      -0.859570       -23.3901 
  86   2.0000      -0.841465       -22.8974 
  87   2.0000      -0.836776       -22.7698 
  88   2.0000      -0.827438       -22.5157 
  89   2.0000      -0.796568       -21.6757 
  90   2.0000      -0.788837       -21.4653 
  91   2.0000      -0.762634       -20.7523 
  92   2.0000      -0.753146       -20.4941 
  93   2.0000      -0.733966       -19.9722 
  94   2.0000      -0.726858       -19.7788 
  95   2.0000      -0.724071       -19.7030 
  96   2.0000      -0.718793       -19.5594 
  97   2.0000      -0.716874       -19.5071 
  98   2.0000      -0.712095       -19.3771 
  99   2.0000      -0.698574       -19.0092 
 100   2.0000      -0.697210       -18.9720 
 101   2.0000      -0.691070       -18.8050 
 102   2.0000      -0.685497       -18.6533 
 103   2.0000      -0.684559       -18.6278 
 104   2.0000      -0.679032       -18.4774 
 105   2.0000      -0.674270       -18.3478 
 106   2.0000      -0.672470       -18.2988 
 107   2.0000      -0.660229       -17.9657 
 108   2.0000      -0.657802       -17.8997 
 109   2.0000      -0.653365       -17.7790 
 110   2.0000      -0.651527       -17.7290 
 111   2.0000      -0.646510       -17.5924 
 112   2.0000      -0.645422       -17.5628 
 113   2.0000      -0.637685       -17.3523 
 114   2.0000      -0.635965       -17.3055 
 115   2.0000      -0.627775       -17.0826 
 116   2.0000      -0.622263       -16.9326 
 117   2.0000      -0.620677       -16.8895 
 118   2.0000      -0.613466       -16.6933 
 119   2.0000      -0.612833       -16.6760 
 120   2.0000      -0.611743       -16.6464 
 121   2.0000      -0.610958       -16.6250 
 122   2.0000      -0.600523       -16.3411 
 123   2.0000      -0.588070       -16.0022 
 124   2.0000      -0.582089       -15.8394 
 125   2.0000      -0.580742       -15.8028 
 126   2.0000      -0.579961       -15.7815 
 127   2.0000      -0.571568       -15.5532 
 128   2.0000      -0.568198       -15.4615 
 129   2.0000      -0.559771       -15.2321 
 130   2.0000      -0.554009       -15.0754 
 131   2.0000      -0.548189       -14.9170 
 132   2.0000      -0.543017       -14.7762 
 133   2.0000      -0.541276       -14.7289 
 134   2.0000      -0.538966       -14.6660 
 135   2.0000      -0.535620       -14.5750 
 136   2.0000      -0.530833       -14.4447 
 137   2.0000      -0.518358       -14.1052 
 138   2.0000      -0.517897       -14.0927 
 139   2.0000      -0.514258       -13.9937 
 140   2.0000      -0.512270       -13.9396 
 141   2.0000      -0.510370       -13.8879 
 142   2.0000      -0.509034       -13.8515 
 143   2.0000      -0.504271       -13.7219 
 144   2.0000      -0.501721       -13.6525 
 145   2.0000      -0.495312       -13.4781 
 146   2.0000      -0.489602       -13.3228 
 147   2.0000      -0.481343       -13.0980 
 148   2.0000      -0.477061       -12.9815 
 149   2.0000      -0.467851       -12.7309 
 150   2.0000      -0.466109       -12.6835 
 151   2.0000      -0.456747       -12.4287 
 152   2.0000      -0.451388       -12.2829 
 153   2.0000      -0.445291       -12.1170 
 154   2.0000      -0.438631       -11.9358 
 155   2.0000      -0.427428       -11.6309 
 156   2.0000      -0.409338       -11.1387 
 157   2.0000      -0.399681       -10.8759 
 158   2.0000      -0.392380       -10.6772 
 159   2.0000      -0.387950       -10.5567 
 160   2.0000      -0.382082       -10.3970 
 161   2.0000      -0.376948       -10.2573 
 162   2.0000      -0.370303       -10.0765 
 163   2.0000      -0.357186        -9.7195 
 164   2.0000      -0.355462        -9.6726 
 165   2.0000      -0.341767        -9.2999 
 166   2.0000      -0.337835        -9.1930 
 167   2.0000      -0.325208        -8.8494 
 168   2.0000      -0.320179        -8.7125 
 169   2.0000      -0.305857        -8.3228 
 170   2.0000      -0.299257        -8.1432 
 171   2.0000      -0.285139        -7.7590 
 172   2.0000      -0.278585        -7.5807 
 173   2.0000      -0.263381        -7.1670 
 174   2.0000      -0.241558        -6.5731 
 175   2.0000      -0.190073        -5.1721 
 176   2.0000      -0.181105        -4.9281 
 177   2.0000      -0.079863        -2.1732 
 178   2.0000      -0.059727        -1.6253 
 179   0.0000       0.028219         0.7679 
 180   0.0000       0.065125         1.7721 
 181   0.0000       0.090206         2.4546 
 182   0.0000       0.105910         2.8820 
 183   0.0000       0.115486         3.1425 
 184   0.0000       0.136573         3.7164 
 185   0.0000       0.139711         3.8017 
 186   0.0000       0.140690         3.8284 
 187   0.0000       0.164413         4.4739 
 188   0.0000       0.164877         4.4865 
 189   0.0000       0.165994         4.5169 
 190   0.0000       0.173751         4.7280 
 191   0.0000       0.180098         4.9007 
 192   0.0000       0.183512         4.9936 
 193   0.0000       0.189650         5.1606 
 194   0.0000       0.204418         5.5625 
 195   0.0000       0.205873         5.6021 
 196   0.0000       0.207785         5.6541 
 197   0.0000       0.209043         5.6883 
 198   0.0000       0.216286         5.8854 
 199   0.0000       0.228529         6.2186 
 200   0.0000       0.233476         6.3532 
 201   0.0000       0.235069         6.3965 
 202   0.0000       0.238812         6.4984 
 203   0.0000       0.239896         6.5279 
 204   0.0000       0.245917         6.6917 
 205   0.0000       0.254671         6.9299 
 206   0.0000       0.256409         6.9772 
 207   0.0000       0.257762         7.0141 
 208   0.0000       0.259394         7.0585 
 209   0.0000       0.260514         7.0890 
 210   0.0000       0.264471         7.1966 
 211   0.0000       0.265428         7.2227 
 212   0.0000       0.268477         7.3056 
 213   0.0000       0.269320         7.3286 
 214   0.0000       0.273144         7.4326 
 215   0.0000       0.276141         7.5142 
 216   0.0000       0.278556         7.5799 
 217   0.0000       0.281431         7.6581 
 218   0.0000       0.286511         7.7964 
 219   0.0000       0.288172         7.8416 
 220   0.0000       0.289564         7.8794 
 221   0.0000       0.291963         7.9447 
 222   0.0000       0.294885         8.0242 
 223   0.0000       0.296187         8.0597 
 224   0.0000       0.297683         8.1004 
 225   0.0000       0.300090         8.1659 
 226   0.0000       0.304456         8.2847 
 227   0.0000       0.308857         8.4044 
 228   0.0000       0.312390         8.5006 
 229   0.0000       0.324567         8.8319 
 230   0.0000       0.328256         8.9323 
 231   0.0000       0.335190         9.1210 
 232   0.0000       0.343229         9.3397 
 233   0.0000       0.356068         9.6891 
 234   0.0000       0.361455         9.8357 
 235   0.0000       0.365659         9.9501 
 236   0.0000       0.375394        10.2150 
 237   0.0000       0.390892        10.6367 
 238   0.0000       0.395695        10.7674 
 239   0.0000       0.398927        10.8553 
 240   0.0000       0.406894        11.0721 
 241   0.0000       0.410961        11.1828 
 242   0.0000       0.411609        11.2005 
 243   0.0000       0.419550        11.4165 
 244   0.0000       0.428429        11.6582 
 245   0.0000       0.434869        11.8334 
 246   0.0000       0.436890        11.8884 
 247   0.0000       0.440784        11.9943 
 248   0.0000       0.441542        12.0150 
 249   0.0000       0.448205        12.1963 
 250   0.0000       0.457393        12.4463 
 251   0.0000       0.464556        12.6412 
 252   0.0000       0.468457        12.7474 
 253   0.0000       0.470575        12.8050 
 254   0.0000       0.471312        12.8251 
 255   0.0000       0.474404        12.9092 
 256   0.0000       0.478459        13.0195 
 257   0.0000       0.479596        13.0505 
 258   0.0000       0.490128        13.3371 
 259   0.0000       0.494736        13.4625 
 260   0.0000       0.503995        13.7144 
 261   0.0000       0.505189        13.7469 
 262   0.0000       0.506280        13.7766 
 263   0.0000       0.513041        13.9605 
 264   0.0000       0.516557        14.0562 
 265   0.0000       0.519503        14.1364 
 266   0.0000       0.524911        14.2836 
 267   0.0000       0.528436        14.3795 
 268   0.0000       0.531032        14.4501 
 269   0.0000       0.535735        14.5781 
 270   0.0000       0.541959        14.7475 
 271   0.0000       0.549477        14.9520 
 272   0.0000       0.557933        15.1821 
 273   0.0000       0.559994        15.2382 
 274   0.0000       0.560688        15.2571 
 275   0.0000       0.566780        15.4229 
 276   0.0000       0.572508        15.5787 
 277   0.0000       0.573590        15.6082 
 278   0.0000       0.579556        15.7705 
 279   0.0000       0.585582        15.9345 
 280   0.0000       0.590816        16.0769 
 281   0.0000       0.593022        16.1369 
 282   0.0000       0.594774        16.1846 
 283   0.0000       0.595288        16.1986 
 284   0.0000       0.597919        16.2702 
 285   0.0000       0.602514        16.3952 
 286   0.0000       0.605864        16.4864 
 287   0.0000       0.609962        16.5979 
 288   0.0000       0.615337        16.7442 
 289   0.0000       0.624089        16.9823 
 290   0.0000       0.625653        17.0249 
 291   0.0000       0.629361        17.1258 
 292   0.0000       0.632695        17.2165 
 293   0.0000       0.636864        17.3300 
 294   0.0000       0.644892        17.5484 
 295   0.0000       0.648099        17.6357 
 296   0.0000       0.653196        17.7744 
 297   0.0000       0.655735        17.8435 
 298   0.0000       0.661037        17.9877 
 299   0.0000       0.664552        18.0834 
 300   0.0000       0.670372        18.2417 
 301   0.0000       0.675059        18.3693 
 302   0.0000       0.677361        18.4319 
 303   0.0000       0.678631        18.4665 
 304   0.0000       0.680566        18.5191 
 305   0.0000       0.684083        18.6148 
 306   0.0000       0.689074        18.7507 
 307   0.0000       0.692911        18.8551 
 308   0.0000       0.695859        18.9353 
 309   0.0000       0.700380        19.0583 
 310   0.0000       0.702641        19.1198 
 311   0.0000       0.704460        19.1693 
 312   0.0000       0.707381        19.2488 
 313   0.0000       0.710569        19.3356 
 314   0.0000       0.710840        19.3429 
 315   0.0000       0.714689        19.4477 
 316   0.0000       0.716910        19.5081 
 317   0.0000       0.718884        19.5618 
 318   0.0000       0.724224        19.7071 
 319   0.0000       0.727026        19.7834 
 320   0.0000       0.728357        19.8196 
 321   0.0000       0.729271        19.8445 
 322   0.0000       0.730455        19.8767 
 323   0.0000       0.732517        19.9328 
 324   0.0000       0.737736        20.0748 
 325   0.0000       0.741806        20.1856 
 326   0.0000       0.744163        20.2497 
 327   0.0000       0.749187        20.3864 
 328   0.0000       0.753984        20.5170 
 329   0.0000       0.756435        20.5836 
 330   0.0000       0.758765        20.6471 
 331   0.0000       0.763658        20.7802 
 332   0.0000       0.764585        20.8054 
 333   0.0000       0.767256        20.8781 
 334   0.0000       0.769036        20.9265 
 335   0.0000       0.774278        21.0692 
 336   0.0000       0.778143        21.1743 
 337   0.0000       0.781878        21.2760 
 338   0.0000       0.786620        21.4050 
 339   0.0000       0.788875        21.4664 
 340   0.0000       0.792202        21.5569 
 341   0.0000       0.795944        21.6587 
 342   0.0000       0.797858        21.7108 
 343   0.0000       0.803988        21.8776 
 344   0.0000       0.806976        21.9589 
 345   0.0000       0.808146        21.9908 
 346   0.0000       0.809202        22.0195 
 347   0.0000       0.814101        22.1528 
 348   0.0000       0.816066        22.2063 
 349   0.0000       0.816638        22.2219 
 350   0.0000       0.819092        22.2886 
 351   0.0000       0.821567        22.3560 
 352   0.0000       0.826998        22.5038 
 353   0.0000       0.827822        22.5262 
 354   0.0000       0.830674        22.6038 
 355   0.0000       0.831502        22.6263 
 356   0.0000       0.833116        22.6702 
 357   0.0000       0.836204        22.7543 
 358   0.0000       0.839159        22.8347 
 359   0.0000       0.841961        22.9109 
 360   0.0000       0.842678        22.9304 
 361   0.0000       0.843007        22.9394 
 362   0.0000       0.846319        23.0295 
 363   0.0000       0.848814        23.0974 
 364   0.0000       0.849666        23.1206 
 365   0.0000       0.856556        23.3081 
 366   0.0000       0.858001        23.3474 
 367   0.0000       0.863354        23.4930 
 368   0.0000       0.865113        23.5409 
 369   0.0000       0.868927        23.6447 
 370   0.0000       0.870562        23.6892 
 371   0.0000       0.874464        23.7954 
 372   0.0000       0.875314        23.8185 
 373   0.0000       0.877174        23.8691 
 374   0.0000       0.878871        23.9153 
 375   0.0000       0.881524        23.9875 
 376   0.0000       0.888820        24.1860 
 377   0.0000       0.890748        24.2385 
 378   0.0000       0.891680        24.2638 
 379   0.0000       0.895177        24.3590 
 380   0.0000       0.897160        24.4130 
 381   0.0000       0.898325        24.4447 
 382   0.0000       0.900700        24.5093 
 383   0.0000       0.901811        24.5395 
 384   0.0000       0.905181        24.6312 
 385   0.0000       0.907039        24.6818 
 386   0.0000       0.909500        24.7487 
 387   0.0000       0.910687        24.7810 
 388   0.0000       0.913748        24.8644 
 389   0.0000       0.917184        24.9579 
 390   0.0000       0.920080        25.0366 
 391   0.0000       0.925496        25.1840 
 392   0.0000       0.926788        25.2192 
 393   0.0000       0.928312        25.2607 
 394   0.0000       0.929938        25.3049 
 395   0.0000       0.932258        25.3680 
 396   0.0000       0.936237        25.4763 
 397   0.0000       0.941295        25.6139 
 398   0.0000       0.943581        25.6761 
 399   0.0000       0.945967        25.7411 
 400   0.0000       0.948750        25.8168 
 401   0.0000       0.952327        25.9141 
 402   0.0000       0.955481        26.0000 
 403   0.0000       0.956516        26.0281 
 404   0.0000       0.960605        26.1394 
 405   0.0000       0.964689        26.2505 
 406   0.0000       0.969458        26.3803 
 407   0.0000       0.978993        26.6397 
 408   0.0000       0.981510        26.7082 
 409   0.0000       0.985773        26.8242 
 410   0.0000       0.987787        26.8791 
 411   0.0000       0.992123        26.9970 
 412   0.0000       0.995701        27.0944 
 413   0.0000       1.003195        27.2983 
 414   0.0000       1.007439        27.4138 
 415   0.0000       1.014002        27.5924 
 416   0.0000       1.015066        27.6213 
 417   0.0000       1.021271        27.7902 
 418   0.0000       1.024484        27.8776 
 419   0.0000       1.029470        28.0133 
 420   0.0000       1.033367        28.1194 
 421   0.0000       1.038141        28.2493 
 422   0.0000       1.049583        28.5606 
 423   0.0000       1.050880        28.5959 
 424   0.0000       1.054102        28.6836 
 425   0.0000       1.072236        29.1770 
 426   0.0000       1.077150        29.3107 
 427   0.0000       1.078057        29.3354 
 428   0.0000       1.082270        29.4501 
 429   0.0000       1.083111        29.4730 
 430   0.0000       1.086701        29.5706 
 431   0.0000       1.091573        29.7032 
 432   0.0000       1.095658        29.8144 
 433   0.0000       1.103593        30.0303 
 434   0.0000       1.105609        30.0852 
 435   0.0000       1.111639        30.2492 
 436   0.0000       1.113089        30.2887 
 437   0.0000       1.115531        30.3551 
 438   0.0000       1.118257        30.4293 
 439   0.0000       1.120492        30.4901 
 440   0.0000       1.123666        30.5765 
 441   0.0000       1.128268        30.7017 
 442   0.0000       1.130922        30.7739 
 443   0.0000       1.134269        30.8650 
 444   0.0000       1.136358        30.9219 
 445   0.0000       1.139668        31.0119 
 446   0.0000       1.144920        31.1549 
 447   0.0000       1.149757        31.2865 
 448   0.0000       1.154008        31.4021 
 449   0.0000       1.156033        31.4572 
 450   0.0000       1.161104        31.5953 
 451   0.0000       1.164210        31.6798 
 452   0.0000       1.165144        31.7052 
 453   0.0000       1.167649        31.7733 
 454   0.0000       1.169909        31.8348 
 455   0.0000       1.174353        31.9558 
 456   0.0000       1.182015        32.1643 
 457   0.0000       1.187989        32.3268 
 458   0.0000       1.191603        32.4252 
 459   0.0000       1.196697        32.5638 
 460   0.0000       1.200895        32.6780 
 461   0.0000       1.202461        32.7206 
 462   0.0000       1.205350        32.7993 
 463   0.0000       1.206672        32.8352 
 464   0.0000       1.209346        32.9080 
 465   0.0000       1.215074        33.0638 
 466   0.0000       1.219918        33.1957 
 467   0.0000       1.221898        33.2495 
 468   0.0000       1.224421        33.3182 
 469   0.0000       1.230433        33.4818 
 470   0.0000       1.236860        33.6567 
 471   0.0000       1.237487        33.6737 
 472   0.0000       1.240141        33.7460 
 473   0.0000       1.241198        33.7747 
 474   0.0000       1.242751        33.8170 
 475   0.0000       1.246741        33.9255 
 476   0.0000       1.249601        34.0034 
 477   0.0000       1.252875        34.0925 
 478   0.0000       1.255368        34.1603 
 479   0.0000       1.257464        34.2173 
 480   0.0000       1.262030        34.3416 
 481   0.0000       1.269497        34.5448 
 482   0.0000       1.270761        34.5792 
 483   0.0000       1.272942        34.6385 
 484   0.0000       1.274630        34.6845 
 485   0.0000       1.281299        34.8659 
 486   0.0000       1.286227        35.0000 
 487   0.0000       1.287019        35.0216 
 488   0.0000       1.291248        35.1367 
 489   0.0000       1.297687        35.3119 
 490   0.0000       1.298166        35.3249 
 491   0.0000       1.303260        35.4635 
 492   0.0000       1.304683        35.5022 
 493   0.0000       1.309204        35.6252 
 494   0.0000       1.313137        35.7323 
 495   0.0000       1.317398        35.8482 
 496   0.0000       1.319671        35.9101 
 497   0.0000       1.324006        36.0280 
 498   0.0000       1.326832        36.1049 
 499   0.0000       1.328376        36.1470 
 500   0.0000       1.332574        36.2612 
 501   0.0000       1.338086        36.4112 
 502   0.0000       1.342312        36.5262 
 503   0.0000       1.345282        36.6070 
 504   0.0000       1.349076        36.7102 
 505   0.0000       1.350057        36.7369 
 506   0.0000       1.353765        36.8378 
 507   0.0000       1.355368        36.8814 
 508   0.0000       1.360047        37.0088 
[...]
 76 H s       :     0.885239  s :     0.885239
      pz      :     0.022123  p :     0.079788
      px      :     0.043622
      py      :     0.014043
 77 H s       :     0.884407  s :     0.884407
      pz      :     0.047988  p :     0.079303
      px      :     0.015024
      py      :     0.016291
 78 H s       :     0.884768  s :     0.884768
      pz      :     0.025888  p :     0.079271
      px      :     0.020452
      py      :     0.032931
 79 H s       :     0.910715  s :     0.910715
      pz      :     0.021784  p :     0.086298
      px      :     0.021658
      py      :     0.042857
 80 H s       :     0.864289  s :     0.864289
      pz      :     0.039403  p :     0.084853
      px      :     0.030299
      py      :     0.015151
 81 H s       :     0.886784  s :     0.886784
      pz      :     0.037828  p :     0.084126
      px      :     0.016181
      py      :     0.030117
 82 H s       :     0.916139  s :     0.916139
      pz      :     0.021957  p :     0.086720
      px      :     0.031657
      py      :     0.033107
 83 H s       :     0.873542  s :     0.873542
      pz      :     0.039265  p :     0.084094
      px      :     0.015278
      py      :     0.029551
 84 H s       :     0.886762  s :     0.886762
      pz      :     0.035761  p :     0.083422
      px      :     0.031693
      py      :     0.015967
 85 H s       :     0.892871  s :     0.892871
      pz      :     0.022488  p :     0.079782
      px      :     0.014071
      py      :     0.043223
 86 H s       :     0.891057  s :     0.891057
      pz      :     0.024728  p :     0.078822
      px      :     0.032976
      py      :     0.021118
 87 H s       :     0.889852  s :     0.889852
      pz      :     0.048018  p :     0.078740
      px      :     0.015585
      py      :     0.015137
 88 H s       :     0.910508  s :     0.910508
      pz      :     0.021631  p :     0.087031
      px      :     0.042941
      py      :     0.022458
 89 H s       :     0.870945  s :     0.870945
      pz      :     0.037966  p :     0.083860
      px      :     0.030506
      py      :     0.015388


                      *****************************
                      * MAYER POPULATION ANALYSIS *
                      *****************************

  NA   - Mulliken gross atomic population
  ZA   - Total nuclear charge
  QA   - Mulliken gross atomic charge
  VA   - Mayer's total valence
  BVA  - Mayer's bonded valence
  FA   - Mayer's free valence

  ATOM       NA         ZA         QA         VA         BVA        FA
  0 C      5.7768     6.0000     0.2232     3.8499     3.8499    -0.0000
  1 N      7.4561     7.0000    -0.4561     3.3424     3.3424    -0.0000
  2 C      6.0773     6.0000    -0.0773     3.9253     3.9253    -0.0000
  3 N      7.3412     7.0000    -0.3412     3.4567     3.4567     0.0000
  4 C      6.0697     6.0000    -0.0697     4.1205     4.1205     0.0000
  5 N      7.5676     7.0000    -0.5676     3.0959     3.0959    -0.0000
  6 C      6.1133     6.0000    -0.1133     3.9356     3.9356     0.0000
  7 N      7.3410     7.0000    -0.3410     3.4321     3.4321    -0.0000
  8 C      5.7882     6.0000     0.2118     3.8464     3.8464    -0.0000
  9 N      7.5624     7.0000    -0.5624     3.0770     3.0770    -0.0000
 10 C      5.8804     6.0000     0.1196     3.9097     3.9097     0.0000
 11 N      7.4383     7.0000    -0.4383     3.3789     3.3789    -0.0000
 12 C      6.0534     6.0000    -0.0534     3.8460     3.8460     0.0000
 13 N      7.4292     7.0000    -0.4292     3.4290     3.4290     0.0000
 14 C      5.7887     6.0000     0.2113     3.7958     3.7958    -0.0000
 15 N      7.4411     7.0000    -0.4411     3.3720     3.3720     0.0000
 16 C      5.7661     6.0000     0.2339     3.7760     3.7760    -0.0000
 17 C      6.1262     6.0000    -0.1262     3.9511     3.9511    -0.0000
 18 C      6.1568     6.0000    -0.1568     3.7486     3.7486     0.0000
 19 C      5.7983     6.0000     0.2017     3.8706     3.8706     0.0000
 20 C      5.7858     6.0000     0.2142     3.8289     3.8289    -0.0000
 21 C      6.0642     6.0000    -0.0642     3.8390     3.8390     0.0000
 22 C      6.0895     6.0000    -0.0895     3.9823     3.9823     0.0000
 23 C      6.0396     6.0000    -0.0396     3.9925     3.9925     0.0000
 24 C      5.8062     6.0000     0.1938     3.8211     3.8211    -0.0000
 25 C      5.8855     6.0000     0.1145     3.8913     3.8913     0.0000
 26 C      6.0920     6.0000    -0.0920     3.9097     3.9097     0.0000
 27 C      5.7852     6.0000     0.2148     3.8612     3.8612    -0.0000
 28 C      6.0617     6.0000    -0.0617     3.9888     3.9888    -0.0000
 29 C      6.1835     6.0000    -0.1835     3.7471     3.7471     0.0000
 30 C      5.7536     6.0000     0.2464     3.7994     3.7994     0.0000
 31 C      5.7692     6.0000     0.2308     3.8170     3.8170    -0.0000
 32 C      6.0615     6.0000    -0.0615     3.9234     3.9234     0.0000
 33 C      6.0599     6.0000    -0.0599     3.9709     3.9709     0.0000
 34 C      6.0509     6.0000    -0.0509     3.9834     3.9834    -0.0000
 35 C      5.7714     6.0000     0.2286     3.8162     3.8162     0.0000
 36 C      5.8919     6.0000     0.1081     3.8745     3.8745     0.0000
 37 C      6.0642     6.0000    -0.0642     3.9177     3.9177    -0.0000
 38 C      5.7688     6.0000     0.2312     3.8016     3.8016    -0.0000
 39 C      6.0579     6.0000    -0.0579     3.9829     3.9829    -0.0000
 40 C      6.1810     6.0000    -0.1810     3.7263     3.7263    -0.0000
 41 C      5.7744     6.0000     0.2256     3.8875     3.8875    -0.0000
 42 C      5.8027     6.0000     0.1973     3.8256     3.8256    -0.0000
 43 C      6.0726     6.0000    -0.0726     3.8999     3.8999     0.0000
 44 C      6.0900     6.0000    -0.0900     3.9857     3.9857     0.0000
 45 C      6.0618     6.0000    -0.0618     3.9918     3.9918    -0.0000
 46 C      5.7885     6.0000     0.2115     3.8287     3.8287    -0.0000
 47 C      5.8846     6.0000     0.1154     3.8930     3.8930    -0.0000
 48 C      6.0667     6.0000    -0.0667     3.9093     3.9093     0.0000
 49 C      5.7616     6.0000     0.2384     3.8962     3.8962     0.0000
 50 C      6.0460     6.0000    -0.0460     3.9903     3.9903     0.0000
 51 C      6.1948     6.0000    -0.1948     3.7374     3.7374    -0.0000
 52 H      0.9643     1.0000     0.0357     0.9856     0.9856     0.0000
 53 H      1.0181     1.0000    -0.0181     0.9991     0.9991     0.0000
 54 H      0.9522     1.0000     0.0478     1.0287     1.0287    -0.0000
 55 H      0.9660     1.0000     0.0340     0.9866     0.9866     0.0000
 56 H      0.9512     1.0000     0.0488     0.9695     0.9695    -0.0000
 57 H      0.9520     1.0000     0.0480     0.9824     0.9824    -0.0000
 58 H      0.9540     1.0000     0.0460     0.9847     0.9847    -0.0000
 59 H      1.0109     1.0000    -0.0109     0.9980     0.9980     0.0000
 60 H      0.9542     1.0000     0.0458     1.0132     1.0132     0.0000
 61 H      0.8290     1.0000     0.1710     1.0421     1.0421     0.0000
 62 H      0.8243     1.0000     0.1757     1.0436     1.0436     0.0000
 63 H      0.9444     1.0000     0.0556     0.9852     0.9852     0.0000
 64 H      1.0174     1.0000    -0.0174     0.9954     0.9954    -0.0000
 65 H      0.9531     1.0000     0.0469     1.0100     1.0100     0.0000
 66 H      0.9443     1.0000     0.0557     0.9855     0.9855    -0.0000
 67 H      0.9373     1.0000     0.0627     0.9719     0.9719     0.0000
 68 H      0.9427     1.0000     0.0573     0.9868     0.9868    -0.0000
 69 H      0.9435     1.0000     0.0565     0.9828     0.9828     0.0000
 70 H      1.0300     1.0000    -0.0300     0.9940     0.9940     0.0000
 71 H      0.9549     1.0000     0.0451     1.0058     1.0058     0.0000
 72 H      0.9284     1.0000     0.0716     0.9835     0.9835    -0.0000
 73 H      1.0079     1.0000    -0.0079     1.0010     1.0010    -0.0000
 74 H      0.9393     1.0000     0.0607     1.0101     1.0101     0.0000
 75 H      0.9289     1.0000     0.0711     0.9838     0.9838    -0.0000
 76 H      0.9247     1.0000     0.0753     0.9721     0.9721    -0.0000
 77 H      0.9318     1.0000     0.0682     0.9855     0.9855     0.0000
 78 H      0.9325     1.0000     0.0675     0.9854     0.9854    -0.0000
 79 H      1.0165     1.0000    -0.0165     0.9975     0.9975    -0.0000
 80 H      0.9384     1.0000     0.0616     1.0072     1.0072    -0.0000
 81 H      0.9456     1.0000     0.0544     0.9856     0.9856    -0.0000
 82 H      1.0251     1.0000    -0.0251     0.9933     0.9933     0.0000
 83 H      0.9584     1.0000     0.0416     1.0083     1.0083    -0.0000
 84 H      0.9460     1.0000     0.0540     0.9852     0.9852     0.0000
 85 H      0.9392     1.0000     0.0608     0.9716     0.9716    -0.0000
 86 H      0.9446     1.0000     0.0554     0.9839     0.9839    -0.0000
 87 H      0.9428     1.0000     0.0572     0.9857     0.9857    -0.0000
 88 H      1.0143     1.0000    -0.0143     0.9968     0.9968    -0.0000
 89 H      0.9527     1.0000     0.0473     1.0074     1.0074     0.0000

  Mayer bond orders larger than 0.100000
B(  0-C ,  1-N ) :   1.1009 B(  0-C , 17-C ) :   1.7164 B(  0-C , 52-H ) :   0.9619 
B(  1-N ,  8-C ) :   1.0875 B(  1-N , 10-C ) :   0.9781 B(  2-C , 12-C ) :   1.4874 
B(  2-C , 16-C ) :   1.3727 B(  2-C , 53-H ) :   0.9731 B(  3-N , 14-C ) :   1.2214 
B(  3-N , 16-C ) :   1.1821 B(  3-N , 61-H ) :   0.8988 B(  4-C ,  6-C ) :   1.2172 
B(  4-C , 17-C ) :   1.2175 B(  4-C , 18-C ) :   1.4754 B(  5-N , 19-C ) :   1.4579 
B(  5-N , 27-C ) :   1.3712 B(  6-C ,  8-C ) :   1.7224 B(  6-C , 54-H ) :   0.8938 
B(  7-N , 30-C ) :   1.1950 B(  7-N , 38-C ) :   1.1896 B(  7-N , 62-H ) :   0.8967 
B(  8-C , 55-H ) :   0.9632 B(  9-N , 41-C ) :   1.3932 B(  9-N , 49-C ) :   1.4265 
B( 10-C , 56-H ) :   0.9775 B( 10-C , 57-H ) :   0.9830 B( 10-C , 58-H ) :   0.9835 
B( 11-N , 20-C ) :   1.1318 B( 11-N , 24-C ) :   1.1073 B( 11-N , 25-C ) :   0.9599 
B( 12-C , 14-C ) :   1.3591 B( 12-C , 59-H ) :   0.9372 B( 13-N , 31-C ) :   1.1626 
B( 13-N , 35-C ) :   1.1607 B( 13-N , 36-C ) :   0.9410 B( 14-C , 18-C ) :   1.1169 
B( 15-N , 42-C ) :   1.1073 B( 15-N , 46-C ) :   1.1244 B( 15-N , 47-C ) :   0.9614 
B( 16-C , 51-C ) :   1.1669 B( 17-C , 60-H ) :   0.8988 B( 18-C , 19-C ) :   1.1145 
B( 19-C , 21-C ) :   1.2531 B( 20-C , 28-C ) :   1.6280 B( 20-C , 63-H ) :   0.9702 
B( 21-C , 26-C ) :   1.5829 B( 21-C , 64-H ) :   0.9335 B( 22-C , 23-C ) :   1.2901 
B( 22-C , 28-C ) :   1.2644 B( 22-C , 29-C ) :   1.2256 B( 23-C , 24-C ) :   1.6194 
B( 23-C , 65-H ) :   0.9703 B( 24-C , 66-H ) :   0.9695 B( 25-C , 67-H ) :   0.9760 
B( 25-C , 68-H ) :   0.9828 B( 25-C , 69-H ) :   0.9823 B( 26-C , 27-C ) :   1.2601 
B( 26-C , 70-H ) :   0.9670 B( 27-C , 29-C ) :   1.2054 B( 28-C , 71-H ) :   0.9720 
B( 29-C , 30-C ) :   1.2481 B( 30-C , 32-C ) :   1.2774 B( 31-C , 39-C ) :   1.5870 
B( 31-C , 72-H ) :   0.9681 B( 32-C , 37-C ) :   1.5815 B( 32-C , 73-H ) :   0.9786 
B( 33-C , 34-C ) :   1.3080 B( 33-C , 39-C ) :   1.3045 B( 33-C , 40-C ) :   1.1743 
B( 34-C , 35-C ) :   1.5844 B( 34-C , 74-H ) :   0.9696 B( 35-C , 75-H ) :   0.9681 
B( 36-C , 76-H ) :   0.9768 B( 36-C , 77-H ) :   0.9815 B( 36-C , 78-H ) :   0.9823 
B( 37-C , 38-C ) :   1.2835 B( 37-C , 79-H ) :   0.9764 B( 38-C , 40-C ) :   1.2353 
B( 39-C , 80-H ) :   0.9705 B( 40-C , 41-C ) :   1.2510 B( 41-C , 43-C ) :   1.1845 
B( 42-C , 50-C ) :   1.6337 B( 42-C , 81-H ) :   0.9696 B( 43-C , 48-C ) :   1.6682 
B( 43-C , 82-H ) :   0.9720 B( 44-C , 45-C ) :   1.2629 B( 44-C , 50-C ) :   1.2719 
B( 44-C , 51-C ) :   1.2619 B( 45-C , 46-C ) :   1.6350 B( 45-C , 83-H ) :   0.9719 
B( 46-C , 84-H ) :   0.9700 B( 47-C , 85-H ) :   0.9762 B( 47-C , 86-H ) :   0.9829 
B( 47-C , 87-H ) :   0.9824 B( 48-C , 49-C ) :   1.1880 B( 48-C , 88-H ) :   0.9749 
B( 49-C , 51-C ) :   1.2448 B( 50-C , 89-H ) :   0.9708 

-------
TIMINGS
-------

Total SCF time: 0 days 0 hours 43 min 24 sec 

Total time                  ....    2604.425 sec
Sum of individual times     ....    2601.503 sec  ( 99.9%)

Fock matrix formation       ....    2583.835 sec  ( 99.2%)
Diagonalization             ....       4.788 sec  (  0.2%)
Density matrix formation    ....       0.501 sec  (  0.0%)
Population analysis         ....       0.313 sec  (  0.0%)
Initial guess               ....       2.282 sec  (  0.1%)
Orbital Transformation      ....       0.000 sec  (  0.0%)
Orbital Orthonormalization  ....       0.000 sec  (  0.0%)
DIIS solution               ....       2.621 sec  (  0.1%)
SOSCF solution              ....       5.841 sec  (  0.2%)

Maximum memory used throughout the entire SCF-calculation: 304.3 MB


           ************************************************************
           *        Program running with 8 parallel MPI-processes     *
           *              working on a common directory               *
           ************************************************************

------------------------------------------------------------------------------
                                ORCA  MP2 
------------------------------------------------------------------------------

Freezing NCore=104 chemical core electrons

----------
MP2 ENERGY (disk based algorithm)
----------

Dimension of the basis                    ...  918
Memory devoted to MP2                     ... 7000 MB   
Data format for buffers                   ... DOUBLE
Compression type for matrix containers    ... UNCOMPRESSED

-------------------------------
PARTIAL EXCHANGE TRANSFORMATION
-------------------------------

Transformation type                        ... one-operator
Generation of integrals (i,mue|j,nue)      ... ON
Generation of integrals (mue,kappa|nue,tau)... OFF
Generation of integrals (i,mue|a,nue)      ... OFF
Dimension of the basis                     ...  918
Number of internal MOs                     ...  127 (  52- 178)
Pair cutoff                                ... 2.500e-12 Eh
Number of AO pairs in the trafo            ... 421821
Total Number of distinct AO pairs          ... 421821
Memory devoted for trafo                   ... 7000.0 MB 
Max. Number of MO pairs treated together   ... 1088      
Number Format for Storage                  ... Double (8 Byte)
Integral package used                      ... LIBINT

Starting integral evaluation:
    ... done with AO integral generation
Closing buffer AOK     (38.24 GB; CompressionRatio= 1.33)
Collecting buffer AOK 
Number of MO pairs included in the trafo   ... 8128
------------------------
SORTING OF (i,mue|j,nue)
------------------------

IBATCH = 1 of  1
Closing buffer KAO     (51.03 GB; CompressionRatio= 1.00)
Collecting buffer KAO 
N(AO-Batches) Done                         ... 175213123 
N(AO-Batches) Skipped                      ... 167244775 
N(IJ)-pairs Skipped                        ...         0 
TOTAL TIME for half transformation         ...  1147.156 sec
AO-integral generation                     ...   248.950 sec
Half transformation                        ...   465.306 sec
K-integral sorting                         ...    99.940 sec

Finished integral transformation - now doing MP2 part

OPERATOR COMBINATION   0   0: ij=( 52..178, 52..178)
Process 2:   Internal MO  84
Process 5:   Internal MO 132
Process 0:   Internal MO  54
Process 0:   Internal MO  57
Process 1:   Internal MO  69
Process 0:   Internal MO  60
Process 4:   Internal MO 117
Process 0:   Internal MO  63
Process 1:   Internal MO  72
Process 3:   Internal MO 102
Process 2:   Internal MO  87
Process 0:   Internal MO  66
Process 7:   Internal MO 165
Process 1:   Internal MO  75
Process 6:   Internal MO 150
Process 2:   Internal MO  90
Process 1:   Internal MO  78
Process 5:   Internal MO 135
Process 3:   Internal MO 105
Process 4:   Internal MO 120
Process 1:   Internal MO  81
Process 2:   Internal MO  93
Process 3:   Internal MO 108
Process 2:   Internal MO  96
Process 7:   Internal MO 168
Process 4:   Internal MO 123
Process 6:   Internal MO 153
Process 5:   Internal MO 138
Process 2:   Internal MO  99
Process 3:   Internal MO 111
Process 4:   Internal MO 126
Process 5:   Internal MO 141
Process 3:   Internal MO 114
Process 6:   Internal MO 156
Process 7:   Internal MO 171
Process 4:   Internal MO 129
Process 5:   Internal MO 144
Process 6:   Internal MO 159
Process 7:   Internal MO 174
Process 5:   Internal MO 147
Process 6:   Internal MO 162
Process 7:   Internal MO 177
-----------------------------------------------
 MP2 CORRELATION ENERGY   :     -7.288035254 Eh
-----------------------------------------------


-------
TIMINGS
-------
Total time                : 1302.579 sec
Integral trafo            : 1156.652 sec ( 88.8%)
K(i,j)                    :    9.421 sec (  0.7%)
T(i,j)                    :    0.134 sec (  0.0%)

---------------------------------------
MP2 TOTAL ENERGY:    -2130.804017942 Eh
---------------------------------------

Maximum memory used throughout the entire MP2-calculation: 6735.8 MB

-------------------------   --------------------
FINAL SINGLE POINT ENERGY     -2130.804017942456
-------------------------   --------------------


                            ***************************************
                            *     ORCA property calculations      *
                            ***************************************


  WARNING: The energy has been calculated at the MP2 level but the densities
           used in the property calculations are still SCF densities
           MP2 response densities have not been calculated 
           use %mp2 Density relaxed end
           or  %mp2 Density unrelaxed end

                                    ---------------------
                                    Active property flags
                                    ---------------------
   (+) Dipole Moment


------------------------------------------------------------------------------
                       ORCA ELECTRIC PROPERTIES CALCULATION
------------------------------------------------------------------------------

Dipole Moment Calculation                       ... on
Quadrupole Moment Calculation                   ... off
Polarizability Calculation                      ... off
GBWName                                         ... /scratch/chu_02/allen/tmpyp4_amber_gaff2/conf1/conf1/Conf349.orca.gbw
Electron density                                ... /scratch/chu_02/allen/tmpyp4_amber_gaff2/conf1/conf1/Conf349.orca.scfp
The origin for moment calculation is the CENTER OF MASS  = (-0.001405, -0.005035  0.001454)

-------------
DIPOLE MOMENT
-------------
                                X             Y             Z
Electronic contribution:      2.81585      -4.40509      -0.07390
Nuclear contribution   :     -0.02600       0.16992       0.08617
                        -----------------------------------------
Total Dipole Moment    :      2.78985      -4.23517       0.01227
                        -----------------------------------------
Magnitude (a.u.)       :      5.07150
Magnitude (Debye)      :     12.89072



--------------------
Rotational spectrum 
--------------------
 
Rotational constants in cm-1:     0.001503     0.001477     0.000760 
Rotational constants in MHz :    45.068652    44.290601    22.784436 

 Dipole components along the rotational axes: 
x,y,z [a.u.] :     3.513659    -3.657054     0.015021 
x,y,z [Debye]:     8.931010    -9.295492     0.038180 

 

Timings for individual modules:

Sum of individual times         ...     3913.218 sec (=  65.220 min)
GTO integral calculation        ...        2.764 sec (=   0.046 min)   0.1 %
SCF iterations                  ...     2605.709 sec (=  43.428 min)  66.6 %
MP2 module                      ...     1304.746 sec (=  21.746 min)  33.3 %
                             ****ORCA TERMINATED NORMALLY****
TOTAL RUN TIME: 0 days 1 hours 5 minutes 15 seconds 262 msec
# of primitive gaussian functions

