
                                 *****************
                                 * O   R   C   A *
                                 *****************

                                            #,                                       
                                            ###                                      
                                            ####                                     
                                            #####                                    
                                            ######                                   
                                           ########,                                 
                                     ,,################,,,,,                         
                               ,,#################################,,                 
                          ,,##########################################,,             
                       ,#########################################, ''#####,          
                    ,#############################################,,   '####,        
                  ,##################################################,,,,####,       
                ,###########''''           ''''###############################       
              ,#####''   ,,,,##########,,,,          '''####'''          '####       
            ,##' ,,,,###########################,,,                        '##       
           ' ,,###''''                  '''############,,,                           
         ,,##''                                '''############,,,,        ,,,,,,###''
      ,#''                                            '''#######################'''  
     '                                                          ''''####''''         
             ,#######,   #######,   ,#######,      ##                                
            ,#'     '#,  ##    ##  ,#'     '#,    #''#        ######   ,####,        
            ##       ##  ##   ,#'  ##            #'  '#       #        #'  '#        
            ##       ##  #######   ##           ,######,      #####,   #    #        
            '#,     ,#'  ##    ##  '#,     ,#' ,#      #,         ##   #,  ,#        
             '#######'   ##     ##  '#######'  #'      '#     #####' # '####'        



                  #######################################################
                  #                        -***-                        #
                  #          Department of theory and spectroscopy      #
                  #    Directorship and core code : Frank Neese         #
                  #        Max Planck Institute fuer Kohlenforschung    #
                  #                Kaiser Wilhelm Platz 1               #
                  #                 D-45470 Muelheim/Ruhr               #
                  #                      Germany                        #
                  #                                                     #
                  #                  All rights reserved                #
                  #                        -***-                        #
                  #######################################################


                         Program Version 5.0.4 -  RELEASE  -


 With contributions from (in alphabetic order):
   Daniel Aravena         : Magnetic Suceptibility
   Michael Atanasov       : Ab Initio Ligand Field Theory (pilot matlab implementation)
   Alexander A. Auer      : GIAO ZORA, VPT2 properties, NMR spectrum
   Ute Becker             : Parallelization
   Giovanni Bistoni       : ED, misc. LED, open-shell LED, HFLD
   Martin Brehm           : Molecular dynamics
   Dmytro Bykov           : SCF Hessian
   Vijay G. Chilkuri      : MRCI spin determinant printing, contributions to CSF-ICE
   Dipayan Datta          : RHF DLPNO-CCSD density
   Achintya Kumar Dutta   : EOM-CC, STEOM-CC
   Dmitry Ganyushin       : Spin-Orbit,Spin-Spin,Magnetic field MRCI
   Miquel Garcia          : C-PCM and meta-GGA Hessian, CC/C-PCM, Gaussian charge scheme
   Yang Guo               : DLPNO-NEVPT2, F12-NEVPT2, CIM, IAO-localization
   Andreas Hansen         : Spin unrestricted coupled pair/coupled cluster methods
   Benjamin Helmich-Paris : MC-RPA, TRAH-SCF, COSX integrals
   Lee Huntington         : MR-EOM, pCC
   Robert Izsak           : Overlap fitted RIJCOSX, COSX-SCS-MP3, EOM
   Marcus Kettner         : VPT2
   Christian Kollmar      : KDIIS, OOCD, Brueckner-CCSD(T), CCSD density, CASPT2, CASPT2-K
   Simone Kossmann        : Meta GGA functionals, TD-DFT gradient, OOMP2, MP2 Hessian
   Martin Krupicka        : Initial AUTO-CI
   Lucas Lang             : DCDCAS
   Marvin Lechner         : AUTO-CI (C++ implementation), FIC-MRCC
   Dagmar Lenk            : GEPOL surface, SMD
   Dimitrios Liakos       : Extrapolation schemes; Compound Job, initial MDCI parallelization
   Dimitrios Manganas     : Further ROCIS development; embedding schemes
   Dimitrios Pantazis     : SARC Basis sets
   Anastasios Papadopoulos: AUTO-CI, single reference methods and gradients
   Taras Petrenko         : DFT Hessian,TD-DFT gradient, ASA, ECA, R-Raman, ABS, FL, XAS/XES, NRVS
   Peter Pinski           : DLPNO-MP2, DLPNO-MP2 Gradient
   Christoph Reimann      : Effective Core Potentials
   Marius Retegan         : Local ZFS, SOC
   Christoph Riplinger    : Optimizer, TS searches, QM/MM, DLPNO-CCSD(T), (RO)-DLPNO pert. Triples
   Tobias Risthaus        : Range-separated hybrids, TD-DFT gradient, RPA, STAB
   Michael Roemelt        : Original ROCIS implementation
   Masaaki Saitow         : Open-shell DLPNO-CCSD energy and density
   Barbara Sandhoefer     : DKH picture change effects
   Avijit Sen             : IP-ROCIS
   Kantharuban Sivalingam : CASSCF convergence, NEVPT2, FIC-MRCI
   Bernardo de Souza      : ESD, SOC TD-DFT
   Georgi Stoychev        : AutoAux, RI-MP2 NMR, DLPNO-MP2 response
   Willem Van den Heuvel  : Paramagnetic NMR
   Boris Wezisla          : Elementary symmetry handling
   Frank Wennmohs         : Technical directorship


 We gratefully acknowledge several colleagues who have allowed us to
 interface, adapt or use parts of their codes:
   Stefan Grimme, W. Hujo, H. Kruse, P. Pracht,  : VdW corrections, initial TS optimization,
                  C. Bannwarth, S. Ehlert          DFT functionals, gCP, sTDA/sTD-DF
   Ed Valeev, F. Pavosevic, A. Kumar             : LibInt (2-el integral package), F12 methods
   Garnet Chan, S. Sharma, J. Yang, R. Olivares  : DMRG
   Ulf Ekstrom                                   : XCFun DFT Library
   Mihaly Kallay                                 : mrcc  (arbitrary order and MRCC methods)
   Jiri Pittner, Ondrej Demel                    : Mk-CCSD
   Frank Weinhold                                : gennbo (NPA and NBO analysis)
   Christopher J. Cramer and Donald G. Truhlar   : smd solvation model
   Lars Goerigk                                  : TD-DFT with DH, B97 family of functionals
   V. Asgeirsson, H. Jonsson                     : NEB implementation
   FAccTs GmbH                                   : IRC, NEB, NEB-TS, DLPNO-Multilevel, CI-OPT
                                                   MM, QMMM, 2- and 3-layer-ONIOM, Crystal-QMMM,
                                                   LR-CPCM, SF, NACMEs, symmetry and pop. for TD-DFT,
                                                   nearIR, NL-DFT gradient (VV10), updates on ESD,
                                                   ML-optimized integration grids
   S Lehtola, MJT Oliveira, MAL Marques          : LibXC Library
   Liviu Ungur et al                             : ANISO software


 Your calculation uses the libint2 library for the computation of 2-el integrals
 For citations please refer to: http://libint.valeyev.net

 Your ORCA version has been built with support for libXC version: 5.1.0
 For citations please refer to: https://tddft.org/programs/libxc/

 This ORCA versions uses:
   CBLAS   interface :  Fast vector & matrix operations
   LAPACKE interface :  Fast linear algebra routines
   SCALAPACK package :  Parallel linear algebra routines
   Shared memory     :  Shared parallel matrices
   BLAS/LAPACK       :  OpenBLAS 0.3.15  USE64BITINT DYNAMIC_ARCH NO_AFFINITY Sandybridge SINGLE_THREADED
        Core in use  :  Sandybridge
   Copyright (c) 2011-2014, The OpenBLAS Project


================================================================================

----- Orbital basis set information -----
Your calculation utilizes the basis: cc-pVDZ 
       H, B-Ne : Obtained from the ccRepo (grant-hill.group.shef.ac.uk/ccrepo) Feb. 2017
                 T. H. Dunning, Jr., J. Chem. Phys. 90, 1007 (1989)
            He : Obtained from the ccRepo (grant-hill.group.shef.ac.uk/ccrepo) Feb. 2017
                 D. E. Woon, T. H. Dunning, Jr., J. Chem. Phys. 100, 2975 (1994)
  Li-Be, Na-Mg : Obtained from the ccRepo (grant-hill.group.shef.ac.uk/ccrepo) Feb. 2017
                 B. P. Prascher, D. E. Woon, K. A. Peterson, T. H. Dunning, Jr., A. K. Wilson, Theor. Chem. Acc. 128, 69 (2011)
         Al-Ar : Obtained from the ccRepo (grant-hill.group.shef.ac.uk/ccrepo) Feb. 2017
                 D. E. Woon, T. H. Dunning, Jr., J. Chem. Phys. 98, 1358 (1993)
            Ca : Obtained from the Peterson Research Group Website (tyr0.chem.wsu.edu/~kipeters) Feb. 2017
                 J. Koput, K. A. Peterson, J. Phys. Chem. 106, 9595 (2002)
         Sc-Zn : Obtained from the ccRepo (grant-hill.group.shef.ac.uk/ccrepo) Feb. 2017
                 N. B. Balabanov, K. A. Peterson, J. Chem. Phys. 123, 064107 (2005)
                 N. B. Balabanov, K. A. Peterson, J. Chem. Phys. 125, 074110 (2006)
         Ga-Kr : Obtained from the ccRepo (grant-hill.group.shef.ac.uk/ccrepo) Feb. 2017
                 A. K. Wilson, D. E. Woon, K. A. Peterson, T. H. Dunning, Jr., J. Chem. Phys. 110, 7667 (1999)

================================================================================
                                        WARNINGS
                       Please study these warnings very carefully!
================================================================================


WARNING: No MP2 level density has been requested!
         To caclulate MP2 level properties use
         %mp2 Density relaxed end
         or
         %mp2 Density unrelaxed end

WARNING: Post HF methods need fully converged wavefunctions
  ===> : Setting SCFConvForced true
         You can overwrite this default with %scf ConvForced false 


INFO   : the flag for use of the SHARK integral package has been found!

================================================================================
                                       INPUT FILE
================================================================================
NAME = /scratch/allen/tmpyp4_amber_gaff2/2.Mdgx/conf11/conf11/Conf237.orca
|  1> ! PAL2
|  2> ! mp2 cc-pvdz TightSCF  NoKeepInts
|  3> 
|  4> %scf
|  5>   MaxCore 2000
|  6> end
|  7> %mp2
|  8>   MaxCore 2000
|  9> end
| 10> * xyz 0 1
| 11>    C       -4.54100         5.44600         1.03500
| 12>    C        1.47400         4.04100         0.05700
| 13>    C       -2.80200         4.09300         0.04900
| 14>    C       -2.65600         5.08600        -0.93100
| 15>    C       -3.44600         6.21700        -0.89600
| 16>    C       -5.18000         7.62500         0.10700
| 17>    C        0.13200         4.30700         0.06100
| 18>    C       -0.56900         3.05600         0.04700
| 19>    C        1.64900         2.61800         0.02300
| 20>    C       -3.76900         4.30000         1.04500
| 21>    N       -4.37500         6.38400         0.07500
| 22>    N        0.38800         2.06700         0.02500
| 23>    N       -2.01000         0.39500        -0.07500
| 24>    N       -0.38800        -2.07400        -0.02700
| 25>    N        2.01000        -0.40100         0.06500
| 26>    C       -1.96000         2.86100         0.02400
| 27>    C       -2.62300         1.61500        -0.01800
| 28>    C       -5.57300        -4.32900         1.06600
| 29>    C       -4.07300         1.47100         0.05600
| 30>    C       -4.10600        -2.75600        -0.02600
| 31>    C       -4.99500        -2.75700        -1.11100
| 32>    C       -6.13200        -3.54200        -1.07600
| 33>    C       -7.65100        -5.11300         0.04000
| 34>    C       -4.32400         0.14100         0.03700
| 35>    C       -3.02500        -0.52000        -0.04800
| 36>    C       -4.42200        -3.56600         1.07500
| 37>    N       -6.40700        -4.31300         0.00100
| 38>    C       -2.86700        -1.92200        -0.04000
| 39>    C       -1.65000        -2.62400        -0.02700
| 40>    C        3.56800        -6.14200        -1.04000
| 41>    C       -1.47600        -4.04900        -0.03400
| 42>    C        2.80300        -4.09900        -0.00800
| 43>    C        3.65700        -4.38400         1.06900
| 44>    C        4.42700        -5.53000         1.05900
| 45>    C        5.24500        -7.58800         0.01400
| 46>    C       -0.13400        -4.31500        -0.02200
| 47>    C        0.56800        -3.06400        -0.02700
| 48>    C        2.77500        -5.01200        -1.07400
| 49>    N        4.37600        -6.39100         0.01700
| 50>    C        1.95900        -2.86900        -0.00900
| 51>    C        2.62100        -1.62200         0.00900
| 52>    C        5.54300         4.33900        -1.13000
| 53>    C        4.07000        -1.47900        -0.09400
| 54>    C        4.10400         2.75100        -0.02100
| 55>    C        5.02700         2.72900         1.03600
| 56>    C        6.16600         3.50900         0.97800
| 57>    C        7.61900         5.15300        -0.11500
| 58>    C        4.32100        -0.14800        -0.09200
| 59>    C        3.02500         0.51400         0.01500
| 60>    C        4.38700         3.58200        -1.11500
| 61>    C        2.86600         1.91600         0.01300
| 62>    N        6.41300         4.29600        -0.09500
| 63>    H       -5.30600         5.64100         1.77500
| 64>    H        2.27400         4.76600         0.08100
| 65>    H       -1.92000         4.98900        -1.72100
| 66>    H       -3.36400         7.01400        -1.62500
| 67>    H       -4.62600         8.39400         0.64900
| 68>    H       -5.36700         7.94800        -0.91700
| 69>    H       -6.12400         7.41700         0.61100
| 70>    H       -0.33200         5.28200         0.06900
| 71>    H       -3.94000         3.56300         1.82100
| 72>    H        0.18200         1.07200         0.00500
| 73>    H       -0.18300        -1.08000        -0.02100
| 74>    H       -5.86400        -4.96200         1.89500
| 75>    H       -4.79400         2.27200         0.13900
| 76>    H       -4.80000        -2.16000        -1.99400
| 77>    H       -6.84100        -3.58200        -1.89300
| 78>    H       -8.42800        -4.53600         0.54600
| 79>    H       -7.95600        -5.33700        -0.98100
| 80>    H       -7.45600        -6.03700         0.58400
| 81>    H       -5.28700        -0.34400         0.10000
| 82>    H       -3.78000        -3.60100         1.94700
| 83>    H        3.58700        -6.86800        -1.84300
| 84>    H       -2.27600        -4.77400        -0.05000
| 85>    H        3.71400        -3.72400         1.92600
| 86>    H        5.09200        -5.79500         1.87100
| 87>    H        6.20500        -7.32900        -0.43900
| 88>    H        5.39300        -7.91700         1.04200
| 89>    H        4.75900        -8.37300        -0.56400
| 90>    H        0.32900        -5.29000        -0.00800
| 91>    H        2.14600        -4.84200        -1.94000
| 92>    H        5.80800         4.98600        -1.95600
| 93>    H        4.78800        -2.28100        -0.18500
| 94>    H        4.86000         2.11400         1.91200
| 95>    H        6.90100         3.53100         1.77200
| 96>    H        7.38300         6.10900         0.35600
| 97>    H        8.41400         4.65200         0.43500
| 98>    H        7.92100         5.31000        -1.15000
| 99>    H        5.28300         0.33600        -0.17900
|100>    H        3.72000         3.63200        -1.96700
|101> *
|102> 
|103>                          ****END OF INPUT****
================================================================================

                       ****************************
                       * Single Point Calculation *
                       ****************************

---------------------------------
CARTESIAN COORDINATES (ANGSTROEM)
---------------------------------
  C     -4.541000    5.446000    1.035000
  C      1.474000    4.041000    0.057000
  C     -2.802000    4.093000    0.049000
  C     -2.656000    5.086000   -0.931000
  C     -3.446000    6.217000   -0.896000
  C     -5.180000    7.625000    0.107000
  C      0.132000    4.307000    0.061000
  C     -0.569000    3.056000    0.047000
  C      1.649000    2.618000    0.023000
  C     -3.769000    4.300000    1.045000
  N     -4.375000    6.384000    0.075000
  N      0.388000    2.067000    0.025000
  N     -2.010000    0.395000   -0.075000
  N     -0.388000   -2.074000   -0.027000
  N      2.010000   -0.401000    0.065000
  C     -1.960000    2.861000    0.024000
  C     -2.623000    1.615000   -0.018000
  C     -5.573000   -4.329000    1.066000
  C     -4.073000    1.471000    0.056000
  C     -4.106000   -2.756000   -0.026000
  C     -4.995000   -2.757000   -1.111000
  C     -6.132000   -3.542000   -1.076000
  C     -7.651000   -5.113000    0.040000
  C     -4.324000    0.141000    0.037000
  C     -3.025000   -0.520000   -0.048000
  C     -4.422000   -3.566000    1.075000
  N     -6.407000   -4.313000    0.001000
  C     -2.867000   -1.922000   -0.040000
  C     -1.650000   -2.624000   -0.027000
  C      3.568000   -6.142000   -1.040000
  C     -1.476000   -4.049000   -0.034000
  C      2.803000   -4.099000   -0.008000
  C      3.657000   -4.384000    1.069000
  C      4.427000   -5.530000    1.059000
  C      5.245000   -7.588000    0.014000
  C     -0.134000   -4.315000   -0.022000
  C      0.568000   -3.064000   -0.027000
  C      2.775000   -5.012000   -1.074000
  N      4.376000   -6.391000    0.017000
  C      1.959000   -2.869000   -0.009000
  C      2.621000   -1.622000    0.009000
  C      5.543000    4.339000   -1.130000
  C      4.070000   -1.479000   -0.094000
  C      4.104000    2.751000   -0.021000
  C      5.027000    2.729000    1.036000
  C      6.166000    3.509000    0.978000
  C      7.619000    5.153000   -0.115000
  C      4.321000   -0.148000   -0.092000
  C      3.025000    0.514000    0.015000
  C      4.387000    3.582000   -1.115000
  C      2.866000    1.916000    0.013000
  N      6.413000    4.296000   -0.095000
  H     -5.306000    5.641000    1.775000
  H      2.274000    4.766000    0.081000
  H     -1.920000    4.989000   -1.721000
  H     -3.364000    7.014000   -1.625000
  H     -4.626000    8.394000    0.649000
  H     -5.367000    7.948000   -0.917000
  H     -6.124000    7.417000    0.611000
  H     -0.332000    5.282000    0.069000
  H     -3.940000    3.563000    1.821000
  H      0.182000    1.072000    0.005000
  H     -0.183000   -1.080000   -0.021000
  H     -5.864000   -4.962000    1.895000
  H     -4.794000    2.272000    0.139000
  H     -4.800000   -2.160000   -1.994000
  H     -6.841000   -3.582000   -1.893000
  H     -8.428000   -4.536000    0.546000
  H     -7.956000   -5.337000   -0.981000
  H     -7.456000   -6.037000    0.584000
  H     -5.287000   -0.344000    0.100000
  H     -3.780000   -3.601000    1.947000
  H      3.587000   -6.868000   -1.843000
  H     -2.276000   -4.774000   -0.050000
  H      3.714000   -3.724000    1.926000
  H      5.092000   -5.795000    1.871000
  H      6.205000   -7.329000   -0.439000
  H      5.393000   -7.917000    1.042000
  H      4.759000   -8.373000   -0.564000
  H      0.329000   -5.290000   -0.008000
  H      2.146000   -4.842000   -1.940000
  H      5.808000    4.986000   -1.956000
  H      4.788000   -2.281000   -0.185000
  H      4.860000    2.114000    1.912000
  H      6.901000    3.531000    1.772000
  H      7.383000    6.109000    0.356000
  H      8.414000    4.652000    0.435000
  H      7.921000    5.310000   -1.150000
  H      5.283000    0.336000   -0.179000
  H      3.720000    3.632000   -1.967000

----------------------------
CARTESIAN COORDINATES (A.U.)
----------------------------
  NO LB      ZA    FRAG     MASS         X           Y           Z
   0 C     6.0000    0    12.011   -8.581246   10.291449    1.955867
   1 C     6.0000    0    12.011    2.785456    7.636383    0.107714
   2 C     6.0000    0    12.011   -5.295013    7.734649    0.092597
   3 C     6.0000    0    12.011   -5.019113    9.611147   -1.759335
   4 C     6.0000    0    12.011   -6.511996   11.748427   -1.693195
   5 C     6.0000    0    12.011   -9.788781   14.409162    0.202201
   6 C     6.0000    0    12.011    0.249444    8.139050    0.115273
   7 C     6.0000    0    12.011   -1.075254    5.775003    0.088817
   8 C     6.0000    0    12.011    3.116158    4.947303    0.043464
   9 C     6.0000    0    12.011   -7.122378    8.125822    1.974764
  10 N     7.0000    0    14.007   -8.267552   12.064012    0.141729
  11 N     7.0000    0    14.007    0.733214    3.906064    0.047243
  12 N     7.0000    0    14.007   -3.798350    0.746442   -0.141729
  13 N     7.0000    0    14.007   -0.733214   -3.919292   -0.051023
  14 N     7.0000    0    14.007    3.798350   -0.757780    0.122832
  15 C     6.0000    0    12.011   -3.703863    5.406506    0.045353
  16 C     6.0000    0    12.011   -4.956752    3.051908   -0.034015
  17 C     6.0000    0    12.011  -10.531444   -8.180624    2.014448
  18 C     6.0000    0    12.011   -7.696855    2.779787    0.105825
  19 C     6.0000    0    12.011   -7.759216   -5.208085   -0.049133
  20 C     6.0000    0    12.011   -9.439182   -5.209975   -2.099486
  21 C     6.0000    0    12.011  -11.587801   -6.693410   -2.033345
  22 C     6.0000    0    12.011  -14.458295   -9.662170    0.075589
  23 C     6.0000    0    12.011   -8.171176    0.266451    0.069920
  24 C     6.0000    0    12.011   -5.716422   -0.982658   -0.090707
  25 C     6.0000    0    12.011   -8.356369   -6.738763    2.031456
  26 N     7.0000    0    14.007  -12.107475   -8.150389    0.001890
  27 C     6.0000    0    12.011   -5.417845   -3.632054   -0.075589
  28 C     6.0000    0    12.011   -3.118048   -4.958641   -0.051023
  29 C     6.0000    0    12.011    6.742543  -11.606698   -1.965315
  30 C     6.0000    0    12.011   -2.789236   -7.651501   -0.064251
  31 C     6.0000    0    12.011    5.296902   -7.745987   -0.015118
  32 C     6.0000    0    12.011    6.910728   -8.284559    2.020117
  33 C     6.0000    0    12.011    8.365818  -10.450186    2.001220
  34 C     6.0000    0    12.011    9.911614  -14.339242    0.026456
  35 C     6.0000    0    12.011   -0.253223   -8.154168   -0.041574
  36 C     6.0000    0    12.011    1.073364   -5.790121   -0.051023
  37 C     6.0000    0    12.011    5.243990   -9.471307   -2.029566
  38 N     7.0000    0    14.007    8.269442  -12.077240    0.032125
  39 C     6.0000    0    12.011    3.701973   -5.421624   -0.017008
  40 C     6.0000    0    12.011    4.952972   -3.065136    0.017008
  41 C     6.0000    0    12.011   10.474752    8.199522   -2.135391
  42 C     6.0000    0    12.011    7.691185   -2.794905   -0.177634
  43 C     6.0000    0    12.011    7.755436    5.198637   -0.039684
  44 C     6.0000    0    12.011    9.499653    5.157063    1.957756
  45 C     6.0000    0    12.011   11.652051    6.631049    1.848152
  46 C     6.0000    0    12.011   14.397823    9.737759   -0.217319
  47 C     6.0000    0    12.011    8.165507   -0.279679   -0.173855
  48 C     6.0000    0    12.011    5.716422    0.971319    0.028346
  49 C     6.0000    0    12.011    8.290229    6.768999   -2.107045
  50 C     6.0000    0    12.011    5.415955    3.620715    0.024566
  51 N     7.0000    0    14.007   12.118814    8.118263   -0.179524
  52 H     1.0000    0     1.008  -10.026887   10.659945    3.354264
  53 H     1.0000    0     1.008    4.297237    9.006435    0.153068
  54 H     1.0000    0     1.008   -3.628274    9.427844   -3.252219
  55 H     1.0000    0     1.008   -6.357039   13.254539   -3.070805
  56 H     1.0000    0     1.008   -8.741873   15.862361    1.226432
  57 H     1.0000    0     1.008  -10.142160   15.019543   -1.732879
  58 H     1.0000    0     1.008  -11.572683   14.016099    1.154623
  59 H     1.0000    0     1.008   -0.627389    9.981533    0.130391
  60 H     1.0000    0     1.008   -7.445521    6.733094    3.441191
  61 H     1.0000    0     1.008    0.343930    2.025786    0.009449
  62 H     1.0000    0     1.008   -0.345820   -2.040904   -0.039684
  63 H     1.0000    0     1.008  -11.081354   -9.376821    3.581031
  64 H     1.0000    0     1.008   -9.059347    4.293458    0.262672
  65 H     1.0000    0     1.008   -9.070685   -4.081808   -3.768114
  66 H     1.0000    0     1.008  -12.927616   -6.768999   -3.577252
  67 H     1.0000    0     1.008  -15.926612   -8.571798    1.031790
  68 H     1.0000    0     1.008  -15.034661  -10.085468   -1.853821
  69 H     1.0000    0     1.008  -14.089798  -11.408277    1.103600
  70 H     1.0000    0     1.008   -9.990982   -0.650066    0.188973
  71 H     1.0000    0     1.008   -7.143165   -6.804904    3.679297
  72 H     1.0000    0     1.008    6.778448  -12.978639   -3.482765
  73 H     1.0000    0     1.008   -4.301017   -9.021553   -0.094486
  74 H     1.0000    0     1.008    7.018443   -7.037340    3.639613
  75 H     1.0000    0     1.008    9.622485  -10.950963    3.535678
  76 H     1.0000    0     1.008   11.725751  -13.849803   -0.829590
  77 H     1.0000    0     1.008   10.191293  -14.960962    1.969095
  78 H     1.0000    0     1.008    8.993207  -15.822677   -1.065806
  79 H     1.0000    0     1.008    0.621720   -9.996651   -0.015118
  80 H     1.0000    0     1.008    4.055352   -9.150054   -3.666069
  81 H     1.0000    0     1.008   10.975529    9.422175   -3.696304
  82 H     1.0000    0     1.008    9.048009   -4.310465   -0.349599
  83 H     1.0000    0     1.008    9.184069    3.994881    3.613156
  84 H     1.0000    0     1.008   13.041000    6.672623    3.348595
  85 H     1.0000    0     1.008   13.951848   11.544337    0.672743
  86 H     1.0000    0     1.008   15.900156    8.791006    0.822031
  87 H     1.0000    0     1.008   14.968521   10.034446   -2.173185
  88 H     1.0000    0     1.008    9.983423    0.634948   -0.338261
  89 H     1.0000    0     1.008    7.029781    6.863485   -3.717091

--------------------------------
INTERNAL COORDINATES (ANGSTROEM)
--------------------------------
 C      0   0   0     0.000000000000     0.00000000     0.00000000
 C      1   0   0     6.253857529557     0.00000000     0.00000000
 C      1   2   0     2.413902649238    28.03069159     0.00000000
 C      3   1   2     1.402770473028    87.91229502   280.11493091
 C      4   3   1     1.380031159069   120.18847058     0.15658199
 C      5   4   3     2.448515672811   152.50656027     1.60956049
 C      2   1   3     1.368114030335     9.03758389    41.94463716
 C      7   2   3     1.434084376876   108.05010202     0.84668783
 C      2   1   3     1.434123425651   110.12024399   322.50623038
 C      1   2   3     1.381810406677    43.73545527    45.77607903
 N      1   2   3     1.352405264704    85.79966275   260.78800573
 N      9   2   1     1.376127174356   106.58526707     8.59380500
 N     12   9   2     2.925062050624   168.53581413   171.12065651
 N     13  12   9     2.954513327098    91.55032014    11.12112580
 N     14  13  12     2.925371258490    88.43092389   359.84326247
 C      8   7   2     1.404790019896   127.24786865   181.11170171
 C     13  12   9     1.366535034311    81.72106996   188.00453233
 C     14  13  12     5.758810554272    80.56209567   166.76250791
 C     17  13  12     1.459010623676   111.08861209   183.82872609
 C     18  14  13     2.412235892279    27.27532823    36.33507194
 C     20  18  14     1.402692767501    87.95206320   148.94598259
 C     21  20  18     1.382106725257   120.14573887   359.70382047
 C     18  14  13     2.446510985056   144.15733107    82.80075377
 C     19  17  13     1.353610726908   106.29293361   359.75308708
 C     13  12   9     1.366813447402   172.21332906    33.46711076
 C     18  14  13     1.380960173213    15.08449437   309.23336894
 N     22  21  20     1.352773077792   120.73759875     0.27865223
 C     25  13  17     1.410897586645   125.60330303   182.37774668
 C     14  13  12     1.376642291955    80.24689249   177.85461986
 C     14  13  12     5.764089607215   164.51507311   312.20821879
 C     29  14  13     1.435600919476   106.58649366   178.76395472
 C     30  14  13     2.413316804732    27.10625047    82.12560436
 C     32  30  14     1.403734305344    87.90059683   149.76154742
 C     33  32  30     1.380694028378   120.14881443   359.74174632
 C     34  33  32     2.448777858443   152.49203239     2.45173620
 C     31  29  14     1.368160809262   108.16950133     0.70383075
 C     14  13  12     1.376239804685   169.26375223   353.09862627
 C     30  14  13     1.380907310430    14.68948582   353.70041132
 N     34  33  32     1.352658863128   120.85575621     0.19603406
 C     37  14  29     1.404717053360   126.01551127   180.90772073
 C     15  14  13     1.366491126938    81.61824056   183.09049352
 C      2   1   3     4.249062720177   161.61857224   119.50288053
 C     41  15  14     1.459677704153   111.05201287   175.08990246
 C     42   2   1     2.412953791518    41.78584867   177.91540565
 C     44  42   2     1.403446472082    87.95153797   233.97558675
 C     45  44  42     1.381696421071   120.11137308     0.19721020
 C     42   2   1     2.450019795838   135.97209175    88.23025475
 C     43  41  15     1.354461516618   106.26758155     0.30894352
 C     15  14  13     1.367461151185   171.87382904   332.35056460
 C     42   2   1     1.381886391857    32.59078432   226.77068484
 C      9   2   1     1.404988612053   126.98745415   189.59814253
 N     42   2   1     1.352765315936   113.57249190   115.96684394
 H      1   2   3     1.082058223942   145.83442530   127.13231608
 H      2   1   3     1.079907866440   123.93190892   152.04539323
 H      4   3   1     1.084068724759   121.09309086   179.54558238
 H      5   4   3     1.083223891908   122.86028953   179.45635858
 H      6   5   4     1.091806301502   104.42031687   100.10540095
 H      6   5   4     1.089896325345    84.66706825   209.58636308
 H      6   5   4     1.090144944491   133.86099371   322.36408800
 H      7   2  54     1.079807853278   126.66122480     1.30600390
 H     10   1   2     1.083783188650   118.75128516   139.15434605
 H     12   9   2     1.016297692608   125.29023241   180.00180175
 H     14  13  12     1.014936943854    44.97226959   359.42596618
 H     18  14  13     1.082871645210   128.03556573   234.20482432
 H     19  17  13     1.080893611786   126.41830519   178.11313280
 H     21  20  18     1.083569563987   121.05669627   180.67006309
 H     22  21  20     1.082483256222   122.73097286   180.59748951
 H     23  18  14     1.092105306278   103.92715769   234.93429879
 H     23  18  14     1.088871893291   134.19244188    12.25587044
 H     23  18  14     1.089833473518    84.85857450   125.45241208
 H     24  19  17     1.080075460327   127.28078426   178.44613241
 H     26  18  14     1.083408048706   118.76995697   244.94906660
 H     30  14  13     1.082703098730   127.99711412   279.66882698
 H     31  29  14     1.079759695488   125.22293469   180.92530585
 H     33  32  30     1.083188810873   121.01964473   180.74284758
 H     34  33  32     1.082494341787   122.70821597   180.59516895
 H     35  34  33     1.092652735319   105.73575241    97.19771933
 H     35  34  33     1.089462711615    84.05943581   206.43036958
 H     35  34  33     1.089268102902   133.08365142   318.50306270
 H     36  31  29     1.079439669458   126.61599965   178.98859863
 H     38  30  73     1.083742127999   118.77264435   359.90091293
 H     42   2   1     1.082178358682   119.31790784   332.59837439
 H     43  41  15     1.080281907652   126.36969097   182.06329380
 H     45  44  42     1.083277434455   121.10105945   179.58025624
 H     46  45  44     1.082194529648   122.72144639   179.46906377
 H     47  42   2     1.091546151109   106.65128841   315.16475048
 H     47  42   2     1.088818625851   132.46019523    94.52397119
 H     47  42   2     1.089531091801    83.63838232   206.04504406
 H     48  43  41     1.080402239909   127.23657387   181.62955349
 H     50  42   2     1.083186502870   118.77001737    94.71359229

---------------------------
INTERNAL COORDINATES (A.U.)
---------------------------
 C      0   0   0     0.000000000000     0.00000000     0.00000000
 C      1   0   0    11.818078011425     0.00000000     0.00000000
 C      1   2   0     4.561614921007    28.03069159     0.00000000
 C      3   1   2     2.650852022775    87.91229502   280.11493091
 C      4   3   1     2.607880946917   120.18847058     0.15658199
 C      5   4   3     4.627024056226   152.50656027     1.60956049
 C      2   1   3     2.585360837309     9.03758389    41.94463716
 C      7   2   3     2.710026725231   108.05010202     0.84668783
 C      2   1   3     2.710100516721   110.12024399   322.50623038
 C      1   2   3     2.611243237621    43.73545527    45.77607903
 N      1   2   3     2.555675572364    85.79966275   260.78800573
 N      9   2   1     2.600503484979   106.58526707     8.59380500
 N     12   9   2     5.527566200405   168.53581413   171.12065651
 N     13  12   9     5.583221047236    91.55032014    11.12112580
 N     14  13  12     5.528150518591    88.43092389   359.84326247
 C      8   7   2     2.654668413270   127.24786865   181.11170171
 C     13  12   9     2.582376967257    81.72106996   188.00453233
 C     14  13  12    10.882574804710    80.56209567   166.76250791
 C     17  13  12     2.757130505230   111.08861209   183.82872609
 C     18  14  13     4.558465206823    27.27532823    36.33507194
 C     20  18  14     2.650705180609    87.95206320   148.94598259
 C     21  20  18     2.611803198586   120.14573887   359.70382047
 C     18  14  13     4.623235745386   144.15733107    82.80075377
 C     19  17  13     2.557953565794   106.29293361   359.75308708
 C     13  12   9     2.582903091751   172.21332906    33.46711076
 C     18  14  13     2.609636529225    15.08449437   309.23336894
 N     22  21  20     2.556370638369   120.73759875     0.27865223
 C     25  13  17     2.666210041769   125.60330303   182.37774668
 C     14  13  12     2.601476916169    80.24689249   177.85461986
 C     14  13  12    10.892550769017   164.51507311   312.20821879
 C     29  14  13     2.712892575415   106.58649366   178.76395472
 C     30  14  13     4.560507835333    27.10625047    82.12560436
 C     32  30  14     2.652673401891    87.90059683   149.76154742
 C     33  32  30     2.609133588376   120.14881443   359.74174632
 C     34  33  32     4.627519515267   152.49203239     2.45173620
 C     31  29  14     2.585449236669   108.16950133     0.70383075
 C     14  13  12     2.600716325456   169.26375223   353.09862627
 C     30  14  13     2.609536633043    14.68948582   353.70041132
 N     34  33  32     2.556154803934   120.85575621     0.19603406
 C     37  14  29     2.654530526499   126.01551127   180.90772073
 C     15  14  13     2.582293994346    81.61824056   183.09049352
 C      2   1   3     8.029564866989   161.61857224   119.50288053
 C     41  15  14     2.758391104639   111.05201287   175.08990246
 C     42   2   1     4.559821839776    41.78584867   177.91540565
 C     44  42   2     2.652129475853    87.95153797   233.97558675
 C     45  44  42     2.611027836043   120.11137308     0.19721020
 C     42   2   1     4.629866436820   135.97209175    88.23025475
 C     43  41  15     2.559561325344   106.26758155     0.30894352
 C     15  14  13     2.584127074516   171.87382904   332.35056460
 C     42   2   1     2.611386828803    32.59078432   226.77068484
 C      9   2   1     2.655043698059   126.98745415   189.59814253
 N     42   2   1     2.556355970587   113.57249190   115.96684394
 H      1   2   3     2.044793704207   145.83442530   127.13231608
 H      2   1   3     2.040730117440   123.93190892   152.04539323
 H      4   3   1     2.048593000143   121.09309086   179.54558238
 H      5   4   3     2.046996497426   122.86028953   179.45635858
 H      6   5   4     2.063214901129   104.42031687   100.10540095
 H      6   5   4     2.059605569269    84.66706825   209.58636308
 H      6   5   4     2.060075391367   133.86099371   322.36408800
 H      7   2  54     2.040541119952   126.66122480     1.30600390
 H     10   1   2     2.048053415096   118.75128516   139.15434605
 H     12   9   2     1.920524309565   125.29023241   180.00180175
 H     14  13  12     1.917952867083    44.97226959   359.42596618
 H     18  14  13     2.046330847636   128.03556573   234.20482432
 H     19  17  13     2.042592906181   126.41830519   178.11313280
 H     21  20  18     2.047649722989   121.05669627   180.67006309
 H     22  21  20     2.045596898814   122.73097286   180.59748951
 H     23  18  14     2.063779938267   103.92715769   234.93429879
 H     23  18  14     2.057669673245   134.19244188    12.25587044
 H     23  18  14     2.059486796529    84.85857450   125.45241208
 H     24  19  17     2.041046823986   127.28078426   178.44613241
 H     26  18  14     2.047344503340   118.76995697   244.94906660
 H     30  14  13     2.046012340948   127.99711412   279.66882698
 H     31  29  14     2.040450114918   125.22293469   180.92530585
 H     33  32  30     2.046930203877   121.01964473   180.74284758
 H     34  33  32     2.045617847496   122.70821597   180.59516895
 H     35  34  33     2.064814429233   105.73575241    97.19771933
 H     35  34  33     2.058786158072    84.05943581   206.43036958
 H     35  34  33     2.058418400901   133.08365142   318.50306270
 H     36  31  29     2.039845353366   126.61599965   178.98859863
 H     38  30  73     2.047975821711   118.77264435   359.90091293
 H     42   2   1     2.045020725966   119.31790784   332.59837439
 H     43  41  15     2.041436952892   126.36969097   182.06329380
 H     45  44  42     2.047097678177   121.10105945   179.58025624
 H     46  45  44     2.045051284662   122.72144639   179.46906377
 H     47  42   2     2.062723288131   106.65128841   315.16475048
 H     47  42   2     2.057569012371   132.46019523    94.52397119
 H     47  42   2     2.058915377895    83.63838232   206.04504406
 H     48  43  41     2.041664347903   127.23657387   181.62955349
 H     50  42   2     2.046925842384   118.77001737    94.71359229

---------------------
BASIS SET INFORMATION
---------------------
There are 3 groups of distinct atoms

 Group   1 Type C   : 17s4p1d contracted to 3s2p1d pattern {881/31/1}
 Group   2 Type N   : 17s4p1d contracted to 3s2p1d pattern {881/31/1}
 Group   3 Type H   : 4s1p contracted to 2s1p pattern {31/1}

Atom   0C    basis set group =>   1
Atom   1N    basis set group =>   2
Atom   2C    basis set group =>   1
Atom   3N    basis set group =>   2
Atom   4C    basis set group =>   1
Atom   5N    basis set group =>   2
Atom   6C    basis set group =>   1
Atom   7N    basis set group =>   2
Atom   8C    basis set group =>   1
Atom   9N    basis set group =>   2
Atom  10C    basis set group =>   1
Atom  11N    basis set group =>   2
Atom  12C    basis set group =>   1
Atom  13N    basis set group =>   2
Atom  14C    basis set group =>   1
Atom  15N    basis set group =>   2
Atom  16C    basis set group =>   1
Atom  17C    basis set group =>   1
Atom  18C    basis set group =>   1
Atom  19C    basis set group =>   1
Atom  20C    basis set group =>   1
Atom  21C    basis set group =>   1
Atom  22C    basis set group =>   1
Atom  23C    basis set group =>   1
Atom  24C    basis set group =>   1
Atom  25C    basis set group =>   1
Atom  26C    basis set group =>   1
Atom  27C    basis set group =>   1
Atom  28C    basis set group =>   1
Atom  29C    basis set group =>   1
Atom  30C    basis set group =>   1
Atom  31C    basis set group =>   1
Atom  32C    basis set group =>   1
Atom  33C    basis set group =>   1
Atom  34C    basis set group =>   1
Atom  35C    basis set group =>   1
Atom  36C    basis set group =>   1
Atom  37C    basis set group =>   1
Atom  38C    basis set group =>   1
Atom  39C    basis set group =>   1
Atom  40C    basis set group =>   1
Atom  41C    basis set group =>   1
Atom  42C    basis set group =>   1
Atom  43C    basis set group =>   1
Atom  44C    basis set group =>   1
Atom  45C    basis set group =>   1
Atom  46C    basis set group =>   1
Atom  47C    basis set group =>   1
Atom  48C    basis set group =>   1
Atom  49C    basis set group =>   1
Atom  50C    basis set group =>   1
Atom  51C    basis set group =>   1
Atom  52H    basis set group =>   3
Atom  53H    basis set group =>   3
Atom  54H    basis set group =>   3
Atom  55H    basis set group =>   3
Atom  56H    basis set group =>   3
Atom  57H    basis set group =>   3
Atom  58H    basis set group =>   3
Atom  59H    basis set group =>   3
Atom  60H    basis set group =>   3
Atom  61H    basis set group =>   3
Atom  62H    basis set group =>   3
Atom  63H    basis set group =>   3
Atom  64H    basis set group =>   3
Atom  65H    basis set group =>   3
Atom  66H    basis set group =>   3
Atom  67H    basis set group =>   3
Atom  68H    basis set group =>   3
Atom  69H    basis set group =>   3
Atom  70H    basis set group =>   3
Atom  71H    basis set group =>   3
Atom  72H    basis set group =>   3
Atom  73H    basis set group =>   3
Atom  74H    basis set group =>   3
Atom  75H    basis set group =>   3
Atom  76H    basis set group =>   3
Atom  77H    basis set group =>   3
Atom  78H    basis set group =>   3
Atom  79H    basis set group =>   3
Atom  80H    basis set group =>   3
Atom  81H    basis set group =>   3
Atom  82H    basis set group =>   3
Atom  83H    basis set group =>   3
Atom  84H    basis set group =>   3
Atom  85H    basis set group =>   3
Atom  86H    basis set group =>   3
Atom  87H    basis set group =>   3
Atom  88H    basis set group =>   3
Atom  89H    basis set group =>   3


           ************************************************************
           *        Program running with 16 parallel MPI-processes    *
           *              working on a common directory               *
           ************************************************************
------------------------------------------------------------------------------
                           ORCA GTO INTEGRAL CALCULATION
------------------------------------------------------------------------------
------------------------------------------------------------------------------
                   ___                                                        
                  /   \      - P O W E R E D   B Y -                         
                 /     \                                                     
                 |  |  |   _    _      __       _____    __    __             
                 |  |  |  | |  | |    /  \     |  _  \  |  |  /  |          
                  \  \/   | |  | |   /    \    | | | |  |  | /  /          
                 / \  \   | |__| |  /  /\  \   | |_| |  |  |/  /          
                |  |  |   |  __  | /  /__\  \  |    /   |      \           
                |  |  |   | |  | | |   __   |  |    \   |  |\   \          
                \     /   | |  | | |  |  |  |  | |\  \  |  | \   \       
                 \___/    |_|  |_| |__|  |__|  |_| \__\ |__|  \__/        
                                                                              
                      - O R C A' S   B I G   F R I E N D -                    
                                      &                                       
                       - I N T E G R A L  F E E D E R -                       
                                                                              
 v1 FN, 2020, v2 2021                                                         
------------------------------------------------------------------------------


Reading SHARK input file /scratch/allen/tmpyp4_amber_gaff2/conf1/conf1/Conf237.orca.SHARKINP.tmp ... ok
----------------------
SHARK INTEGRAL PACKAGE
----------------------

Number of atoms                             ...     90
Number of basis functions                   ...   1230
Number of shells                            ...    738
Maximum angular momentum                    ...      2
Integral batch strategy                     ... SHARK/LIBINT Hybrid
RI-J (if used) integral strategy            ... SPLIT-RIJ (Revised 2003 algorithm where possible)
Printlevel                                  ...      1
Contraction scheme used                     ... PARTIAL GENERAL contraction
Coulomb Range Separation                    ... NOT USED
Exchange Range Separation                   ... NOT USED
Finite Nucleus Model                        ... NOT USED
Auxiliary Coulomb fitting basis             ... NOT available
Auxiliary J/K fitting basis                 ... NOT available
Auxiliary Correlation fitting basis         ... NOT available
Auxiliary 'external' fitting basis          ... NOT available
Integral threshold                          ...     2.500000e-11
Primitive cut-off                           ...     2.500000e-12
Primitive pair pre-selection threshold      ...     2.500000e-12

Calculating pre-screening integrals         ... done (  0.1 sec) Dimension = 738
Calculating pre-screening integrals (ORCA)  ... done (  0.3 sec) Dimension = 426
Organizing shell pair data                  ... done (  0.7 sec)
Shell pair information
Total number of shell pairs                 ...    272691
Shell pairs after pre-screening             ...     71607
Total number of primitive shell pairs       ...    422091
Primitive shell pairs kept                  ...     92364
          la=0 lb=0:  29415 shell pairs
          la=1 lb=0:  25963 shell pairs
          la=1 lb=1:   4701 shell pairs
          la=2 lb=0:   7871 shell pairs
          la=2 lb=1:   3126 shell pairs
          la=2 lb=2:    531 shell pairs

Calculating one electron integrals          ... done (  0.2 sec)
Calculating Nuclear repulsion               ... done (  0.0 sec) ENN=   6225.624727510539 Eh

SHARK setup successfully completed in   2.3 seconds

Maximum memory used throughout the entire GTOINT-calculation: 98.9 MB


           ************************************************************
           *        Program running with 16 parallel MPI-processes    *
           *              working on a common directory               *
           ************************************************************
-------------------------------------------------------------------------------
                                 ORCA SCF
-------------------------------------------------------------------------------

------------
SCF SETTINGS
------------
Hamiltonian:
 Ab initio Hamiltonian  Method          .... Hartree-Fock(GTOs)


General Settings:
 Integral files         IntName         .... /scratch/allen/tmpyp4_amber_gaff2/conf1/conf1/Conf237.orca
 Hartree-Fock type      HFTyp           .... RHF
 Total Charge           Charge          ....    0
 Multiplicity           Mult            ....    1
 Number of Electrons    NEL             ....  358
 Basis Dimension        Dim             ....  918
 Nuclear Repulsion      ENuc            ....   6225.6247275105 Eh

Convergence Acceleration:
 DIIS                   CNVDIIS         .... on
   Start iteration      DIISMaxIt       ....    12
   Startup error        DIISStart       ....  0.200000
   # of expansion vecs  DIISMaxEq       ....     5
   Bias factor          DIISBfac        ....   1.050
   Max. coefficient     DIISMaxC        ....  10.000
 Trust-Rad. Augm. Hess. CNVTRAH         .... auto
   Auto Start mean grad. ratio tolernc. ....  1.125000
   Auto Start start iteration           ....    20
   Auto Start num. interpolation iter.  ....    10
   Max. Number of Micro iterations      ....    16
   Max. Number of Macro iterations      .... Maxiter - #DIIS iter
   Number of Davidson start vectors     ....     2
   Converg. threshold I  (grad. norm)   ....   1.000e-05
   Converg. threshold II (energy diff.) ....   1.000e-08
   Grad. Scal. Fac. for Micro threshold ....   0.100
   Minimum threshold for Micro iter.    ....   0.010
   NR start threshold (gradient norm)   ....   0.001
   Initial trust radius                 ....   0.400
   Minimum AH scaling param. (alpha)    ....   1.000
   Maximum AH scaling param. (alpha)    .... 1000.000
   Orbital update algorithm             .... Taylor
   White noise on init. David. guess    .... on
   Maximum white noise                  ....   0.010
   Quad. conv. algorithm                .... NR
 SOSCF                  CNVSOSCF        .... on
   Start iteration      SOSCFMaxIt      ....   150
   Startup grad/error   SOSCFStart      ....  0.003300
 Level Shifting         CNVShift        .... on
   Level shift para.    LevelShift      ....    0.2500
   Turn off err/grad.   ShiftErr        ....    0.0010
 Zerner damping         CNVZerner       .... off
 Static damping         CNVDamp         .... on
   Fraction old density DampFac         ....    0.7000
   Max. Damping (<1)    DampMax         ....    0.9800
   Min. Damping (>=0)   DampMin         ....    0.0000
   Turn off err/grad.   DampErr         ....    0.1000
 Fernandez-Rico         CNVRico         .... off

SCF Procedure:
 Maximum # iterations   MaxIter         ....   125
 SCF integral mode      SCFMode         .... Direct
   Integral package                     .... SHARK and LIBINT hybrid scheme
 Reset frequency        DirectResetFreq ....    20
 Integral Threshold     Thresh          ....  2.500e-11 Eh
 Primitive CutOff       TCut            ....  2.500e-12 Eh

Convergence Tolerance:
 Convergence Check Mode ConvCheckMode   .... Total+1el-Energy
 Convergence forced     ConvForced      .... 1
 Energy Change          TolE            ....  1.000e-08 Eh
 1-El. energy change                    ....  1.000e-05 Eh
 Orbital Gradient       TolG            ....  1.000e-05
 Orbital Rotation angle TolX            ....  1.000e-05
 DIIS Error             TolErr          ....  5.000e-07


Diagonalization of the overlap matrix:
Smallest eigenvalue                        ... 2.247e-04
Time for diagonalization                   ...    0.480 sec
Threshold for overlap eigenvalues          ... 1.000e-08
Number of eigenvalues below threshold      ... 0
Time for construction of square roots      ...    0.272 sec
Total time needed                          ...    0.759 sec

Time for model grid setup =    1.295 sec

------------------------------
INITIAL GUESS: MODEL POTENTIAL
------------------------------
Loading Hartree-Fock densities                     ... done
Calculating cut-offs                               ... done
Initializing the effective Hamiltonian             ... done
Setting up the integral package (SHARK)            ... done
Starting the Coulomb interaction                   ... done (   1.4 sec)
Reading the grid                                   ... done
Mapping shells                                     ... done
Starting the XC term evaluation                    ... done (   0.2 sec)
Transforming the Hamiltonian                       ... done (   0.3 sec)
Diagonalizing the Hamiltonian                      ... done (   0.4 sec)
Back transforming the eigenvectors                 ... done (   0.1 sec)
Now organizing SCF variables                       ... done
                      ------------------
                      INITIAL GUESS DONE (   3.8 sec)
                      ------------------
--------------
SCF ITERATIONS
--------------
ITER       Energy         Delta-E        Max-DP      RMS-DP      [F,P]     Damp
               ***  Starting incremental Fock matrix formation  ***
  0  -2121.6720196543   0.000000000000 0.06902351  0.00121194  0.2330190 0.7000
  1  -2122.3371817003  -0.665162045980 0.05236453  0.00098399  0.1441743 0.7000
                               ***Turning on DIIS***
  2  -2122.7502727100  -0.413091009767 0.11624091  0.00222852  0.0802572 0.0000
  3  -2117.7314363920   5.018836318088 0.03075332  0.00068555  0.0442542 0.0000
  4  -2123.4105607678  -5.679124375840 0.00890873  0.00022941  0.0069117 0.0000
  5  -2123.5903439429  -0.179783175057 0.00515789  0.00013606  0.0048874 0.0000
  6  -2123.5734237739   0.016920169004 0.00337795  0.00008852  0.0019569 0.0000
  7  -2123.6790005912  -0.105576817379 0.00284727  0.00007021  0.0014976 0.0000
  8  -2123.6984688804  -0.019468289123 0.00277582  0.00006626  0.0013981 0.0000
  9  -2123.6619663542   0.036502526204 0.00222734  0.00004517  0.0011034 0.0000
 10  -2123.6772458240  -0.015279469862 0.00460004  0.00008900  0.0008395 0.0000
                      *** Initiating the SOSCF procedure ***
                           *** Shutting down DIIS ***
                      *** Re-Reading the Fockian *** 
                      *** Removing any level shift *** 
ITER      Energy       Delta-E        Grad      Rot      Max-DP    RMS-DP
 11  -2123.55661210   0.1206337249  0.000346  0.000346  0.000297  0.000007
               *** Restarting incremental Fock matrix formation ***
 12  -2123.62317880  -0.0665667054  0.001006  0.006841  0.001103  0.000027
 13  -2123.62324303  -0.0000642236  0.001046  0.026476  0.003943  0.000084
 14  -2123.62331767  -0.0000746376  0.000448  0.002761  0.000524  0.000012
 15  -2123.62332801  -0.0000103479  0.000118  0.001385  0.000437  0.000007
 16  -2123.62333099  -0.0000029763  0.000094  0.001943  0.000505  0.000009
 17  -2123.62333305  -0.0000020612  0.000094  0.001980  0.000408  0.000007
 18  -2123.62333389  -0.0000008405  0.000046  0.001216  0.000280  0.000005
 19  -2123.62333455  -0.0000006547  0.000051  0.000797  0.000171  0.000003
 20  -2123.62333482  -0.0000002784  0.000024  0.000450  0.000090  0.000002
 21  -2123.62333490  -0.0000000783  0.000021  0.000316  0.000061  0.000001
 22  -2123.62333496  -0.0000000534  0.000015  0.000349  0.000060  0.000001
 23  -2123.62333500  -0.0000000433  0.000012  0.000147  0.000053  0.000001
 24  -2123.62333502  -0.0000000183  0.000004  0.000081  0.000023  0.000000
 25  -2123.62333503  -0.0000000101  0.000003  0.000053  0.000019  0.000000
                  ***Gradient check signals convergence***
              ***Rediagonalizing the Fockian in SOSCF/NRSCF***

               *****************************************************
               *                     SUCCESS                       *
               *           SCF CONVERGED AFTER  26 CYCLES          *
               *****************************************************


----------------
TOTAL SCF ENERGY
----------------

Total Energy       :        -2123.62333504 Eh          -57786.72877 eV

Components:
Nuclear Repulsion  :         6225.62472751 Eh          169407.86136 eV
Electronic Energy  :        -8349.24806255 Eh         -227194.59013 eV
One Electron Energy:       -15292.36825565 Eh         -416126.49570 eV
Two Electron Energy:         6943.12019310 Eh          188931.90557 eV

Virial components:
Potential Energy   :        -4245.63361770 Eh         -115529.56415 eV
Kinetic Energy     :         2122.01028266 Eh           57742.83538 eV
Virial Ratio       :            2.00076015


---------------
SCF CONVERGENCE
---------------

  Last Energy change         ...   -9.3423e-09  Tolerance :   1.0000e-08
  Last MAX-Density change    ...    1.2076e-05  Tolerance :   1.0000e-07
  Last RMS-Density change    ...    1.6243e-07  Tolerance :   5.0000e-09
  Last Orbital Gradient      ...    1.9216e-06  Tolerance :   1.0000e-05
  Last Orbital Rotation      ...    3.0597e-05  Tolerance :   1.0000e-05

             **** THE GBW FILE WAS UPDATED (/scratch/allen/tmpyp4_amber_gaff2/conf1/conf1/Conf237.orca.gbw) ****
             **** DENSITY /scratch/allen/tmpyp4_amber_gaff2/conf1/conf1/Conf237.orca.scfp WAS UPDATED ****
             **** ENERGY FILE WAS UPDATED (/scratch/allen/tmpyp4_amber_gaff2/conf1/conf1/Conf237.orca.en.tmp) ****
             **** THE GBW FILE WAS UPDATED (/scratch/allen/tmpyp4_amber_gaff2/conf1/conf1/Conf237.orca.gbw) ****
             **** DENSITY /scratch/allen/tmpyp4_amber_gaff2/conf1/conf1/Conf237.orca.scfp WAS UPDATED ****
----------------
ORBITAL ENERGIES
----------------

  NO   OCC          E(Eh)            E(eV) 
   0   2.0000     -15.640831      -425.6086 
   1   2.0000     -15.638677      -425.5500 
   2   2.0000     -15.629118      -425.2899 
   3   2.0000     -15.622756      -425.1168 
   4   2.0000     -15.519082      -422.2957 
   5   2.0000     -15.516424      -422.2234 
   6   2.0000     -15.444530      -420.2670 
   7   2.0000     -15.443984      -420.2522 
   8   2.0000     -11.303747      -307.5906 
   9   2.0000     -11.302174      -307.5478 
  10   2.0000     -11.297234      -307.4134 
  11   2.0000     -11.296302      -307.3880 
  12   2.0000     -11.294904      -307.3500 
  13   2.0000     -11.294483      -307.3385 
  14   2.0000     -11.293006      -307.2983 
  15   2.0000     -11.292925      -307.2961 
  16   2.0000     -11.286200      -307.1131 
  17   2.0000     -11.285946      -307.1062 
  18   2.0000     -11.282343      -307.0082 
  19   2.0000     -11.281311      -306.9801 
  20   2.0000     -11.245185      -305.9971 
  21   2.0000     -11.241938      -305.9087 
  22   2.0000     -11.235586      -305.7358 
  23   2.0000     -11.234705      -305.7119 
  24   2.0000     -11.234080      -305.6949 
  25   2.0000     -11.233553      -305.6805 
  26   2.0000     -11.233299      -305.6736 
  27   2.0000     -11.229344      -305.5660 
  28   2.0000     -11.227153      -305.5064 
  29   2.0000     -11.226972      -305.5014 
  30   2.0000     -11.222976      -305.3927 
  31   2.0000     -11.221671      -305.3572 
  32   2.0000     -11.200436      -304.7794 
  33   2.0000     -11.200134      -304.7711 
  34   2.0000     -11.194476      -304.6172 
  35   2.0000     -11.194053      -304.6057 
  36   2.0000     -11.173137      -304.0365 
  37   2.0000     -11.172398      -304.0164 
  38   2.0000     -11.172098      -304.0082 
  39   2.0000     -11.171711      -303.9977 
  40   2.0000     -11.170659      -303.9691 
  41   2.0000     -11.169433      -303.9357 
  42   2.0000     -11.167264      -303.8767 
  43   2.0000     -11.166853      -303.8655 
  44   2.0000     -11.160009      -303.6793 
  45   2.0000     -11.158668      -303.6428 
  46   2.0000     -11.152887      -303.4855 
  47   2.0000     -11.151227      -303.4403 
  48   2.0000     -11.144378      -303.2539 
  49   2.0000     -11.142426      -303.2008 
  50   2.0000     -11.142367      -303.1992 
  51   2.0000     -11.139301      -303.1158 
  52   2.0000      -1.327129       -36.1130 
  53   2.0000      -1.325184       -36.0601 
  54   2.0000      -1.316971       -35.8366 
  55   2.0000      -1.311978       -35.7007 
  56   2.0000      -1.217794       -33.1379 
  57   2.0000      -1.213023       -33.0080 
  58   2.0000      -1.161968       -31.6188 
  59   2.0000      -1.157328       -31.4925 
  60   2.0000      -1.115987       -30.3676 
  61   2.0000      -1.112803       -30.2809 
  62   2.0000      -1.106078       -30.0979 
  63   2.0000      -1.102214       -29.9928 
  64   2.0000      -1.051081       -28.6014 
  65   2.0000      -1.049004       -28.5449 
  66   2.0000      -1.041585       -28.3430 
  67   2.0000      -1.037573       -28.2338 
  68   2.0000      -1.026734       -27.9388 
  69   2.0000      -1.009699       -27.4753 
  70   2.0000      -1.009589       -27.4723 
  71   2.0000      -0.998201       -27.1624 
  72   2.0000      -0.981867       -26.7180 
  73   2.0000      -0.976140       -26.5621 
  74   2.0000      -0.968809       -26.3626 
  75   2.0000      -0.960634       -26.1402 
  76   2.0000      -0.952525       -25.9195 
  77   2.0000      -0.943097       -25.6630 
  78   2.0000      -0.940935       -25.6041 
  79   2.0000      -0.923544       -25.1309 
  80   2.0000      -0.893298       -24.3079 
  81   2.0000      -0.878059       -23.8932 
  82   2.0000      -0.875699       -23.8290 
  83   2.0000      -0.869071       -23.6486 
  84   2.0000      -0.865042       -23.5390 
  85   2.0000      -0.857054       -23.3216 
  86   2.0000      -0.847594       -23.0642 
  87   2.0000      -0.844795       -22.9880 
  88   2.0000      -0.821875       -22.3644 
  89   2.0000      -0.798596       -21.7309 
  90   2.0000      -0.797976       -21.7140 
  91   2.0000      -0.739449       -20.1214 
  92   2.0000      -0.729335       -19.8462 
  93   2.0000      -0.728860       -19.8333 
  94   2.0000      -0.720967       -19.6185 
  95   2.0000      -0.720436       -19.6041 
  96   2.0000      -0.712217       -19.3804 
  97   2.0000      -0.709987       -19.3197 
  98   2.0000      -0.698786       -19.0149 
  99   2.0000      -0.692367       -18.8403 
 100   2.0000      -0.683888       -18.6095 
 101   2.0000      -0.680577       -18.5194 
 102   2.0000      -0.679316       -18.4851 
 103   2.0000      -0.673844       -18.3362 
 104   2.0000      -0.667963       -18.1762 
 105   2.0000      -0.667568       -18.1654 
 106   2.0000      -0.662566       -18.0293 
 107   2.0000      -0.659141       -17.9361 
 108   2.0000      -0.657321       -17.8866 
 109   2.0000      -0.654668       -17.8144 
 110   2.0000      -0.652313       -17.7503 
 111   2.0000      -0.651381       -17.7250 
 112   2.0000      -0.648368       -17.6430 
 113   2.0000      -0.645248       -17.5581 
 114   2.0000      -0.635060       -17.2809 
 115   2.0000      -0.623888       -16.9769 
 116   2.0000      -0.617680       -16.8079 
 117   2.0000      -0.615844       -16.7580 
 118   2.0000      -0.611215       -16.6320 
 119   2.0000      -0.608790       -16.5660 
 120   2.0000      -0.608363       -16.5544 
 121   2.0000      -0.605487       -16.4761 
 122   2.0000      -0.602250       -16.3881 
 123   2.0000      -0.593848       -16.1594 
 124   2.0000      -0.586350       -15.9554 
 125   2.0000      -0.584579       -15.9072 
 126   2.0000      -0.578662       -15.7462 
 127   2.0000      -0.574895       -15.6437 
 128   2.0000      -0.570766       -15.5313 
 129   2.0000      -0.561787       -15.2870 
 130   2.0000      -0.553796       -15.0696 
 131   2.0000      -0.542694       -14.7675 
 132   2.0000      -0.540800       -14.7159 
 133   2.0000      -0.535424       -14.5696 
 134   2.0000      -0.533987       -14.5305 
 135   2.0000      -0.531147       -14.4533 
 136   2.0000      -0.524473       -14.2716 
 137   2.0000      -0.523808       -14.2535 
 138   2.0000      -0.517206       -14.0739 
 139   2.0000      -0.516385       -14.0516 
 140   2.0000      -0.510574       -13.8934 
 141   2.0000      -0.505786       -13.7631 
 142   2.0000      -0.503775       -13.7084 
 143   2.0000      -0.502803       -13.6820 
 144   2.0000      -0.499031       -13.5793 
 145   2.0000      -0.498529       -13.5657 
 146   2.0000      -0.497542       -13.5388 
 147   2.0000      -0.493182       -13.4202 
 148   2.0000      -0.491476       -13.3737 
 149   2.0000      -0.469265       -12.7694 
 150   2.0000      -0.460417       -12.5286 
 151   2.0000      -0.451582       -12.2882 
 152   2.0000      -0.448392       -12.2014 
 153   2.0000      -0.446581       -12.1521 
 154   2.0000      -0.445049       -12.1104 
 155   2.0000      -0.439744       -11.9660 
 156   2.0000      -0.435325       -11.8458 
 157   2.0000      -0.432174       -11.7600 
 158   2.0000      -0.392059       -10.6685 
 159   2.0000      -0.382686       -10.4134 
 160   2.0000      -0.377382       -10.2691 
 161   2.0000      -0.373986       -10.1767 
 162   2.0000      -0.361333        -9.8324 
 163   2.0000      -0.359419        -9.7803 
 164   2.0000      -0.353245        -9.6123 
 165   2.0000      -0.348993        -9.4966 
 166   2.0000      -0.337174        -9.1750 
 167   2.0000      -0.332340        -9.0434 
 168   2.0000      -0.329535        -8.9671 
 169   2.0000      -0.300342        -8.1727 
 170   2.0000      -0.295132        -8.0309 
 171   2.0000      -0.289453        -7.8764 
 172   2.0000      -0.287518        -7.8238 
 173   2.0000      -0.255399        -6.9498 
 174   2.0000      -0.248531        -6.7629 
 175   2.0000      -0.188191        -5.1209 
 176   2.0000      -0.178109        -4.8466 
 177   2.0000      -0.066922        -1.8210 
 178   2.0000      -0.054419        -1.4808 
 179   0.0000       0.030906         0.8410 
 180   0.0000       0.070766         1.9257 
 181   0.0000       0.092762         2.5242 
 182   0.0000       0.097217         2.6454 
 183   0.0000       0.133025         3.6198 
 184   0.0000       0.134489         3.6596 
 185   0.0000       0.141384         3.8473 
 186   0.0000       0.145746         3.9659 
 187   0.0000       0.160685         4.3725 
 188   0.0000       0.161478         4.3940 
 189   0.0000       0.162787         4.4296 
 190   0.0000       0.167564         4.5596 
 191   0.0000       0.170322         4.6347 
 192   0.0000       0.201191         5.4747 
 193   0.0000       0.202507         5.5105 
 194   0.0000       0.204552         5.5662 
 195   0.0000       0.206135         5.6092 
 196   0.0000       0.207480         5.6458 
 197   0.0000       0.210351         5.7239 
 198   0.0000       0.210794         5.7360 
 199   0.0000       0.213605         5.8125 
 200   0.0000       0.235317         6.4033 
 201   0.0000       0.237817         6.4713 
 202   0.0000       0.241764         6.5787 
 203   0.0000       0.244927         6.6648 
 204   0.0000       0.253287         6.8923 
 205   0.0000       0.254867         6.9353 
 206   0.0000       0.258255         7.0275 
 207   0.0000       0.258603         7.0369 
 208   0.0000       0.261111         7.1052 
 209   0.0000       0.263848         7.1797 
 210   0.0000       0.267837         7.2882 
 211   0.0000       0.270264         7.3542 
 212   0.0000       0.273598         7.4450 
 213   0.0000       0.275733         7.5031 
 214   0.0000       0.277757         7.5582 
 215   0.0000       0.278753         7.5853 
 216   0.0000       0.280922         7.6443 
 217   0.0000       0.283233         7.7072 
 218   0.0000       0.286214         7.7883 
 219   0.0000       0.289964         7.8903 
 220   0.0000       0.291897         7.9429 
 221   0.0000       0.292228         7.9519 
 222   0.0000       0.293134         7.9766 
 223   0.0000       0.295357         8.0371 
 224   0.0000       0.298977         8.1356 
 225   0.0000       0.301111         8.1936 
 226   0.0000       0.301984         8.2174 
 227   0.0000       0.304448         8.2844 
 228   0.0000       0.307347         8.3633 
 229   0.0000       0.311038         8.4638 
 230   0.0000       0.315500         8.5852 
 231   0.0000       0.318457         8.6656 
 232   0.0000       0.325623         8.8606 
 233   0.0000       0.328335         8.9344 
 234   0.0000       0.331904         9.0316 
 235   0.0000       0.337020         9.1708 
 236   0.0000       0.356394         9.6980 
 237   0.0000       0.388282        10.5657 
 238   0.0000       0.394328        10.7302 
 239   0.0000       0.401677        10.9302 
 240   0.0000       0.406690        11.0666 
 241   0.0000       0.409479        11.1425 
 242   0.0000       0.422179        11.4881 
 243   0.0000       0.424324        11.5464 
 244   0.0000       0.431838        11.7509 
 245   0.0000       0.432642        11.7728 
 246   0.0000       0.436408        11.8753 
 247   0.0000       0.438346        11.9280 
 248   0.0000       0.439002        11.9458 
 249   0.0000       0.443845        12.0776 
 250   0.0000       0.444665        12.0999 
 251   0.0000       0.448287        12.1985 
 252   0.0000       0.455769        12.4021 
 253   0.0000       0.468501        12.7486 
 254   0.0000       0.471586        12.8325 
 255   0.0000       0.474651        12.9159 
 256   0.0000       0.481047        13.0900 
 257   0.0000       0.486517        13.2388 
 258   0.0000       0.490319        13.3423 
 259   0.0000       0.498500        13.5649 
 260   0.0000       0.501132        13.6365 
 261   0.0000       0.502740        13.6802 
 262   0.0000       0.506012        13.7693 
 263   0.0000       0.510896        13.9022 
 264   0.0000       0.511356        13.9147 
 265   0.0000       0.514646        14.0042 
 266   0.0000       0.517571        14.0838 
 267   0.0000       0.521793        14.1987 
 268   0.0000       0.536053        14.5867 
 269   0.0000       0.538238        14.6462 
 270   0.0000       0.540144        14.6981 
 271   0.0000       0.545771        14.8512 
 272   0.0000       0.548045        14.9131 
 273   0.0000       0.553593        15.0640 
 274   0.0000       0.560239        15.2449 
 275   0.0000       0.564044        15.3484 
 276   0.0000       0.572301        15.5731 
 277   0.0000       0.577029        15.7018 
 278   0.0000       0.582290        15.8449 
 279   0.0000       0.586029        15.9467 
 280   0.0000       0.590103        16.0575 
 281   0.0000       0.591880        16.1059 
 282   0.0000       0.594054        16.1650 
 283   0.0000       0.595936        16.2162 
 284   0.0000       0.601104        16.3569 
 285   0.0000       0.603747        16.4288 
 286   0.0000       0.605199        16.4683 
 287   0.0000       0.606761        16.5108 
 288   0.0000       0.609271        16.5791 
 289   0.0000       0.613849        16.7037 
 290   0.0000       0.617469        16.8022 
 291   0.0000       0.627717        17.0810 
 292   0.0000       0.640069        17.4172 
 293   0.0000       0.640536        17.4299 
 294   0.0000       0.641054        17.4440 
 295   0.0000       0.652044        17.7430 
 296   0.0000       0.657166        17.8824 
 297   0.0000       0.660417        17.9709 
 298   0.0000       0.661060        17.9883 
 299   0.0000       0.662469        18.0267 
 300   0.0000       0.671234        18.2652 
 301   0.0000       0.672323        18.2948 
 302   0.0000       0.677783        18.4434 
 303   0.0000       0.680712        18.5231 
 304   0.0000       0.682741        18.5783 
 305   0.0000       0.685578        18.6555 
 306   0.0000       0.690297        18.7839 
 307   0.0000       0.696060        18.9407 
 308   0.0000       0.698277        19.0011 
 309   0.0000       0.702572        19.1179 
 310   0.0000       0.703873        19.1534 
 311   0.0000       0.706250        19.2180 
 312   0.0000       0.707460        19.2510 
 313   0.0000       0.708896        19.2900 
 314   0.0000       0.710165        19.3246 
 315   0.0000       0.714909        19.4537 
 316   0.0000       0.716894        19.5077 
 317   0.0000       0.718760        19.5584 
 318   0.0000       0.719752        19.5854 
 319   0.0000       0.721097        19.6220 
 320   0.0000       0.722620        19.6635 
 321   0.0000       0.728302        19.8181 
 322   0.0000       0.731322        19.9003 
 323   0.0000       0.734620        19.9900 
 324   0.0000       0.739592        20.1253 
 325   0.0000       0.741618        20.1805 
 326   0.0000       0.745445        20.2846 
 327   0.0000       0.746665        20.3178 
 328   0.0000       0.747692        20.3457 
 329   0.0000       0.749342        20.3906 
 330   0.0000       0.750948        20.4343 
 331   0.0000       0.755738        20.5647 
 332   0.0000       0.758171        20.6309 
 333   0.0000       0.760360        20.6905 
 334   0.0000       0.763664        20.7803 
 335   0.0000       0.773542        21.0491 
 336   0.0000       0.775588        21.1048 
 337   0.0000       0.777349        21.1527 
 338   0.0000       0.784762        21.3545 
 339   0.0000       0.786859        21.4115 
 340   0.0000       0.791526        21.5385 
 341   0.0000       0.794559        21.6210 
 342   0.0000       0.796847        21.6833 
 343   0.0000       0.800886        21.7932 
 344   0.0000       0.803837        21.8735 
 345   0.0000       0.805322        21.9139 
 346   0.0000       0.809614        22.0307 
 347   0.0000       0.813128        22.1263 
 348   0.0000       0.814901        22.1746 
 349   0.0000       0.816804        22.2264 
 350   0.0000       0.819334        22.2952 
 351   0.0000       0.822677        22.3862 
 352   0.0000       0.824728        22.4420 
 353   0.0000       0.828777        22.5522 
 354   0.0000       0.830446        22.5976 
 355   0.0000       0.832806        22.6618 
 356   0.0000       0.834786        22.7157 
 357   0.0000       0.836292        22.7567 
 358   0.0000       0.838534        22.8177 
 359   0.0000       0.838692        22.8220 
 360   0.0000       0.841071        22.8867 
 361   0.0000       0.841896        22.9092 
 362   0.0000       0.843419        22.9506 
 363   0.0000       0.844394        22.9771 
 364   0.0000       0.845509        23.0075 
 365   0.0000       0.848431        23.0870 
 366   0.0000       0.851293        23.1649 
 367   0.0000       0.854612        23.2552 
 368   0.0000       0.858523        23.3616 
 369   0.0000       0.860457        23.4142 
 370   0.0000       0.865024        23.5385 
 371   0.0000       0.866902        23.5896 
 372   0.0000       0.871064        23.7029 
 373   0.0000       0.877755        23.8849 
 374   0.0000       0.878339        23.9008 
 375   0.0000       0.882375        24.0107 
 376   0.0000       0.884371        24.0650 
 377   0.0000       0.888358        24.1734 
 378   0.0000       0.892795        24.2942 
 379   0.0000       0.895545        24.3690 
 380   0.0000       0.899069        24.4649 
 381   0.0000       0.900037        24.4913 
 382   0.0000       0.901439        24.5294 
 383   0.0000       0.903459        24.5844 
 384   0.0000       0.904302        24.6073 
 385   0.0000       0.907141        24.6846 
 386   0.0000       0.908974        24.7345 
 387   0.0000       0.910349        24.7718 
 388   0.0000       0.912058        24.8184 
 389   0.0000       0.914973        24.8977 
 390   0.0000       0.917192        24.9581 
 391   0.0000       0.920284        25.0422 
 392   0.0000       0.921152        25.0658 
 393   0.0000       0.924696        25.1623 
 394   0.0000       0.927057        25.2265 
 395   0.0000       0.932762        25.3817 
 396   0.0000       0.934431        25.4272 
 397   0.0000       0.936541        25.4846 
 398   0.0000       0.937955        25.5231 
 399   0.0000       0.940379        25.5890 
 400   0.0000       0.944320        25.6963 
 401   0.0000       0.945980        25.7414 
 402   0.0000       0.949979        25.8502 
 403   0.0000       0.951680        25.8965 
 404   0.0000       0.952213        25.9110 
 405   0.0000       0.955312        25.9954 
 406   0.0000       0.960490        26.1363 
 407   0.0000       0.965622        26.2759 
 408   0.0000       0.967983        26.3401 
 409   0.0000       0.970110        26.3980 
 410   0.0000       0.976541        26.5730 
 411   0.0000       0.978327        26.6216 
 412   0.0000       0.983317        26.7574 
 413   0.0000       0.986807        26.8524 
 414   0.0000       0.989564        26.9274 
 415   0.0000       0.990155        26.9435 
 416   0.0000       0.993020        27.0214 
 417   0.0000       1.003428        27.3047 
 418   0.0000       1.007547        27.4168 
 419   0.0000       1.014613        27.6090 
 420   0.0000       1.022191        27.8152 
 421   0.0000       1.030250        28.0345 
 422   0.0000       1.032623        28.0991 
 423   0.0000       1.038236        28.2518 
 424   0.0000       1.041050        28.3284 
 425   0.0000       1.046183        28.4681 
 426   0.0000       1.051556        28.6143 
 427   0.0000       1.066463        29.0199 
 428   0.0000       1.070295        29.1242 
 429   0.0000       1.071748        29.1638 
 430   0.0000       1.076496        29.2930 
 431   0.0000       1.079774        29.3822 
 432   0.0000       1.085346        29.5338 
 433   0.0000       1.088989        29.6329 
 434   0.0000       1.094810        29.7913 
 435   0.0000       1.099236        29.9117 
 436   0.0000       1.108443        30.1623 
 437   0.0000       1.113117        30.2894 
 438   0.0000       1.117888        30.4193 
 439   0.0000       1.118047        30.4236 
 440   0.0000       1.121060        30.5056 
 441   0.0000       1.125071        30.6147 
 442   0.0000       1.129657        30.7395 
 443   0.0000       1.131560        30.7913 
 444   0.0000       1.134681        30.8762 
 445   0.0000       1.136062        30.9138 
 446   0.0000       1.137101        30.9421 
 447   0.0000       1.142774        31.0965 
 448   0.0000       1.143626        31.1196 
 449   0.0000       1.146015        31.1846 
 450   0.0000       1.146926        31.2095 
 451   0.0000       1.150398        31.3039 
 452   0.0000       1.153590        31.3908 
 453   0.0000       1.157751        31.5040 
 454   0.0000       1.160568        31.5807 
 455   0.0000       1.167340        31.7649 
 456   0.0000       1.175222        31.9794 
 457   0.0000       1.176850        32.0237 
 458   0.0000       1.179214        32.0880 
 459   0.0000       1.186572        32.2883 
 460   0.0000       1.187995        32.3270 
 461   0.0000       1.191672        32.4270 
 462   0.0000       1.203584        32.7512 
 463   0.0000       1.205055        32.7912 
 464   0.0000       1.207031        32.8450 
 465   0.0000       1.210898        32.9502 
 466   0.0000       1.213006        33.0076 
 467   0.0000       1.217955        33.1423 
 468   0.0000       1.223719        33.2991 
 469   0.0000       1.227352        33.3979 
 470   0.0000       1.234080        33.5810 
 471   0.0000       1.235957        33.6321 
 472   0.0000       1.238095        33.6903 
 473   0.0000       1.240976        33.7687 
 474   0.0000       1.242827        33.8191 
 475   0.0000       1.245827        33.9007 
 476   0.0000       1.249278        33.9946 
 477   0.0000       1.250257        34.0212 
 478   0.0000       1.252869        34.0923 
 479   0.0000       1.254551        34.1381 
 480   0.0000       1.257836        34.2275 
 481   0.0000       1.266692        34.4684 
 482   0.0000       1.268552        34.5190 
 483   0.0000       1.271166        34.5902 
 484   0.0000       1.274545        34.6821 
 485   0.0000       1.278760        34.7968 
 486   0.0000       1.282437        34.8969 
 487   0.0000       1.285077        34.9687 
 488   0.0000       1.287679        35.0395 
 489   0.0000       1.290355        35.1123 
 490   0.0000       1.291075        35.1319 
 491   0.0000       1.294147        35.2155 
 492   0.0000       1.302376        35.4395 
 493   0.0000       1.308390        35.6031 
 494   0.0000       1.313345        35.7379 
 495   0.0000       1.315576        35.7987 
 496   0.0000       1.319132        35.8954 
 497   0.0000       1.322449        35.9857 
 498   0.0000       1.323236        36.0071 
 499   0.0000       1.328599        36.1530 
 500   0.0000       1.335652        36.3449 
 501   0.0000       1.337838        36.4044 
 502   0.0000       1.342361        36.5275 
 503   0.0000       1.347195        36.6591 
 504   0.0000       1.348851        36.7041 
 505   0.0000       1.352502        36.8034 
 506   0.0000       1.353248        36.8237 
 507   0.0000       1.355759        36.8921 
 508   0.0000       1.358047        36.9543 
 509   0.0000       1.361564        37.0500 
 510   0.0000       1.367113        37.2010 
 511   0.0000       1.368069        37.2270 
 512   0.0000       1.371084        37.3091 
[...]
      pz      :     0.021975  p :     0.079572
      px      :     0.043306
      py      :     0.014291
 77 H s       :     0.888988  s :     0.888988
      pz      :     0.047634  p :     0.078898
      px      :     0.015012
      py      :     0.016252
 78 H s       :     0.889374  s :     0.889374
      pz      :     0.025707  p :     0.078839
      px      :     0.020555
      py      :     0.032578
 79 H s       :     0.909182  s :     0.909182
      pz      :     0.022118  p :     0.086702
      px      :     0.021765
      py      :     0.042818
 80 H s       :     0.870598  s :     0.870598
      pz      :     0.038884  p :     0.084128
      px      :     0.029930
      py      :     0.015314
 81 H s       :     0.887264  s :     0.887264
      pz      :     0.037746  p :     0.083865
      px      :     0.016144
      py      :     0.029975
 82 H s       :     0.915063  s :     0.915063
      pz      :     0.022094  p :     0.086863
      px      :     0.031376
      py      :     0.033392
 83 H s       :     0.872557  s :     0.872557
      pz      :     0.039269  p :     0.083984
      px      :     0.015252
      py      :     0.029463
 84 H s       :     0.887015  s :     0.887015
      pz      :     0.035801  p :     0.083735
      px      :     0.031732
      py      :     0.016202
 85 H s       :     0.893598  s :     0.893598
      pz      :     0.022502  p :     0.079741
      px      :     0.014086
      py      :     0.043152
 86 H s       :     0.890691  s :     0.890691
      pz      :     0.024728  p :     0.078867
      px      :     0.032999
      py      :     0.021141
 87 H s       :     0.890176  s :     0.890176
      pz      :     0.047961  p :     0.078705
      px      :     0.015610
      py      :     0.015134
 88 H s       :     0.913632  s :     0.913632
      pz      :     0.021990  p :     0.086936
      px      :     0.042562
      py      :     0.022384
 89 H s       :     0.872537  s :     0.872537
      pz      :     0.037892  p :     0.083885
      px      :     0.030486
      py      :     0.015506


                      *****************************
                      * MAYER POPULATION ANALYSIS *
                      *****************************

  NA   - Mulliken gross atomic population
  ZA   - Total nuclear charge
  QA   - Mulliken gross atomic charge
  VA   - Mayer's total valence
  BVA  - Mayer's bonded valence
  FA   - Mayer's free valence

  ATOM       NA         ZA         QA         VA         BVA        FA
  0 C      5.7893     6.0000     0.2107     3.8293     3.8293    -0.0000
  1 N      7.4446     7.0000    -0.4446     3.3630     3.3630     0.0000
  2 C      6.0638     6.0000    -0.0638     3.9181     3.9181    -0.0000
  3 N      7.3371     7.0000    -0.3371     3.4462     3.4462    -0.0000
  4 C      6.0611     6.0000    -0.0611     3.9822     3.9822     0.0000
  5 N      7.5634     7.0000    -0.5634     3.0853     3.0853     0.0000
  6 C      6.0712     6.0000    -0.0712     3.9986     3.9986    -0.0000
  7 N      7.3381     7.0000    -0.3381     3.4408     3.4408    -0.0000
  8 C      5.7965     6.0000     0.2035     3.8301     3.8301    -0.0000
  9 N      7.5633     7.0000    -0.5633     3.0830     3.0830    -0.0000
 10 C      5.8847     6.0000     0.1153     3.8963     3.8963     0.0000
 11 N      7.4374     7.0000    -0.4374     3.3840     3.3840     0.0000
 12 C      6.0737     6.0000    -0.0737     3.9181     3.9181    -0.0000
 13 N      7.4385     7.0000    -0.4385     3.3853     3.3853    -0.0000
 14 C      5.7566     6.0000     0.2434     3.7869     3.7869    -0.0000
 15 N      7.4408     7.0000    -0.4408     3.3717     3.3717     0.0000
 16 C      5.7669     6.0000     0.2331     3.7909     3.7909    -0.0000
 17 C      6.0791     6.0000    -0.0791     3.9989     3.9989     0.0000
 18 C      6.2158     6.0000    -0.2158     3.7586     3.7586     0.0000
 19 C      5.7585     6.0000     0.2415     3.8662     3.8662    -0.0000
 20 C      5.7912     6.0000     0.2088     3.8257     3.8257    -0.0000
 21 C      6.0864     6.0000    -0.0864     3.9076     3.9076     0.0000
 22 C      6.0873     6.0000    -0.0873     3.9836     3.9836     0.0000
 23 C      6.0475     6.0000    -0.0475     3.9905     3.9905    -0.0000
 24 C      5.7958     6.0000     0.2042     3.8231     3.8231    -0.0000
 25 C      5.8861     6.0000     0.1139     3.8899     3.8899    -0.0000
 26 C      6.0717     6.0000    -0.0717     3.9078     3.9078    -0.0000
 27 C      5.7782     6.0000     0.2218     3.8812     3.8812    -0.0000
 28 C      6.0537     6.0000    -0.0537     3.9877     3.9877     0.0000
 29 C      6.1847     6.0000    -0.1847     3.7362     3.7362     0.0000
 30 C      5.7633     6.0000     0.2367     3.7942     3.7942    -0.0000
 31 C      5.7868     6.0000     0.2132     3.8258     3.8258    -0.0000
 32 C      6.0650     6.0000    -0.0650     3.9182     3.9182     0.0000
 33 C      6.0785     6.0000    -0.0785     3.9831     3.9831    -0.0000
 34 C      6.0505     6.0000    -0.0505     3.9909     3.9909    -0.0000
 35 C      5.7925     6.0000     0.2075     3.8240     3.8240    -0.0000
 36 C      5.8866     6.0000     0.1134     3.8894     3.8894     0.0000
 37 C      6.0666     6.0000    -0.0666     3.9175     3.9175    -0.0000
 38 C      5.7639     6.0000     0.2361     3.7988     3.7988     0.0000
 39 C      6.0607     6.0000    -0.0607     3.9901     3.9901    -0.0000
 40 C      6.1887     6.0000    -0.1887     3.7391     3.7391    -0.0000
 41 C      5.7780     6.0000     0.2220     3.8819     3.8819     0.0000
 42 C      5.7974     6.0000     0.2026     3.8275     3.8275    -0.0000
 43 C      6.0733     6.0000    -0.0733     3.9028     3.9028     0.0000
 44 C      6.0890     6.0000    -0.0890     3.9850     3.9850    -0.0000
 45 C      6.0534     6.0000    -0.0534     3.9930     3.9930     0.0000
 46 C      5.7959     6.0000     0.2041     3.8259     3.8259     0.0000
 47 C      5.8844     6.0000     0.1156     3.8936     3.8936     0.0000
 48 C      6.0732     6.0000    -0.0732     3.9048     3.9048     0.0000
 49 C      5.7721     6.0000     0.2279     3.8848     3.8848    -0.0000
 50 C      6.0524     6.0000    -0.0524     3.9903     3.9903     0.0000
 51 C      6.1894     6.0000    -0.1894     3.7363     3.7363    -0.0000
 52 H      0.9476     1.0000     0.0524     0.9852     0.9852    -0.0000
 53 H      1.0142     1.0000    -0.0142     0.9988     0.9988    -0.0000
 54 H      0.9531     1.0000     0.0469     1.0080     1.0080    -0.0000
 55 H      0.9491     1.0000     0.0509     0.9861     0.9861    -0.0000
 56 H      0.9421     1.0000     0.0579     0.9711     0.9711    -0.0000
 57 H      0.9444     1.0000     0.0556     0.9838     0.9838    -0.0000
 58 H      0.9451     1.0000     0.0549     0.9853     0.9853     0.0000
 59 H      1.0103     1.0000    -0.0103     1.0000     1.0000    -0.0000
 60 H      0.9507     1.0000     0.0493     1.0096     1.0096    -0.0000
 61 H      0.8273     1.0000     0.1727     1.0425     1.0425    -0.0000
 62 H      0.8269     1.0000     0.1731     1.0435     1.0435    -0.0000
 63 H      0.9434     1.0000     0.0566     0.9854     0.9854     0.0000
 64 H      1.0169     1.0000    -0.0169     0.9964     0.9964     0.0000
 65 H      0.9525     1.0000     0.0475     1.0089     1.0089     0.0000
 66 H      0.9423     1.0000     0.0577     0.9850     0.9850    -0.0000
 67 H      0.9372     1.0000     0.0628     0.9720     0.9720     0.0000
 68 H      0.9418     1.0000     0.0582     0.9868     0.9868     0.0000
 69 H      0.9413     1.0000     0.0587     0.9830     0.9830     0.0000
 70 H      1.0250     1.0000    -0.0250     0.9942     0.9942    -0.0000
 71 H      0.9525     1.0000     0.0475     1.0066     1.0066     0.0000
 72 H      0.9418     1.0000     0.0582     0.9848     0.9848    -0.0000
 73 H      1.0135     1.0000    -0.0135     0.9989     0.9989    -0.0000
 74 H      0.9516     1.0000     0.0484     1.0099     1.0099    -0.0000
 75 H      0.9427     1.0000     0.0573     0.9853     0.9853    -0.0000
 76 H      0.9364     1.0000     0.0636     0.9716     0.9716    -0.0000
 77 H      0.9407     1.0000     0.0593     0.9851     0.9851    -0.0000
 78 H      0.9414     1.0000     0.0586     0.9848     0.9848     0.0000
 79 H      1.0143     1.0000    -0.0143     0.9992     0.9992    -0.0000
 80 H      0.9512     1.0000     0.0488     1.0071     1.0071     0.0000
 81 H      0.9466     1.0000     0.0534     0.9855     0.9855    -0.0000
 82 H      1.0235     1.0000    -0.0235     0.9942     0.9942    -0.0000
 83 H      0.9569     1.0000     0.0431     1.0091     1.0091     0.0000
 84 H      0.9466     1.0000     0.0534     0.9855     0.9855    -0.0000
 85 H      0.9407     1.0000     0.0593     0.9716     0.9716    -0.0000
 86 H      0.9437     1.0000     0.0563     0.9840     0.9840     0.0000
 87 H      0.9434     1.0000     0.0566     0.9855     0.9855     0.0000
 88 H      1.0207     1.0000    -0.0207     0.9947     0.9947     0.0000
 89 H      0.9559     1.0000     0.0441     1.0071     1.0071    -0.0000

  Mayer bond orders larger than 0.100000
B(  0-C ,  1-N ) :   1.1135 B(  0-C , 17-C ) :   1.6480 B(  0-C , 52-H ) :   0.9691 
B(  1-N ,  8-C ) :   1.1068 B(  1-N , 10-C ) :   0.9646 B(  2-C , 12-C ) :   1.5309 
B(  2-C , 16-C ) :   1.3300 B(  2-C , 53-H ) :   0.9775 B(  3-N , 14-C ) :   1.2051 
B(  3-N , 16-C ) :   1.1956 B(  3-N , 61-H ) :   0.8983 B(  4-C ,  6-C ) :   1.2545 
B(  4-C , 17-C ) :   1.2543 B(  4-C , 18-C ) :   1.3026 B(  5-N , 19-C ) :   1.4261 
B(  5-N , 27-C ) :   1.3993 B(  6-C ,  8-C ) :   1.6495 B(  6-C , 54-H ) :   0.9702 
B(  7-N , 30-C ) :   1.1940 B(  7-N , 38-C ) :   1.2002 B(  7-N , 62-H ) :   0.8981 
B(  8-C , 55-H ) :   0.9699 B(  9-N , 41-C ) :   1.4068 B(  9-N , 49-C ) :   1.4161 
B( 10-C , 56-H ) :   0.9764 B( 10-C , 57-H ) :   0.9818 B( 10-C , 58-H ) :   0.9837 
B( 11-N , 20-C ) :   1.1262 B( 11-N , 24-C ) :   1.1211 B( 11-N , 25-C ) :   0.9582 
B( 12-C , 14-C ) :   1.3310 B( 12-C , 59-H ) :   0.9759 B( 13-N , 31-C ) :   1.1285 
B( 13-N , 35-C ) :   1.1225 B( 13-N , 36-C ) :   0.9574 B( 14-C , 18-C ) :   1.1823 
B( 15-N , 42-C ) :   1.1148 B( 15-N , 46-C ) :   1.1152 B( 15-N , 47-C ) :   0.9622 
B( 16-C , 51-C ) :   1.1940 B( 17-C , 60-H ) :   0.9701 B( 18-C , 19-C ) :   1.1988 
B( 19-C , 21-C ) :   1.2140 B( 20-C , 28-C ) :   1.6231 B( 20-C , 63-H ) :   0.9703 
B( 21-C , 26-C ) :   1.6405 B( 21-C , 64-H ) :   0.9711 B( 22-C , 23-C ) :   1.2853 
B( 22-C , 28-C ) :   1.2736 B( 22-C , 29-C ) :   1.2265 B( 23-C , 24-C ) :   1.6177 
B( 23-C , 65-H ) :   0.9708 B( 24-C , 66-H ) :   0.9691 B( 25-C , 67-H ) :   0.9761 
B( 25-C , 68-H ) :   0.9829 B( 25-C , 69-H ) :   0.9821 B( 26-C , 27-C ) :   1.2131 
B( 26-C , 70-H ) :   0.9730 B( 27-C , 29-C ) :   1.2310 B( 28-C , 71-H ) :   0.9715 
B( 29-C , 30-C ) :   1.2134 B( 30-C , 32-C ) :   1.3098 B( 31-C , 39-C ) :   1.6253 
B( 31-C , 72-H ) :   0.9694 B( 32-C , 37-C ) :   1.5485 B( 32-C , 73-H ) :   0.9779 
B( 33-C , 34-C ) :   1.2791 B( 33-C , 39-C ) :   1.2726 B( 33-C , 40-C ) :   1.2403 
B( 34-C , 35-C ) :   1.6223 B( 34-C , 74-H ) :   0.9704 B( 35-C , 75-H ) :   0.9694 
B( 36-C , 76-H ) :   0.9763 B( 36-C , 77-H ) :   0.9820 B( 36-C , 78-H ) :   0.9830 
B( 37-C , 38-C ) :   1.3115 B( 37-C , 79-H ) :   0.9776 B( 38-C , 40-C ) :   1.2098 
B( 39-C , 80-H ) :   0.9714 B( 40-C , 41-C ) :   1.2231 B( 41-C , 43-C ) :   1.2094 
B( 42-C , 50-C ) :   1.6335 B( 42-C , 81-H ) :   0.9696 B( 43-C , 48-C ) :   1.6424 
B( 43-C , 82-H ) :   0.9735 B( 44-C , 45-C ) :   1.2701 B( 44-C , 50-C ) :   1.2674 
B( 44-C , 51-C ) :   1.2557 B( 45-C , 46-C ) :   1.6328 B( 45-C , 83-H ) :   0.9712 
B( 46-C , 84-H ) :   0.9702 B( 47-C , 85-H ) :   0.9761 B( 47-C , 86-H ) :   0.9828 
B( 47-C , 87-H ) :   0.9826 B( 48-C , 49-C ) :   1.2096 B( 48-C , 88-H ) :   0.9740 
B( 49-C , 51-C ) :   1.2238 B( 50-C , 89-H ) :   0.9713 

-------
TIMINGS
-------

Total SCF time: 0 days 0 hours 26 min 41 sec 

Total time                  ....    1601.888 sec
Sum of individual times     ....    1597.194 sec  ( 99.7%)

Fock matrix formation       ....    1570.693 sec  ( 98.1%)
Diagonalization             ....       8.829 sec  (  0.6%)
Density matrix formation    ....       0.490 sec  (  0.0%)
Population analysis         ....       0.587 sec  (  0.0%)
Initial guess               ....       2.516 sec  (  0.2%)
Orbital Transformation      ....       0.000 sec  (  0.0%)
Orbital Orthonormalization  ....       0.000 sec  (  0.0%)
DIIS solution               ....       3.972 sec  (  0.2%)
SOSCF solution              ....       8.813 sec  (  0.6%)

Maximum memory used throughout the entire SCF-calculation: 302.6 MB


           ************************************************************
           *        Program running with 16 parallel MPI-processes    *
           *              working on a common directory               *
           ************************************************************

------------------------------------------------------------------------------
                                ORCA  MP2 
------------------------------------------------------------------------------

Freezing NCore=104 chemical core electrons

----------
MP2 ENERGY (disk based algorithm)
----------

Dimension of the basis                    ...  918
Memory devoted to MP2                     ... 2000 MB   
Data format for buffers                   ... DOUBLE
Compression type for matrix containers    ... UNCOMPRESSED

-------------------------------
PARTIAL EXCHANGE TRANSFORMATION
-------------------------------

Transformation type                        ... one-operator
Generation of integrals (i,mue|j,nue)      ... ON
Generation of integrals (mue,kappa|nue,tau)... OFF
Generation of integrals (i,mue|a,nue)      ... OFF
Dimension of the basis                     ...  918
Number of internal MOs                     ...  127 (  52- 178)
Pair cutoff                                ... 2.500e-12 Eh
Number of AO pairs in the trafo            ... 421821
Total Number of distinct AO pairs          ... 421821
Memory devoted for trafo                   ... 2000.0 MB 
Max. Number of MO pairs treated together   ...  311      
Number Format for Storage                  ... Double (8 Byte)
Integral package used                      ... LIBINT

Starting integral evaluation:
    ... done with AO integral generation
Closing buffer AOK     (38.32 GB; CompressionRatio= 1.32)
Collecting buffer AOK 
Number of MO pairs included in the trafo   ... 8128
------------------------
SORTING OF (i,mue|j,nue)
------------------------

IBATCH = 1 of  2
IBATCH = 2 of  2
Closing buffer KAO     (51.03 GB; CompressionRatio= 1.00)
Collecting buffer KAO 
N(AO-Batches) Done                         ...  85133153 
N(AO-Batches) Skipped                      ...  82584099 
N(IJ)-pairs Skipped                        ...         0 
TOTAL TIME for half transformation         ...  2371.308 sec
AO-integral generation                     ...   208.994 sec
Half transformation                        ...   423.650 sec
K-integral sorting                         ...  1512.393 sec
Process 10:   Internal MO 132
Process 13:   Internal MO 156

Finished integral transformation - now doing MP2 part

OPERATOR COMBINATION   0   0: ij=( 52..178, 52..178)
Process  4:   Internal MO  84
Process  1:   Internal MO  60
Process  7:   Internal MO 108
Process  2:   Internal MO  69
Process  1:   Internal MO  63
Process  5:   Internal MO  93
Process  3:   Internal MO  78
Process  0:   Internal MO  54
Process  1:   Internal MO  66
Process  8:   Internal MO 117
Process  2:   Internal MO  72
Process  0:   Internal MO  57
Process 11:   Internal MO 141
Process 14:   Internal MO 165
Process  2:   Internal MO  75
Process  6:   Internal MO 102
Process  3:   Internal MO  81
Process  7:   Internal MO 111
Process  9:   Internal MO 126
Process  4:   Internal MO  87
Process  5:   Internal MO  96
Process 12:   Internal MO 150
Process 15:   Internal MO 174
Process 10:   Internal MO 135
Process  4:   Internal MO  90
Process  8:   Internal MO 120
Process  6:   Internal MO 105
Process  5:   Internal MO  99
Process  7:   Internal MO 114
Process  9:   Internal MO 129
Process 13:   Internal MO 159
Process 11:   Internal MO 144
Process 12:   Internal MO 153
Process 14:   Internal MO 168
Process  8:   Internal MO 123
Process 10:   Internal MO 138
Process 15:   Internal MO 177
Process 11:   Internal MO 147
Process 13:   Internal MO 162
Process 14:   Internal MO 171
-----------------------------------------------
 MP2 CORRELATION ENERGY   :     -7.290160210 Eh
-----------------------------------------------


-------
TIMINGS
-------
Total time                : 2662.003 sec
Integral trafo            : 2373.974 sec ( 89.2%)
K(i,j)                    :   24.927 sec (  0.9%)
T(i,j)                    :    1.355 sec (  0.1%)

---------------------------------------
MP2 TOTAL ENERGY:    -2130.913495247 Eh
---------------------------------------

Maximum memory used throughout the entire MP2-calculation: 2275.2 MB

-------------------------   --------------------
FINAL SINGLE POINT ENERGY     -2130.913495247306
-------------------------   --------------------


                            ***************************************
                            *     ORCA property calculations      *
                            ***************************************


  WARNING: The energy has been calculated at the MP2 level but the densities
           used in the property calculations are still SCF densities
           MP2 response densities have not been calculated 
           use %mp2 Density relaxed end
           or  %mp2 Density unrelaxed end

                                    ---------------------
                                    Active property flags
                                    ---------------------
   (+) Dipole Moment


------------------------------------------------------------------------------
                       ORCA ELECTRIC PROPERTIES CALCULATION
------------------------------------------------------------------------------

Dipole Moment Calculation                       ... on
Quadrupole Moment Calculation                   ... off
Polarizability Calculation                      ... off
GBWName                                         ... /scratch/allen/tmpyp4_amber_gaff2/conf1/conf1/Conf237.orca.gbw
Electron density                                ... /scratch/allen/tmpyp4_amber_gaff2/conf1/conf1/Conf237.orca.scfp
The origin for moment calculation is the CENTER OF MASS  = ( 0.001666, -0.002899 -0.001561)

-------------
DIPOLE MOMENT
-------------
                                X             Y             Z
Electronic contribution:      0.04134      -1.26591      -0.11482
Nuclear contribution   :      0.07647       0.23843       0.12604
                        -----------------------------------------
Total Dipole Moment    :      0.11781      -1.02748       0.01122
                        -----------------------------------------
Magnitude (a.u.)       :      1.03427
Magnitude (Debye)      :      2.62890



--------------------
Rotational spectrum 
--------------------
 
Rotational constants in cm-1:     0.001499     0.001475     0.000762 
Rotational constants in MHz :    44.930799    44.217131    22.839387 

 Dipole components along the rotational axes: 
x,y,z [a.u.] :     0.446840    -0.932721     0.008932 
x,y,z [Debye]:     1.135776    -2.370787     0.022704 

 

Timings for individual modules:

Sum of individual times         ...     4288.110 sec (=  71.468 min)
GTO integral calculation        ...        3.498 sec (=   0.058 min)   0.1 %
SCF iterations                  ...     1603.123 sec (=  26.719 min)  37.4 %
MP2 module                      ...     2681.489 sec (=  44.691 min)  62.5 %
                             ****ORCA TERMINATED NORMALLY****
TOTAL RUN TIME: 0 days 1 hours 11 minutes 31 seconds 562 msec
# of primitive gaussian functions

