
                                 *****************
                                 * O   R   C   A *
                                 *****************

                                            #,                                       
                                            ###                                      
                                            ####                                     
                                            #####                                    
                                            ######                                   
                                           ########,                                 
                                     ,,################,,,,,                         
                               ,,#################################,,                 
                          ,,##########################################,,             
                       ,#########################################, ''#####,          
                    ,#############################################,,   '####,        
                  ,##################################################,,,,####,       
                ,###########''''           ''''###############################       
              ,#####''   ,,,,##########,,,,          '''####'''          '####       
            ,##' ,,,,###########################,,,                        '##       
           ' ,,###''''                  '''############,,,                           
         ,,##''                                '''############,,,,        ,,,,,,###''
      ,#''                                            '''#######################'''  
     '                                                          ''''####''''         
             ,#######,   #######,   ,#######,      ##                                
            ,#'     '#,  ##    ##  ,#'     '#,    #''#        ######   ,####,        
            ##       ##  ##   ,#'  ##            #'  '#       #        #'  '#        
            ##       ##  #######   ##           ,######,      #####,   #    #        
            '#,     ,#'  ##    ##  '#,     ,#' ,#      #,         ##   #,  ,#        
             '#######'   ##     ##  '#######'  #'      '#     #####' # '####'        



                  #######################################################
                  #                        -***-                        #
                  #          Department of theory and spectroscopy      #
                  #    Directorship and core code : Frank Neese         #
                  #        Max Planck Institute fuer Kohlenforschung    #
                  #                Kaiser Wilhelm Platz 1               #
                  #                 D-45470 Muelheim/Ruhr               #
                  #                      Germany                        #
                  #                                                     #
                  #                  All rights reserved                #
                  #                        -***-                        #
                  #######################################################


                         Program Version 5.0.4 -  RELEASE  -


 With contributions from (in alphabetic order):
   Daniel Aravena         : Magnetic Suceptibility
   Michael Atanasov       : Ab Initio Ligand Field Theory (pilot matlab implementation)
   Alexander A. Auer      : GIAO ZORA, VPT2 properties, NMR spectrum
   Ute Becker             : Parallelization
   Giovanni Bistoni       : ED, misc. LED, open-shell LED, HFLD
   Martin Brehm           : Molecular dynamics
   Dmytro Bykov           : SCF Hessian
   Vijay G. Chilkuri      : MRCI spin determinant printing, contributions to CSF-ICE
   Dipayan Datta          : RHF DLPNO-CCSD density
   Achintya Kumar Dutta   : EOM-CC, STEOM-CC
   Dmitry Ganyushin       : Spin-Orbit,Spin-Spin,Magnetic field MRCI
   Miquel Garcia          : C-PCM and meta-GGA Hessian, CC/C-PCM, Gaussian charge scheme
   Yang Guo               : DLPNO-NEVPT2, F12-NEVPT2, CIM, IAO-localization
   Andreas Hansen         : Spin unrestricted coupled pair/coupled cluster methods
   Benjamin Helmich-Paris : MC-RPA, TRAH-SCF, COSX integrals
   Lee Huntington         : MR-EOM, pCC
   Robert Izsak           : Overlap fitted RIJCOSX, COSX-SCS-MP3, EOM
   Marcus Kettner         : VPT2
   Christian Kollmar      : KDIIS, OOCD, Brueckner-CCSD(T), CCSD density, CASPT2, CASPT2-K
   Simone Kossmann        : Meta GGA functionals, TD-DFT gradient, OOMP2, MP2 Hessian
   Martin Krupicka        : Initial AUTO-CI
   Lucas Lang             : DCDCAS
   Marvin Lechner         : AUTO-CI (C++ implementation), FIC-MRCC
   Dagmar Lenk            : GEPOL surface, SMD
   Dimitrios Liakos       : Extrapolation schemes; Compound Job, initial MDCI parallelization
   Dimitrios Manganas     : Further ROCIS development; embedding schemes
   Dimitrios Pantazis     : SARC Basis sets
   Anastasios Papadopoulos: AUTO-CI, single reference methods and gradients
   Taras Petrenko         : DFT Hessian,TD-DFT gradient, ASA, ECA, R-Raman, ABS, FL, XAS/XES, NRVS
   Peter Pinski           : DLPNO-MP2, DLPNO-MP2 Gradient
   Christoph Reimann      : Effective Core Potentials
   Marius Retegan         : Local ZFS, SOC
   Christoph Riplinger    : Optimizer, TS searches, QM/MM, DLPNO-CCSD(T), (RO)-DLPNO pert. Triples
   Tobias Risthaus        : Range-separated hybrids, TD-DFT gradient, RPA, STAB
   Michael Roemelt        : Original ROCIS implementation
   Masaaki Saitow         : Open-shell DLPNO-CCSD energy and density
   Barbara Sandhoefer     : DKH picture change effects
   Avijit Sen             : IP-ROCIS
   Kantharuban Sivalingam : CASSCF convergence, NEVPT2, FIC-MRCI
   Bernardo de Souza      : ESD, SOC TD-DFT
   Georgi Stoychev        : AutoAux, RI-MP2 NMR, DLPNO-MP2 response
   Willem Van den Heuvel  : Paramagnetic NMR
   Boris Wezisla          : Elementary symmetry handling
   Frank Wennmohs         : Technical directorship


 We gratefully acknowledge several colleagues who have allowed us to
 interface, adapt or use parts of their codes:
   Stefan Grimme, W. Hujo, H. Kruse, P. Pracht,  : VdW corrections, initial TS optimization,
                  C. Bannwarth, S. Ehlert          DFT functionals, gCP, sTDA/sTD-DF
   Ed Valeev, F. Pavosevic, A. Kumar             : LibInt (2-el integral package), F12 methods
   Garnet Chan, S. Sharma, J. Yang, R. Olivares  : DMRG
   Ulf Ekstrom                                   : XCFun DFT Library
   Mihaly Kallay                                 : mrcc  (arbitrary order and MRCC methods)
   Jiri Pittner, Ondrej Demel                    : Mk-CCSD
   Frank Weinhold                                : gennbo (NPA and NBO analysis)
   Christopher J. Cramer and Donald G. Truhlar   : smd solvation model
   Lars Goerigk                                  : TD-DFT with DH, B97 family of functionals
   V. Asgeirsson, H. Jonsson                     : NEB implementation
   FAccTs GmbH                                   : IRC, NEB, NEB-TS, DLPNO-Multilevel, CI-OPT
                                                   MM, QMMM, 2- and 3-layer-ONIOM, Crystal-QMMM,
                                                   LR-CPCM, SF, NACMEs, symmetry and pop. for TD-DFT,
                                                   nearIR, NL-DFT gradient (VV10), updates on ESD,
                                                   ML-optimized integration grids
   S Lehtola, MJT Oliveira, MAL Marques          : LibXC Library
   Liviu Ungur et al                             : ANISO software


 Your calculation uses the libint2 library for the computation of 2-el integrals
 For citations please refer to: http://libint.valeyev.net

 Your ORCA version has been built with support for libXC version: 5.1.0
 For citations please refer to: https://tddft.org/programs/libxc/

 This ORCA versions uses:
   CBLAS   interface :  Fast vector & matrix operations
   LAPACKE interface :  Fast linear algebra routines
   SCALAPACK package :  Parallel linear algebra routines
   Shared memory     :  Shared parallel matrices
   BLAS/LAPACK       :  OpenBLAS 0.3.15  USE64BITINT DYNAMIC_ARCH NO_AFFINITY Sandybridge SINGLE_THREADED
        Core in use  :  Sandybridge
   Copyright (c) 2011-2014, The OpenBLAS Project


================================================================================

----- Orbital basis set information -----
Your calculation utilizes the basis: cc-pVDZ 
       H, B-Ne : Obtained from the ccRepo (grant-hill.group.shef.ac.uk/ccrepo) Feb. 2017
                 T. H. Dunning, Jr., J. Chem. Phys. 90, 1007 (1989)
            He : Obtained from the ccRepo (grant-hill.group.shef.ac.uk/ccrepo) Feb. 2017
                 D. E. Woon, T. H. Dunning, Jr., J. Chem. Phys. 100, 2975 (1994)
  Li-Be, Na-Mg : Obtained from the ccRepo (grant-hill.group.shef.ac.uk/ccrepo) Feb. 2017
                 B. P. Prascher, D. E. Woon, K. A. Peterson, T. H. Dunning, Jr., A. K. Wilson, Theor. Chem. Acc. 128, 69 (2011)
         Al-Ar : Obtained from the ccRepo (grant-hill.group.shef.ac.uk/ccrepo) Feb. 2017
                 D. E. Woon, T. H. Dunning, Jr., J. Chem. Phys. 98, 1358 (1993)
            Ca : Obtained from the Peterson Research Group Website (tyr0.chem.wsu.edu/~kipeters) Feb. 2017
                 J. Koput, K. A. Peterson, J. Phys. Chem. 106, 9595 (2002)
         Sc-Zn : Obtained from the ccRepo (grant-hill.group.shef.ac.uk/ccrepo) Feb. 2017
                 N. B. Balabanov, K. A. Peterson, J. Chem. Phys. 123, 064107 (2005)
                 N. B. Balabanov, K. A. Peterson, J. Chem. Phys. 125, 074110 (2006)
         Ga-Kr : Obtained from the ccRepo (grant-hill.group.shef.ac.uk/ccrepo) Feb. 2017
                 A. K. Wilson, D. E. Woon, K. A. Peterson, T. H. Dunning, Jr., J. Chem. Phys. 110, 7667 (1999)

================================================================================
                                        WARNINGS
                       Please study these warnings very carefully!
================================================================================


WARNING: No MP2 level density has been requested!
         To caclulate MP2 level properties use
         %mp2 Density relaxed end
         or
         %mp2 Density unrelaxed end

WARNING: Post HF methods need fully converged wavefunctions
  ===> : Setting SCFConvForced true
         You can overwrite this default with %scf ConvForced false 


INFO   : the flag for use of the SHARK integral package has been found!

================================================================================
                                       INPUT FILE
================================================================================
NAME = /scratch/allen/tmpyp4_amber_gaff2/2.Mdgx/conf11/conf11/Conf330.orca
|  1> ! PAL2
|  2> ! mp2 cc-pvdz TightSCF  NoKeepInts
|  3> 
|  4> %scf
|  5>   MaxCore 2000
|  6> end
|  7> %mp2
|  8>   MaxCore 2000
|  9> end
| 10> * xyz 0 1
| 11>    C       -3.17700         6.38500         0.70600
| 12>    C        1.47400         4.04100         0.05700
| 13>    C       -2.80200         4.09300         0.04900
| 14>    C       -4.06200         4.11800        -0.56800
| 15>    C       -4.83000         5.26400        -0.53100
| 16>    C       -5.21700         7.60000         0.09200
| 17>    C        0.13200         4.30700         0.06100
| 18>    C       -0.56900         3.05600         0.04700
| 19>    C        1.64900         2.61800         0.02300
| 20>    C       -2.37000         5.26400         0.69100
| 21>    N       -4.38700         6.37500         0.10200
| 22>    N        0.38800         2.06700         0.02500
| 23>    N       -2.01000         0.39500        -0.07500
| 24>    N       -0.38800        -2.07400        -0.02700
| 25>    N        2.01000        -0.40100         0.06500
| 26>    C       -1.96000         2.86100         0.02400
| 27>    C       -2.62300         1.61500        -0.01800
| 28>    C       -5.57300        -4.32900         1.06600
| 29>    C       -4.07300         1.47100         0.05600
| 30>    C       -4.10600        -2.75600        -0.02600
| 31>    C       -4.99500        -2.75700        -1.11100
| 32>    C       -6.13200        -3.54200        -1.07600
| 33>    C       -7.65100        -5.11300         0.04000
| 34>    C       -4.32400         0.14100         0.03700
| 35>    C       -3.02500        -0.52000        -0.04800
| 36>    C       -4.42200        -3.56600         1.07500
| 37>    N       -6.40700        -4.31300         0.00100
| 38>    C       -2.86700        -1.92200        -0.04000
| 39>    C       -1.65000        -2.62400        -0.02700
| 40>    C        3.56800        -6.14200        -1.04000
| 41>    C       -1.47600        -4.04900        -0.03400
| 42>    C        2.80300        -4.09900        -0.00800
| 43>    C        3.65700        -4.38400         1.06900
| 44>    C        4.42700        -5.53000         1.05900
| 45>    C        5.24500        -7.58800         0.01400
| 46>    C       -0.13400        -4.31500        -0.02200
| 47>    C        0.56800        -3.06400        -0.02700
| 48>    C        2.77500        -5.01200        -1.07400
| 49>    N        4.37600        -6.39100         0.01700
| 50>    C        1.95900        -2.86900        -0.00900
| 51>    C        2.62100        -1.62200         0.00900
| 52>    C        5.54300         4.33900        -1.13000
| 53>    C        4.07000        -1.47900        -0.09400
| 54>    C        4.10400         2.75100        -0.02100
| 55>    C        5.02700         2.72900         1.03600
| 56>    C        6.16600         3.50900         0.97800
| 57>    C        7.61900         5.15300        -0.11500
| 58>    C        4.32100        -0.14800        -0.09200
| 59>    C        3.02500         0.51400         0.01500
| 60>    C        4.38700         3.58200        -1.11500
| 61>    C        2.86600         1.91600         0.01300
| 62>    N        6.41300         4.29600        -0.09500
| 63>    H       -2.88900         7.30500         1.20000
| 64>    H        2.27400         4.76600         0.08100
| 65>    H       -4.44700         3.24900        -1.08800
| 66>    H       -5.80300         5.33400        -0.99900
| 67>    H       -5.00800         8.16300        -0.82100
| 68>    H       -6.26800         7.31200         0.12200
| 69>    H       -4.96900         8.19900         0.96700
| 70>    H       -0.33200         5.28200         0.06900
| 71>    H       -1.41200         5.30300         1.19800
| 72>    H        0.18200         1.07200         0.00500
| 73>    H       -0.18300        -1.08000        -0.02100
| 74>    H       -5.86400        -4.96200         1.89500
| 75>    H       -4.79400         2.27200         0.13900
| 76>    H       -4.80000        -2.16000        -1.99400
| 77>    H       -6.84100        -3.58200        -1.89300
| 78>    H       -8.42800        -4.53600         0.54600
| 79>    H       -7.95600        -5.33700        -0.98100
| 80>    H       -7.45600        -6.03700         0.58400
| 81>    H       -5.28700        -0.34400         0.10000
| 82>    H       -3.78000        -3.60100         1.94700
| 83>    H        3.58700        -6.86800        -1.84300
| 84>    H       -2.27600        -4.77400        -0.05000
| 85>    H        3.71400        -3.72400         1.92600
| 86>    H        5.09200        -5.79500         1.87100
| 87>    H        6.20500        -7.32900        -0.43900
| 88>    H        5.39300        -7.91700         1.04200
| 89>    H        4.75900        -8.37300        -0.56400
| 90>    H        0.32900        -5.29000        -0.00800
| 91>    H        2.14600        -4.84200        -1.94000
| 92>    H        5.80800         4.98600        -1.95600
| 93>    H        4.78800        -2.28100        -0.18500
| 94>    H        4.86000         2.11400         1.91200
| 95>    H        6.90100         3.53100         1.77200
| 96>    H        7.38300         6.10900         0.35600
| 97>    H        8.41400         4.65200         0.43500
| 98>    H        7.92100         5.31000        -1.15000
| 99>    H        5.28300         0.33600        -0.17900
|100>    H        3.72000         3.63200        -1.96700
|101> *
|102> 
|103>                          ****END OF INPUT****
================================================================================

                       ****************************
                       * Single Point Calculation *
                       ****************************

---------------------------------
CARTESIAN COORDINATES (ANGSTROEM)
---------------------------------
  C     -3.177000    6.385000    0.706000
  C      1.474000    4.041000    0.057000
  C     -2.802000    4.093000    0.049000
  C     -4.062000    4.118000   -0.568000
  C     -4.830000    5.264000   -0.531000
  C     -5.217000    7.600000    0.092000
  C      0.132000    4.307000    0.061000
  C     -0.569000    3.056000    0.047000
  C      1.649000    2.618000    0.023000
  C     -2.370000    5.264000    0.691000
  N     -4.387000    6.375000    0.102000
  N      0.388000    2.067000    0.025000
  N     -2.010000    0.395000   -0.075000
  N     -0.388000   -2.074000   -0.027000
  N      2.010000   -0.401000    0.065000
  C     -1.960000    2.861000    0.024000
  C     -2.623000    1.615000   -0.018000
  C     -5.573000   -4.329000    1.066000
  C     -4.073000    1.471000    0.056000
  C     -4.106000   -2.756000   -0.026000
  C     -4.995000   -2.757000   -1.111000
  C     -6.132000   -3.542000   -1.076000
  C     -7.651000   -5.113000    0.040000
  C     -4.324000    0.141000    0.037000
  C     -3.025000   -0.520000   -0.048000
  C     -4.422000   -3.566000    1.075000
  N     -6.407000   -4.313000    0.001000
  C     -2.867000   -1.922000   -0.040000
  C     -1.650000   -2.624000   -0.027000
  C      3.568000   -6.142000   -1.040000
  C     -1.476000   -4.049000   -0.034000
  C      2.803000   -4.099000   -0.008000
  C      3.657000   -4.384000    1.069000
  C      4.427000   -5.530000    1.059000
  C      5.245000   -7.588000    0.014000
  C     -0.134000   -4.315000   -0.022000
  C      0.568000   -3.064000   -0.027000
  C      2.775000   -5.012000   -1.074000
  N      4.376000   -6.391000    0.017000
  C      1.959000   -2.869000   -0.009000
  C      2.621000   -1.622000    0.009000
  C      5.543000    4.339000   -1.130000
  C      4.070000   -1.479000   -0.094000
  C      4.104000    2.751000   -0.021000
  C      5.027000    2.729000    1.036000
  C      6.166000    3.509000    0.978000
  C      7.619000    5.153000   -0.115000
  C      4.321000   -0.148000   -0.092000
  C      3.025000    0.514000    0.015000
  C      4.387000    3.582000   -1.115000
  C      2.866000    1.916000    0.013000
  N      6.413000    4.296000   -0.095000
  H     -2.889000    7.305000    1.200000
  H      2.274000    4.766000    0.081000
  H     -4.447000    3.249000   -1.088000
  H     -5.803000    5.334000   -0.999000
  H     -5.008000    8.163000   -0.821000
  H     -6.268000    7.312000    0.122000
  H     -4.969000    8.199000    0.967000
  H     -0.332000    5.282000    0.069000
  H     -1.412000    5.303000    1.198000
  H      0.182000    1.072000    0.005000
  H     -0.183000   -1.080000   -0.021000
  H     -5.864000   -4.962000    1.895000
  H     -4.794000    2.272000    0.139000
  H     -4.800000   -2.160000   -1.994000
  H     -6.841000   -3.582000   -1.893000
  H     -8.428000   -4.536000    0.546000
  H     -7.956000   -5.337000   -0.981000
  H     -7.456000   -6.037000    0.584000
  H     -5.287000   -0.344000    0.100000
  H     -3.780000   -3.601000    1.947000
  H      3.587000   -6.868000   -1.843000
  H     -2.276000   -4.774000   -0.050000
  H      3.714000   -3.724000    1.926000
  H      5.092000   -5.795000    1.871000
  H      6.205000   -7.329000   -0.439000
  H      5.393000   -7.917000    1.042000
  H      4.759000   -8.373000   -0.564000
  H      0.329000   -5.290000   -0.008000
  H      2.146000   -4.842000   -1.940000
  H      5.808000    4.986000   -1.956000
  H      4.788000   -2.281000   -0.185000
  H      4.860000    2.114000    1.912000
  H      6.901000    3.531000    1.772000
  H      7.383000    6.109000    0.356000
  H      8.414000    4.652000    0.435000
  H      7.921000    5.310000   -1.150000
  H      5.283000    0.336000   -0.179000
  H      3.720000    3.632000   -1.967000

----------------------------
CARTESIAN COORDINATES (A.U.)
----------------------------
  NO LB      ZA    FRAG     MASS         X           Y           Z
   0 C     6.0000    0    12.011   -6.003660   12.065901    1.334147
   1 C     6.0000    0    12.011    2.785456    7.636383    0.107714
   2 C     6.0000    0    12.011   -5.295013    7.734649    0.092597
   3 C     6.0000    0    12.011   -7.676068    7.781892   -1.073364
   4 C     6.0000    0    12.011   -9.127377    9.947518   -1.003445
   5 C     6.0000    0    12.011   -9.858701   14.361919    0.173855
   6 C     6.0000    0    12.011    0.249444    8.139050    0.115273
   7 C     6.0000    0    12.011   -1.075254    5.775003    0.088817
   8 C     6.0000    0    12.011    3.116158    4.947303    0.043464
   9 C     6.0000    0    12.011   -4.478651    9.947518    1.305801
  10 N     7.0000    0    14.007   -8.290229   12.047004    0.192752
  11 N     7.0000    0    14.007    0.733214    3.906064    0.047243
  12 N     7.0000    0    14.007   -3.798350    0.746442   -0.141729
  13 N     7.0000    0    14.007   -0.733214   -3.919292   -0.051023
  14 N     7.0000    0    14.007    3.798350   -0.757780    0.122832
  15 C     6.0000    0    12.011   -3.703863    5.406506    0.045353
  16 C     6.0000    0    12.011   -4.956752    3.051908   -0.034015
  17 C     6.0000    0    12.011  -10.531444   -8.180624    2.014448
  18 C     6.0000    0    12.011   -7.696855    2.779787    0.105825
  19 C     6.0000    0    12.011   -7.759216   -5.208085   -0.049133
  20 C     6.0000    0    12.011   -9.439182   -5.209975   -2.099486
  21 C     6.0000    0    12.011  -11.587801   -6.693410   -2.033345
  22 C     6.0000    0    12.011  -14.458295   -9.662170    0.075589
  23 C     6.0000    0    12.011   -8.171176    0.266451    0.069920
  24 C     6.0000    0    12.011   -5.716422   -0.982658   -0.090707
  25 C     6.0000    0    12.011   -8.356369   -6.738763    2.031456
  26 N     7.0000    0    14.007  -12.107475   -8.150389    0.001890
  27 C     6.0000    0    12.011   -5.417845   -3.632054   -0.075589
  28 C     6.0000    0    12.011   -3.118048   -4.958641   -0.051023
  29 C     6.0000    0    12.011    6.742543  -11.606698   -1.965315
  30 C     6.0000    0    12.011   -2.789236   -7.651501   -0.064251
  31 C     6.0000    0    12.011    5.296902   -7.745987   -0.015118
  32 C     6.0000    0    12.011    6.910728   -8.284559    2.020117
  33 C     6.0000    0    12.011    8.365818  -10.450186    2.001220
  34 C     6.0000    0    12.011    9.911614  -14.339242    0.026456
  35 C     6.0000    0    12.011   -0.253223   -8.154168   -0.041574
  36 C     6.0000    0    12.011    1.073364   -5.790121   -0.051023
  37 C     6.0000    0    12.011    5.243990   -9.471307   -2.029566
  38 N     7.0000    0    14.007    8.269442  -12.077240    0.032125
  39 C     6.0000    0    12.011    3.701973   -5.421624   -0.017008
  40 C     6.0000    0    12.011    4.952972   -3.065136    0.017008
  41 C     6.0000    0    12.011   10.474752    8.199522   -2.135391
  42 C     6.0000    0    12.011    7.691185   -2.794905   -0.177634
  43 C     6.0000    0    12.011    7.755436    5.198637   -0.039684
  44 C     6.0000    0    12.011    9.499653    5.157063    1.957756
  45 C     6.0000    0    12.011   11.652051    6.631049    1.848152
  46 C     6.0000    0    12.011   14.397823    9.737759   -0.217319
  47 C     6.0000    0    12.011    8.165507   -0.279679   -0.173855
  48 C     6.0000    0    12.011    5.716422    0.971319    0.028346
  49 C     6.0000    0    12.011    8.290229    6.768999   -2.107045
  50 C     6.0000    0    12.011    5.415955    3.620715    0.024566
  51 N     7.0000    0    14.007   12.118814    8.118263   -0.179524
  52 H     1.0000    0     1.008   -5.459419   13.804449    2.267671
  53 H     1.0000    0     1.008    4.297237    9.006435    0.153068
  54 H     1.0000    0     1.008   -8.403612    6.139720   -2.056022
  55 H     1.0000    0     1.008  -10.966081   10.079799   -1.887836
  56 H     1.0000    0     1.008   -9.463748   15.425834   -1.551465
  57 H     1.0000    0     1.008  -11.844803   13.817677    0.230547
  58 H     1.0000    0     1.008   -9.390049   15.493865    1.827365
  59 H     1.0000    0     1.008   -0.627389    9.981533    0.130391
  60 H     1.0000    0     1.008   -2.668293   10.021218    2.263892
  61 H     1.0000    0     1.008    0.343930    2.025786    0.009449
  62 H     1.0000    0     1.008   -0.345820   -2.040904   -0.039684
  63 H     1.0000    0     1.008  -11.081354   -9.376821    3.581031
  64 H     1.0000    0     1.008   -9.059347    4.293458    0.262672
  65 H     1.0000    0     1.008   -9.070685   -4.081808   -3.768114
  66 H     1.0000    0     1.008  -12.927616   -6.768999   -3.577252
  67 H     1.0000    0     1.008  -15.926612   -8.571798    1.031790
  68 H     1.0000    0     1.008  -15.034661  -10.085468   -1.853821
  69 H     1.0000    0     1.008  -14.089798  -11.408277    1.103600
  70 H     1.0000    0     1.008   -9.990982   -0.650066    0.188973
  71 H     1.0000    0     1.008   -7.143165   -6.804904    3.679297
  72 H     1.0000    0     1.008    6.778448  -12.978639   -3.482765
  73 H     1.0000    0     1.008   -4.301017   -9.021553   -0.094486
  74 H     1.0000    0     1.008    7.018443   -7.037340    3.639613
  75 H     1.0000    0     1.008    9.622485  -10.950963    3.535678
  76 H     1.0000    0     1.008   11.725751  -13.849803   -0.829590
  77 H     1.0000    0     1.008   10.191293  -14.960962    1.969095
  78 H     1.0000    0     1.008    8.993207  -15.822677   -1.065806
  79 H     1.0000    0     1.008    0.621720   -9.996651   -0.015118
  80 H     1.0000    0     1.008    4.055352   -9.150054   -3.666069
  81 H     1.0000    0     1.008   10.975529    9.422175   -3.696304
  82 H     1.0000    0     1.008    9.048009   -4.310465   -0.349599
  83 H     1.0000    0     1.008    9.184069    3.994881    3.613156
  84 H     1.0000    0     1.008   13.041000    6.672623    3.348595
  85 H     1.0000    0     1.008   13.951848   11.544337    0.672743
  86 H     1.0000    0     1.008   15.900156    8.791006    0.822031
  87 H     1.0000    0     1.008   14.968521   10.034446   -2.173185
  88 H     1.0000    0     1.008    9.983423    0.634948   -0.338261
  89 H     1.0000    0     1.008    7.029781    6.863485   -3.717091

--------------------------------
INTERNAL COORDINATES (ANGSTROEM)
--------------------------------
 C      0   0   0     0.000000000000     0.00000000     0.00000000
 C      1   0   0     5.248555801361     0.00000000     0.00000000
 C      1   2   0     2.413615130877    53.45635618     0.00000000
 C      3   1   2     1.403179959948    87.89444017   205.03458635
 C      4   3   1     1.380039492189   120.18052801     0.12259331
 C      5   4   3     2.448426841872   152.50658399     1.64173842
 C      2   1   3     1.368114030335    16.97601532     9.03611760
 C      7   2   1     1.434084376876   108.05010202   203.80938263
 C      2   1   3     1.434123425651   123.65560321   342.46619959
 C      1   2   3     1.381345358699    28.17982676    26.51160448
 N      1   2   3     1.352411180078   137.24883337   321.50184418
 N      9   2   1     1.376127174356   106.58526707     7.14015395
 N     12   9   2     2.925062050624   168.53581413   171.12065651
 N     13  12   9     2.954513327098    91.55032014    11.12112580
 N     14  13  12     2.925371258490    88.43092389   359.84326247
 C      8   7   2     1.404790019896   127.24786865   181.11170171
 C     13  12   9     1.366535034311    81.72106996   188.00453233
 C     14  13  12     5.758810554272    80.56209567   166.76250791
 C     17  13  12     1.459010623676   111.08861209   183.82872609
 C     18  14  13     2.412235892279    27.27532823    36.33507194
 C     20  18  14     1.402692767501    87.95206320   148.94598259
 C     21  20  18     1.382106725257   120.14573887   359.70382047
 C     18  14  13     2.446510985056   144.15733107    82.80075377
 C     19  17  13     1.353610726908   106.29293361   359.75308708
 C     13  12   9     1.366813447402   172.21332906    33.46711076
 C     18  14  13     1.380960173213    15.08449437   309.23336894
 N     22  21  20     1.352773077792   120.73759875     0.27865223
 C     25  13  17     1.410897586645   125.60330303   182.37774668
 C     14  13  12     1.376642291955    80.24689249   177.85461986
 C     14  13  12     5.764089607215   164.51507311   312.20821879
 C     29  14  13     1.435600919476   106.58649366   178.76395472
 C     30  14  13     2.413316804732    27.10625047    82.12560436
 C     32  30  14     1.403734305344    87.90059683   149.76154742
 C     33  32  30     1.380694028378   120.14881443   359.74174632
 C     34  33  32     2.448777858443   152.49203239     2.45173620
 C     31  29  14     1.368160809262   108.16950133     0.70383075
 C     14  13  12     1.376239804685   169.26375223   353.09862627
 C     30  14  13     1.380907310430    14.68948582   353.70041132
 N     34  33  32     1.352658863128   120.85575621     0.19603406
 C     37  14  29     1.404717053360   126.01551127   180.90772073
 C     15  14  13     1.366491126938    81.61824056   183.09049352
 C      2   1   3     4.249062720177   148.40995716   146.01743399
 C     41  15  14     1.459677704153   111.05201287   175.08990246
 C     42   2   1     2.412953791518    41.78584867   170.00858766
 C     44  42   2     1.403446472082    87.95153797   233.97558675
 C     45  44  42     1.381696421071   120.11137308     0.19721020
 C     42   2   1     2.450019795838   135.97209175    80.32343676
 C     43  41  15     1.354461516618   106.26758155     0.30894352
 C     15  14  13     1.367461151185   171.87382904   332.35056460
 C     42   2   1     1.381886391857    32.59078432   218.86386685
 C      9   2   1     1.404988612053   126.98745415   188.14449147
 N     42   2   1     1.352765315936   113.57249190   108.06002596
 H      1   2   3     1.083226661415   101.54233724   168.08884217
 H      2   1   3     1.079907866440   110.72533099   169.65359525
 H      4   3   1     1.083414048275   121.05459486   179.53257481
 H      5   4   3     1.081967189891   122.85992953   179.46030894
 H      6   5   4     1.092803275983   104.40175062   100.09257918
 H      6   5   4     1.090158245394    84.68301324   209.49822015
 H      6   5   4     1.089004132224   133.88697359   322.33527858
 H      7   2   1     1.079807853278   126.66122480    24.04779642
 H     10   1   2     1.084589323200   118.80097292    46.62638863
 H     12   9   2     1.016297692608   125.29023241   180.00180175
 H     14  13  12     1.014936943854    44.97226959   359.42596618
 H     18  14  13     1.082871645210   128.03556573   234.20482432
 H     19  17  13     1.080893611786   126.41830519   178.11313280
 H     21  20  18     1.083569563987   121.05669627   180.67006309
 H     22  21  20     1.082483256222   122.73097286   180.59748951
 H     23  18  14     1.092105306278   103.92715769   234.93429879
 H     23  18  14     1.088871893291   134.19244188    12.25587044
 H     23  18  14     1.089833473518    84.85857450   125.45241208
 H     24  19  17     1.080075460327   127.28078426   178.44613241
 H     26  18  14     1.083408048706   118.76995697   244.94906660
 H     30  14  13     1.082703098730   127.99711412   279.66882698
 H     31  29  14     1.079759695488   125.22293469   180.92530585
 H     33  32  30     1.083188810873   121.01964473   180.74284758
 H     34  33  32     1.082494341787   122.70821597   180.59516895
 H     35  34  33     1.092652735319   105.73575241    97.19771933
 H     35  34  33     1.089462711615    84.05943581   206.43036958
 H     35  34  33     1.089268102902   133.08365142   318.50306270
 H     36  31  29     1.079439669458   126.61599965   178.98859863
 H     38  30  73     1.083742127999   118.77264435   359.90091293
 H     42   2   1     1.082178358682   119.31790784   324.69155641
 H     43  41  15     1.080281907652   126.36969097   182.06329380
 H     45  44  42     1.083277434455   121.10105945   179.58025624
 H     46  45  44     1.082194529648   122.72144639   179.46906377
 H     47  42   2     1.091546151109   106.65128841   315.16475048
 H     47  42   2     1.088818625851   132.46019523    94.52397119
 H     47  42   2     1.089531091801    83.63838232   206.04504406
 H     48  43  41     1.080402239909   127.23657387   181.62955349
 H     50  42   2     1.083186502870   118.77001737    94.71359229

---------------------------
INTERNAL COORDINATES (A.U.)
---------------------------
 C      0   0   0     0.000000000000     0.00000000     0.00000000
 C      1   0   0     9.918333063176     0.00000000     0.00000000
 C      1   2   0     4.561071590047    53.45635618     0.00000000
 C      3   1   2     2.651625840909    87.89444017   205.03458635
 C      4   3   1     2.607896694232   120.18052801     0.12259331
 C      5   4   3     4.626856190080   152.50658399     1.64173842
 C      2   1   3     2.585360837309    16.97601532     9.03611760
 C      7   2   1     2.710026725231   108.05010202   203.80938263
 C      2   1   3     2.710100516721   123.65560321   342.46619959
 C      1   2   3     2.610364424305    28.17982676    26.51160448
 N      1   2   3     2.555686750801   137.24883337   321.50184418
 N      9   2   1     2.600503484979   106.58526707     7.14015395
 N     12   9   2     5.527566200405   168.53581413   171.12065651
 N     13  12   9     5.583221047236    91.55032014    11.12112580
 N     14  13  12     5.528150518591    88.43092389   359.84326247
 C      8   7   2     2.654668413270   127.24786865   181.11170171
 C     13  12   9     2.582376967257    81.72106996   188.00453233
 C     14  13  12    10.882574804710    80.56209567   166.76250791
 C     17  13  12     2.757130505230   111.08861209   183.82872609
 C     18  14  13     4.558465206823    27.27532823    36.33507194
 C     20  18  14     2.650705180609    87.95206320   148.94598259
 C     21  20  18     2.611803198586   120.14573887   359.70382047
 C     18  14  13     4.623235745386   144.15733107    82.80075377
 C     19  17  13     2.557953565794   106.29293361   359.75308708
 C     13  12   9     2.582903091751   172.21332906    33.46711076
 C     18  14  13     2.609636529225    15.08449437   309.23336894
 N     22  21  20     2.556370638369   120.73759875     0.27865223
 C     25  13  17     2.666210041769   125.60330303   182.37774668
 C     14  13  12     2.601476916169    80.24689249   177.85461986
 C     14  13  12    10.892550769017   164.51507311   312.20821879
 C     29  14  13     2.712892575415   106.58649366   178.76395472
 C     30  14  13     4.560507835333    27.10625047    82.12560436
 C     32  30  14     2.652673401891    87.90059683   149.76154742
 C     33  32  30     2.609133588376   120.14881443   359.74174632
 C     34  33  32     4.627519515267   152.49203239     2.45173620
 C     31  29  14     2.585449236669   108.16950133     0.70383075
 C     14  13  12     2.600716325456   169.26375223   353.09862627
 C     30  14  13     2.609536633043    14.68948582   353.70041132
 N     34  33  32     2.556154803934   120.85575621     0.19603406
 C     37  14  29     2.654530526499   126.01551127   180.90772073
 C     15  14  13     2.582293994346    81.61824056   183.09049352
 C      2   1   3     8.029564866989   148.40995716   146.01743399
 C     41  15  14     2.758391104639   111.05201287   175.08990246
 C     42   2   1     4.559821839776    41.78584867   170.00858766
 C     44  42   2     2.652129475853    87.95153797   233.97558675
 C     45  44  42     2.611027836043   120.11137308     0.19721020
 C     42   2   1     4.629866436820   135.97209175    80.32343676
 C     43  41  15     2.559561325344   106.26758155     0.30894352
 C     15  14  13     2.584127074516   171.87382904   332.35056460
 C     42   2   1     2.611386828803    32.59078432   218.86386685
 C      9   2   1     2.655043698059   126.98745415   188.14449147
 N     42   2   1     2.556355970587   113.57249190   108.06002596
 H      1   2   3     2.047001731036   101.54233724   168.08884217
 H      2   1   3     2.040730117440   110.72533099   169.65359525
 H      4   3   1     2.047355840883   121.05459486   179.53257481
 H      5   4   3     2.044621674782   122.85992953   179.46030894
 H      6   5   4     2.065098909861   104.40175062   100.09257918
 H      6   5   4     2.060100526430    84.68301324   209.49822015
 H      6   5   4     2.057919568611   133.88697359   322.33527858
 H      7   2   1     2.040541119952   126.66122480    24.04779642
 H     10   1   2     2.049576788623   118.80097292    46.62638863
 H     12   9   2     1.920524309565   125.29023241   180.00180175
 H     14  13  12     1.917952867083    44.97226959   359.42596618
 H     18  14  13     2.046330847636   128.03556573   234.20482432
 H     19  17  13     2.042592906181   126.41830519   178.11313280
 H     21  20  18     2.047649722989   121.05669627   180.67006309
 H     22  21  20     2.045596898814   122.73097286   180.59748951
 H     23  18  14     2.063779938267   103.92715769   234.93429879
 H     23  18  14     2.057669673245   134.19244188    12.25587044
 H     23  18  14     2.059486796529    84.85857450   125.45241208
 H     24  19  17     2.041046823986   127.28078426   178.44613241
 H     26  18  14     2.047344503340   118.76995697   244.94906660
 H     30  14  13     2.046012340948   127.99711412   279.66882698
 H     31  29  14     2.040450114918   125.22293469   180.92530585
 H     33  32  30     2.046930203877   121.01964473   180.74284758
 H     34  33  32     2.045617847496   122.70821597   180.59516895
 H     35  34  33     2.064814429233   105.73575241    97.19771933
 H     35  34  33     2.058786158072    84.05943581   206.43036958
 H     35  34  33     2.058418400901   133.08365142   318.50306270
 H     36  31  29     2.039845353366   126.61599965   178.98859863
 H     38  30  73     2.047975821711   118.77264435   359.90091293
 H     42   2   1     2.045020725966   119.31790784   324.69155641
 H     43  41  15     2.041436952892   126.36969097   182.06329380
 H     45  44  42     2.047097678177   121.10105945   179.58025624
 H     46  45  44     2.045051284662   122.72144639   179.46906377
 H     47  42   2     2.062723288131   106.65128841   315.16475048
 H     47  42   2     2.057569012371   132.46019523    94.52397119
 H     47  42   2     2.058915377895    83.63838232   206.04504406
 H     48  43  41     2.041664347903   127.23657387   181.62955349
 H     50  42   2     2.046925842384   118.77001737    94.71359229

---------------------
BASIS SET INFORMATION
---------------------
There are 3 groups of distinct atoms

 Group   1 Type C   : 17s4p1d contracted to 3s2p1d pattern {881/31/1}
 Group   2 Type N   : 17s4p1d contracted to 3s2p1d pattern {881/31/1}
 Group   3 Type H   : 4s1p contracted to 2s1p pattern {31/1}

Atom   0C    basis set group =>   1
Atom   1N    basis set group =>   2
Atom   2C    basis set group =>   1
Atom   3N    basis set group =>   2
Atom   4C    basis set group =>   1
Atom   5N    basis set group =>   2
Atom   6C    basis set group =>   1
Atom   7N    basis set group =>   2
Atom   8C    basis set group =>   1
Atom   9N    basis set group =>   2
Atom  10C    basis set group =>   1
Atom  11N    basis set group =>   2
Atom  12C    basis set group =>   1
Atom  13N    basis set group =>   2
Atom  14C    basis set group =>   1
Atom  15N    basis set group =>   2
Atom  16C    basis set group =>   1
Atom  17C    basis set group =>   1
Atom  18C    basis set group =>   1
Atom  19C    basis set group =>   1
Atom  20C    basis set group =>   1
Atom  21C    basis set group =>   1
Atom  22C    basis set group =>   1
Atom  23C    basis set group =>   1
Atom  24C    basis set group =>   1
Atom  25C    basis set group =>   1
Atom  26C    basis set group =>   1
Atom  27C    basis set group =>   1
Atom  28C    basis set group =>   1
Atom  29C    basis set group =>   1
Atom  30C    basis set group =>   1
Atom  31C    basis set group =>   1
Atom  32C    basis set group =>   1
Atom  33C    basis set group =>   1
Atom  34C    basis set group =>   1
Atom  35C    basis set group =>   1
Atom  36C    basis set group =>   1
Atom  37C    basis set group =>   1
Atom  38C    basis set group =>   1
Atom  39C    basis set group =>   1
Atom  40C    basis set group =>   1
Atom  41C    basis set group =>   1
Atom  42C    basis set group =>   1
Atom  43C    basis set group =>   1
Atom  44C    basis set group =>   1
Atom  45C    basis set group =>   1
Atom  46C    basis set group =>   1
Atom  47C    basis set group =>   1
Atom  48C    basis set group =>   1
Atom  49C    basis set group =>   1
Atom  50C    basis set group =>   1
Atom  51C    basis set group =>   1
Atom  52H    basis set group =>   3
Atom  53H    basis set group =>   3
Atom  54H    basis set group =>   3
Atom  55H    basis set group =>   3
Atom  56H    basis set group =>   3
Atom  57H    basis set group =>   3
Atom  58H    basis set group =>   3
Atom  59H    basis set group =>   3
Atom  60H    basis set group =>   3
Atom  61H    basis set group =>   3
Atom  62H    basis set group =>   3
Atom  63H    basis set group =>   3
Atom  64H    basis set group =>   3
Atom  65H    basis set group =>   3
Atom  66H    basis set group =>   3
Atom  67H    basis set group =>   3
Atom  68H    basis set group =>   3
Atom  69H    basis set group =>   3
Atom  70H    basis set group =>   3
Atom  71H    basis set group =>   3
Atom  72H    basis set group =>   3
Atom  73H    basis set group =>   3
Atom  74H    basis set group =>   3
Atom  75H    basis set group =>   3
Atom  76H    basis set group =>   3
Atom  77H    basis set group =>   3
Atom  78H    basis set group =>   3
Atom  79H    basis set group =>   3
Atom  80H    basis set group =>   3
Atom  81H    basis set group =>   3
Atom  82H    basis set group =>   3
Atom  83H    basis set group =>   3
Atom  84H    basis set group =>   3
Atom  85H    basis set group =>   3
Atom  86H    basis set group =>   3
Atom  87H    basis set group =>   3
Atom  88H    basis set group =>   3
Atom  89H    basis set group =>   3


           ************************************************************
           *        Program running with 8 parallel MPI-processes     *
           *              working on a common directory               *
           ************************************************************
------------------------------------------------------------------------------
                           ORCA GTO INTEGRAL CALCULATION
------------------------------------------------------------------------------
------------------------------------------------------------------------------
                   ___                                                        
                  /   \      - P O W E R E D   B Y -                         
                 /     \                                                     
                 |  |  |   _    _      __       _____    __    __             
                 |  |  |  | |  | |    /  \     |  _  \  |  |  /  |          
                  \  \/   | |  | |   /    \    | | | |  |  | /  /          
                 / \  \   | |__| |  /  /\  \   | |_| |  |  |/  /          
                |  |  |   |  __  | /  /__\  \  |    /   |      \           
                |  |  |   | |  | | |   __   |  |    \   |  |\   \          
                \     /   | |  | | |  |  |  |  | |\  \  |  | \   \       
                 \___/    |_|  |_| |__|  |__|  |_| \__\ |__|  \__/        
                                                                              
                      - O R C A' S   B I G   F R I E N D -                    
                                      &                                       
                       - I N T E G R A L  F E E D E R -                       
                                                                              
 v1 FN, 2020, v2 2021                                                         
------------------------------------------------------------------------------


Reading SHARK input file /scratch/chu_02/allen/tmpyp4_amber_gaff2/conf1/conf1/Conf330.orca.SHARKINP.tmp ... ok
----------------------
SHARK INTEGRAL PACKAGE
----------------------

Number of atoms                             ...     90
Number of basis functions                   ...   1230
Number of shells                            ...    738
Maximum angular momentum                    ...      2
Integral batch strategy                     ... SHARK/LIBINT Hybrid
RI-J (if used) integral strategy            ... SPLIT-RIJ (Revised 2003 algorithm where possible)
Printlevel                                  ...      1
Contraction scheme used                     ... PARTIAL GENERAL contraction
Coulomb Range Separation                    ... NOT USED
Exchange Range Separation                   ... NOT USED
Finite Nucleus Model                        ... NOT USED
Auxiliary Coulomb fitting basis             ... NOT available
Auxiliary J/K fitting basis                 ... NOT available
Auxiliary Correlation fitting basis         ... NOT available
Auxiliary 'external' fitting basis          ... NOT available
Integral threshold                          ...     2.500000e-11
Primitive cut-off                           ...     2.500000e-12
Primitive pair pre-selection threshold      ...     2.500000e-12

Calculating pre-screening integrals         ... done (  0.1 sec) Dimension = 738
Calculating pre-screening integrals (ORCA)  ... done (  0.4 sec) Dimension = 426
Organizing shell pair data                  ... done (  0.6 sec)
Shell pair information
Total number of shell pairs                 ...    272691
Shell pairs after pre-screening             ...     71660
Total number of primitive shell pairs       ...    422091
Primitive shell pairs kept                  ...     92508
          la=0 lb=0:  29413 shell pairs
          la=1 lb=0:  26002 shell pairs
          la=1 lb=1:   4707 shell pairs
          la=2 lb=0:   7887 shell pairs
          la=2 lb=1:   3122 shell pairs
          la=2 lb=2:    529 shell pairs

Calculating one electron integrals          ... done (  0.3 sec)
Calculating Nuclear repulsion               ... done (  0.0 sec) ENN=   6231.087201859801 Eh

SHARK setup successfully completed in   1.9 seconds

Maximum memory used throughout the entire GTOINT-calculation: 99.0 MB


           ************************************************************
           *        Program running with 8 parallel MPI-processes     *
           *              working on a common directory               *
           ************************************************************
-------------------------------------------------------------------------------
                                 ORCA SCF
-------------------------------------------------------------------------------

------------
SCF SETTINGS
------------
Hamiltonian:
 Ab initio Hamiltonian  Method          .... Hartree-Fock(GTOs)


General Settings:
 Integral files         IntName         .... /scratch/chu_02/allen/tmpyp4_amber_gaff2/conf1/conf1/Conf330.orca
 Hartree-Fock type      HFTyp           .... RHF
 Total Charge           Charge          ....    0
 Multiplicity           Mult            ....    1
 Number of Electrons    NEL             ....  358
 Basis Dimension        Dim             ....  918
 Nuclear Repulsion      ENuc            ....   6231.0872018598 Eh

Convergence Acceleration:
 DIIS                   CNVDIIS         .... on
   Start iteration      DIISMaxIt       ....    12
   Startup error        DIISStart       ....  0.200000
   # of expansion vecs  DIISMaxEq       ....     5
   Bias factor          DIISBfac        ....   1.050
   Max. coefficient     DIISMaxC        ....  10.000
 Trust-Rad. Augm. Hess. CNVTRAH         .... auto
   Auto Start mean grad. ratio tolernc. ....  1.125000
   Auto Start start iteration           ....    20
   Auto Start num. interpolation iter.  ....    10
   Max. Number of Micro iterations      ....    16
   Max. Number of Macro iterations      .... Maxiter - #DIIS iter
   Number of Davidson start vectors     ....     2
   Converg. threshold I  (grad. norm)   ....   1.000e-05
   Converg. threshold II (energy diff.) ....   1.000e-08
   Grad. Scal. Fac. for Micro threshold ....   0.100
   Minimum threshold for Micro iter.    ....   0.010
   NR start threshold (gradient norm)   ....   0.001
   Initial trust radius                 ....   0.400
   Minimum AH scaling param. (alpha)    ....   1.000
   Maximum AH scaling param. (alpha)    .... 1000.000
   Orbital update algorithm             .... Taylor
   White noise on init. David. guess    .... on
   Maximum white noise                  ....   0.010
   Quad. conv. algorithm                .... NR
 SOSCF                  CNVSOSCF        .... on
   Start iteration      SOSCFMaxIt      ....   150
   Startup grad/error   SOSCFStart      ....  0.003300
 Level Shifting         CNVShift        .... on
   Level shift para.    LevelShift      ....    0.2500
   Turn off err/grad.   ShiftErr        ....    0.0010
 Zerner damping         CNVZerner       .... off
 Static damping         CNVDamp         .... on
   Fraction old density DampFac         ....    0.7000
   Max. Damping (<1)    DampMax         ....    0.9800
   Min. Damping (>=0)   DampMin         ....    0.0000
   Turn off err/grad.   DampErr         ....    0.1000
 Fernandez-Rico         CNVRico         .... off

SCF Procedure:
 Maximum # iterations   MaxIter         ....   125
 SCF integral mode      SCFMode         .... Direct
   Integral package                     .... SHARK and LIBINT hybrid scheme
 Reset frequency        DirectResetFreq ....    20
 Integral Threshold     Thresh          ....  2.500e-11 Eh
 Primitive CutOff       TCut            ....  2.500e-12 Eh

Convergence Tolerance:
 Convergence Check Mode ConvCheckMode   .... Total+1el-Energy
 Convergence forced     ConvForced      .... 1
 Energy Change          TolE            ....  1.000e-08 Eh
 1-El. energy change                    ....  1.000e-05 Eh
 Orbital Gradient       TolG            ....  1.000e-05
 Orbital Rotation angle TolX            ....  1.000e-05
 DIIS Error             TolErr          ....  5.000e-07


Diagonalization of the overlap matrix:
Smallest eigenvalue                        ... 2.197e-04
Time for diagonalization                   ...    0.225 sec
Threshold for overlap eigenvalues          ... 1.000e-08
Number of eigenvalues below threshold      ... 0
Time for construction of square roots      ...    0.133 sec
Total time needed                          ...    0.363 sec

Time for model grid setup =    1.425 sec

------------------------------
INITIAL GUESS: MODEL POTENTIAL
------------------------------
Loading Hartree-Fock densities                     ... done
Calculating cut-offs                               ... done
Initializing the effective Hamiltonian             ... done
Setting up the integral package (SHARK)            ... done
Starting the Coulomb interaction                   ... done (   1.7 sec)
Reading the grid                                   ... done
Mapping shells                                     ... done
Starting the XC term evaluation                    ... done (   0.3 sec)
Transforming the Hamiltonian                       ... done (   0.1 sec)
Diagonalizing the Hamiltonian                      ... done (   0.2 sec)
Back transforming the eigenvectors                 ... done (   0.0 sec)
Now organizing SCF variables                       ... done
                      ------------------
                      INITIAL GUESS DONE (   3.9 sec)
                      ------------------
--------------
SCF ITERATIONS
--------------
ITER       Energy         Delta-E        Max-DP      RMS-DP      [F,P]     Damp
               ***  Starting incremental Fock matrix formation  ***
  0  -2121.6924010173   0.000000000000 0.07879173  0.00121653  0.2319789 0.7000
  1  -2122.3454746013  -0.653073584053 0.05918167  0.00098898  0.1437553 0.7000
                               ***Turning on DIIS***
  2  -2122.7517448776  -0.406270276275 0.13754850  0.00224704  0.0802572 0.0000
  3  -2117.9618173397   4.789927537966 0.03200260  0.00066784  0.0438200 0.0000
  4  -2123.4309818025  -5.469164462849 0.01037327  0.00022452  0.0081582 0.0000
  5  -2123.5849869646  -0.154005162129 0.00523870  0.00013194  0.0049740 0.0000
  6  -2123.5686635309   0.016323433769 0.00363664  0.00008482  0.0020194 0.0000
  7  -2123.6656528515  -0.096989320607 0.00309176  0.00006682  0.0015837 0.0000
  8  -2123.6760487928  -0.010395941305 0.00326830  0.00006316  0.0014736 0.0000
  9  -2123.6459870311   0.030061761623 0.00260749  0.00004429  0.0011790 0.0000
 10  -2123.6552860775  -0.009299046375 0.00525029  0.00009243  0.0009126 0.0000
                      *** Initiating the SOSCF procedure ***
                           *** Shutting down DIIS ***
                      *** Re-Reading the Fockian *** 
                      *** Removing any level shift *** 
ITER      Energy       Delta-E        Grad      Rot      Max-DP    RMS-DP
 11  -2123.54648781   0.1087982693  0.000183  0.000183  0.000242  0.000005
               *** Restarting incremental Fock matrix formation ***
 12  -2123.61257311  -0.0660852970  0.000848  0.006141  0.001388  0.000034
 13  -2123.61267662  -0.0001035167  0.001057  0.031216  0.006532  0.000135
 14  -2123.61285607  -0.0001794470  0.000341  0.001917  0.000642  0.000012
 15  -2123.61287161  -0.0000155455  0.000163  0.002511  0.000709  0.000017
 16  -2123.61288059  -0.0000089724  0.000158  0.002771  0.000458  0.000010
 17  -2123.61288341  -0.0000028251  0.000126  0.001874  0.000307  0.000007
 18  -2123.61288490  -0.0000014852  0.000068  0.000691  0.000279  0.000004
 19  -2123.61288556  -0.0000006604  0.000042  0.000582  0.000144  0.000003
 20  -2123.61288579  -0.0000002340  0.000021  0.000365  0.000093  0.000002
 21  -2123.61288590  -0.0000001108  0.000021  0.000416  0.000106  0.000002
 22  -2123.61288598  -0.0000000797  0.000016  0.000393  0.000084  0.000001
 23  -2123.61288603  -0.0000000501  0.000008  0.000280  0.000057  0.000001
 24  -2123.61288606  -0.0000000289  0.000005  0.000223  0.000039  0.000001
 25  -2123.61288608  -0.0000000185  0.000006  0.000160  0.000025  0.000001
 26  -2123.61288609  -0.0000000113  0.000004  0.000168  0.000026  0.000001
 27  -2123.61288610  -0.0000000083  0.000003  0.000142  0.000022  0.000000
                  ***Gradient check signals convergence***
              ***Rediagonalizing the Fockian in SOSCF/NRSCF***

               *****************************************************
               *                     SUCCESS                       *
               *           SCF CONVERGED AFTER  28 CYCLES          *
               *****************************************************


----------------
TOTAL SCF ENERGY
----------------

Total Energy       :        -2123.61288610 Eh          -57786.44444 eV

Components:
Nuclear Repulsion  :         6231.08720186 Eh          169556.50285 eV
Electronic Energy  :        -8354.70008796 Eh         -227342.94729 eV
One Electron Energy:       -15302.96097640 Eh         -416414.73828 eV
Two Electron Energy:         6948.26088843 Eh          189071.79100 eV

Virial components:
Potential Energy   :        -4245.78009352 Eh         -115533.54996 eV
Kinetic Energy     :         2122.16720742 Eh           57747.10552 eV
Virial Ratio       :            2.00068123


---------------
SCF CONVERGENCE
---------------

  Last Energy change         ...   -3.4761e-09  Tolerance :   1.0000e-08
  Last MAX-Density change    ...    1.3150e-05  Tolerance :   1.0000e-07
  Last RMS-Density change    ...    3.0123e-07  Tolerance :   5.0000e-09
  Last Orbital Gradient      ...    2.0347e-06  Tolerance :   1.0000e-05
  Last Orbital Rotation      ...    9.1865e-05  Tolerance :   1.0000e-05

             **** THE GBW FILE WAS UPDATED (/scratch/chu_02/allen/tmpyp4_amber_gaff2/conf1/conf1/Conf330.orca.gbw) ****
             **** DENSITY /scratch/chu_02/allen/tmpyp4_amber_gaff2/conf1/conf1/Conf330.orca.scfp WAS UPDATED ****
             **** ENERGY FILE WAS UPDATED (/scratch/chu_02/allen/tmpyp4_amber_gaff2/conf1/conf1/Conf330.orca.en.tmp) ****
             **** THE GBW FILE WAS UPDATED (/scratch/chu_02/allen/tmpyp4_amber_gaff2/conf1/conf1/Conf330.orca.gbw) ****
             **** DENSITY /scratch/chu_02/allen/tmpyp4_amber_gaff2/conf1/conf1/Conf330.orca.scfp WAS UPDATED ****
----------------
ORBITAL ENERGIES
----------------

  NO   OCC          E(Eh)            E(eV) 
   0   2.0000     -15.672979      -426.4834 
   1   2.0000     -15.637174      -425.5091 
   2   2.0000     -15.628941      -425.2851 
   3   2.0000     -15.590179      -424.2303 
   4   2.0000     -15.525202      -422.4622 
   5   2.0000     -15.515781      -422.2059 
   6   2.0000     -15.451865      -420.4666 
   7   2.0000     -15.442764      -420.2190 
   8   2.0000     -11.324202      -308.1472 
   9   2.0000     -11.323727      -308.1343 
  10   2.0000     -11.322161      -308.0917 
  11   2.0000     -11.301333      -307.5249 
  12   2.0000     -11.296496      -307.3933 
  13   2.0000     -11.295312      -307.3611 
  14   2.0000     -11.289856      -307.2126 
  15   2.0000     -11.288343      -307.1714 
  16   2.0000     -11.284377      -307.0635 
  17   2.0000     -11.275680      -306.8268 
  18   2.0000     -11.272828      -306.7492 
  19   2.0000     -11.258631      -306.3629 
  20   2.0000     -11.257685      -306.3372 
  21   2.0000     -11.256476      -306.3043 
  22   2.0000     -11.253345      -306.2191 
  23   2.0000     -11.240845      -305.8789 
  24   2.0000     -11.233754      -305.6860 
  25   2.0000     -11.233619      -305.6823 
  26   2.0000     -11.233044      -305.6667 
  27   2.0000     -11.227554      -305.5173 
  28   2.0000     -11.227243      -305.5088 
  29   2.0000     -11.210692      -305.0584 
  30   2.0000     -11.209234      -305.0188 
  31   2.0000     -11.199805      -304.7622 
  32   2.0000     -11.192756      -304.5704 
  33   2.0000     -11.192184      -304.5548 
  34   2.0000     -11.189405      -304.4792 
  35   2.0000     -11.188854      -304.4642 
  36   2.0000     -11.188613      -304.4576 
  37   2.0000     -11.184655      -304.3499 
  38   2.0000     -11.183608      -304.3214 
  39   2.0000     -11.174483      -304.0731 
  40   2.0000     -11.173174      -304.0375 
  41   2.0000     -11.168677      -303.9152 
  42   2.0000     -11.168561      -303.9120 
  43   2.0000     -11.161843      -303.7292 
  44   2.0000     -11.160203      -303.6845 
  45   2.0000     -11.158288      -303.6325 
  46   2.0000     -11.157990      -303.6243 
  47   2.0000     -11.152976      -303.4879 
  48   2.0000     -11.147295      -303.3333 
  49   2.0000     -11.139921      -303.1327 
  50   2.0000     -11.133703      -302.9634 
  51   2.0000     -11.125139      -302.7304 
  52   2.0000      -1.354588       -36.8602 
  53   2.0000      -1.324005       -36.0280 
  54   2.0000      -1.317096       -35.8400 
  55   2.0000      -1.284458       -34.9519 
  56   2.0000      -1.225912       -33.3587 
  57   2.0000      -1.210136       -32.9295 
  58   2.0000      -1.170620       -31.8542 
  59   2.0000      -1.153168       -31.3793 
  60   2.0000      -1.138776       -30.9877 
  61   2.0000      -1.112558       -30.2743 
  62   2.0000      -1.106855       -30.1191 
  63   2.0000      -1.080598       -29.4046 
  64   2.0000      -1.076710       -29.2988 
  65   2.0000      -1.048093       -28.5201 
  66   2.0000      -1.041862       -28.3505 
  67   2.0000      -1.037998       -28.2454 
  68   2.0000      -1.015064       -27.6213 
  69   2.0000      -1.013124       -27.5685 
  70   2.0000      -1.009371       -27.4664 
  71   2.0000      -0.993290       -27.0288 
  72   2.0000      -0.986815       -26.8526 
  73   2.0000      -0.979914       -26.6648 
  74   2.0000      -0.971891       -26.4465 
  75   2.0000      -0.960152       -26.1271 
  76   2.0000      -0.952623       -25.9222 
  77   2.0000      -0.946402       -25.7529 
  78   2.0000      -0.935295       -25.4507 
  79   2.0000      -0.919306       -25.0156 
  80   2.0000      -0.905772       -24.6473 
  81   2.0000      -0.893555       -24.3149 
  82   2.0000      -0.875517       -23.8240 
  83   2.0000      -0.872322       -23.7371 
  84   2.0000      -0.867611       -23.6089 
  85   2.0000      -0.856069       -23.2948 
  86   2.0000      -0.839597       -22.8466 
  87   2.0000      -0.836901       -22.7732 
  88   2.0000      -0.823475       -22.4079 
  89   2.0000      -0.798027       -21.7154 
  90   2.0000      -0.791779       -21.5454 
  91   2.0000      -0.749855       -20.4046 
  92   2.0000      -0.740802       -20.1582 
  93   2.0000      -0.733262       -19.9531 
  94   2.0000      -0.724360       -19.7108 
  95   2.0000      -0.720862       -19.6156 
  96   2.0000      -0.715430       -19.4678 
  97   2.0000      -0.710001       -19.3201 
  98   2.0000      -0.705467       -19.1967 
  99   2.0000      -0.696708       -18.9584 
 100   2.0000      -0.696149       -18.9432 
 101   2.0000      -0.683749       -18.6058 
 102   2.0000      -0.679964       -18.5028 
 103   2.0000      -0.679521       -18.4907 
 104   2.0000      -0.676283       -18.4026 
 105   2.0000      -0.671618       -18.2757 
 106   2.0000      -0.668488       -18.1905 
 107   2.0000      -0.661662       -18.0047 
 108   2.0000      -0.655386       -17.8340 
 109   2.0000      -0.653966       -17.7953 
 110   2.0000      -0.649211       -17.6659 
 111   2.0000      -0.642974       -17.4962 
 112   2.0000      -0.641258       -17.4495 
 113   2.0000      -0.640606       -17.4318 
 114   2.0000      -0.636886       -17.3306 
 115   2.0000      -0.626236       -17.0408 
 116   2.0000      -0.624024       -16.9806 
 117   2.0000      -0.617276       -16.7969 
 118   2.0000      -0.614860       -16.7312 
 119   2.0000      -0.613144       -16.6845 
 120   2.0000      -0.609246       -16.5784 
 121   2.0000      -0.607037       -16.5183 
 122   2.0000      -0.599437       -16.3115 
 123   2.0000      -0.586267       -15.9531 
 124   2.0000      -0.583235       -15.8706 
 125   2.0000      -0.580884       -15.8067 
 126   2.0000      -0.578702       -15.7473 
 127   2.0000      -0.577250       -15.7078 
 128   2.0000      -0.566706       -15.4209 
 129   2.0000      -0.558816       -15.2062 
 130   2.0000      -0.550639       -14.9836 
 131   2.0000      -0.547786       -14.9060 
 132   2.0000      -0.543574       -14.7914 
 133   2.0000      -0.540482       -14.7073 
 134   2.0000      -0.539519       -14.6811 
 135   2.0000      -0.534316       -14.5395 
 136   2.0000      -0.526691       -14.3320 
 137   2.0000      -0.523017       -14.2320 
 138   2.0000      -0.518256       -14.1025 
 139   2.0000      -0.513271       -13.9668 
 140   2.0000      -0.512236       -13.9387 
 141   2.0000      -0.510365       -13.8877 
 142   2.0000      -0.510201       -13.8833 
 143   2.0000      -0.503491       -13.7007 
 144   2.0000      -0.500633       -13.6229 
 145   2.0000      -0.496324       -13.5057 
 146   2.0000      -0.494053       -13.4439 
 147   2.0000      -0.483782       -13.1644 
 148   2.0000      -0.479404       -13.0452 
 149   2.0000      -0.466833       -12.7032 
 150   2.0000      -0.465827       -12.6758 
 151   2.0000      -0.457300       -12.4438 
 152   2.0000      -0.449888       -12.2421 
 153   2.0000      -0.446233       -12.1426 
 154   2.0000      -0.442189       -12.0326 
 155   2.0000      -0.434446       -11.8219 
 156   2.0000      -0.429263       -11.6808 
 157   2.0000      -0.422240       -11.4897 
 158   2.0000      -0.405215       -11.0265 
 159   2.0000      -0.386870       -10.5273 
 160   2.0000      -0.383174       -10.4267 
 161   2.0000      -0.378391       -10.2965 
 162   2.0000      -0.371138       -10.0992 
 163   2.0000      -0.358898        -9.7661 
 164   2.0000      -0.353797        -9.6273 
 165   2.0000      -0.339698        -9.2436 
 166   2.0000      -0.337727        -9.1900 
 167   2.0000      -0.327263        -8.9053 
 168   2.0000      -0.324790        -8.8380 
 169   2.0000      -0.304853        -8.2955 
 170   2.0000      -0.299498        -8.1497 
 171   2.0000      -0.285798        -7.7770 
 172   2.0000      -0.281930        -7.6717 
 173   2.0000      -0.261810        -7.1242 
 174   2.0000      -0.243648        -6.6300 
 175   2.0000      -0.189969        -5.1693 
 176   2.0000      -0.180337        -4.9072 
 177   2.0000      -0.075780        -2.0621 
 178   2.0000      -0.058389        -1.5888 
 179   0.0000       0.028410         0.7731 
 180   0.0000       0.066251         1.8028 
 181   0.0000       0.091428         2.4879 
 182   0.0000       0.109606         2.9825 
 183   0.0000       0.110823         3.0156 
 184   0.0000       0.134979         3.6730 
 185   0.0000       0.141168         3.8414 
 186   0.0000       0.144471         3.9313 
 187   0.0000       0.163266         4.4427 
 188   0.0000       0.164438         4.4746 
 189   0.0000       0.167279         4.5519 
 190   0.0000       0.170016         4.6264 
 191   0.0000       0.183933         5.0051 
 192   0.0000       0.186994         5.0884 
 193   0.0000       0.187357         5.0982 
 194   0.0000       0.203051         5.5253 
 195   0.0000       0.206394         5.6163 
 196   0.0000       0.207276         5.6403 
 197   0.0000       0.210352         5.7240 
 198   0.0000       0.219820         5.9816 
 199   0.0000       0.226210         6.1555 
 200   0.0000       0.232614         6.3297 
 201   0.0000       0.236635         6.4392 
 202   0.0000       0.238237         6.4827 
 203   0.0000       0.241093         6.5605 
 204   0.0000       0.248139         6.7522 
 205   0.0000       0.255279         6.9465 
 206   0.0000       0.257475         7.0062 
 207   0.0000       0.258809         7.0426 
 208   0.0000       0.260603         7.0914 
 209   0.0000       0.261955         7.1282 
 210   0.0000       0.262359         7.1391 
 211   0.0000       0.268488         7.3059 
 212   0.0000       0.269955         7.3459 
 213   0.0000       0.271812         7.3964 
 214   0.0000       0.272845         7.4245 
 215   0.0000       0.277213         7.5434 
 216   0.0000       0.279147         7.5960 
 217   0.0000       0.280436         7.6310 
 218   0.0000       0.285764         7.7760 
 219   0.0000       0.288281         7.8445 
 220   0.0000       0.289393         7.8748 
 221   0.0000       0.292711         7.9651 
 222   0.0000       0.294465         8.0128 
 223   0.0000       0.295494         8.0408 
 224   0.0000       0.298251         8.1158 
 225   0.0000       0.299604         8.1526 
 226   0.0000       0.305984         8.3263 
 227   0.0000       0.308434         8.3929 
 228   0.0000       0.309876         8.4322 
 229   0.0000       0.323617         8.8061 
 230   0.0000       0.326617         8.8877 
 231   0.0000       0.331432         9.0187 
 232   0.0000       0.332710         9.0535 
 233   0.0000       0.338012         9.1978 
 234   0.0000       0.350633         9.5412 
 235   0.0000       0.353419         9.6170 
 236   0.0000       0.365599         9.9484 
 237   0.0000       0.377699        10.2777 
 238   0.0000       0.393477        10.7071 
 239   0.0000       0.396462        10.7883 
 240   0.0000       0.400723        10.9042 
 241   0.0000       0.410837        11.1794 
 242   0.0000       0.415397        11.3035 
 243   0.0000       0.419525        11.4159 
 244   0.0000       0.427485        11.6325 
 245   0.0000       0.434576        11.8254 
 246   0.0000       0.437286        11.8992 
 247   0.0000       0.438803        11.9404 
 248   0.0000       0.443193        12.0599 
 249   0.0000       0.449212        12.2237 
 250   0.0000       0.455694        12.4001 
 251   0.0000       0.459578        12.5058 
 252   0.0000       0.466291        12.6884 
 253   0.0000       0.469659        12.7801 
 254   0.0000       0.471897        12.8410 
 255   0.0000       0.474263        12.9053 
 256   0.0000       0.477999        13.0070 
 257   0.0000       0.481784        13.1100 
 258   0.0000       0.486205        13.2303 
 259   0.0000       0.498136        13.5550 
 260   0.0000       0.502825        13.6826 
 261   0.0000       0.504130        13.7181 
 262   0.0000       0.507353        13.8058 
 263   0.0000       0.509565        13.8660 
 264   0.0000       0.514347        13.9961 
 265   0.0000       0.517198        14.0737 
 266   0.0000       0.524339        14.2680 
 267   0.0000       0.528600        14.3839 
 268   0.0000       0.532385        14.4869 
 269   0.0000       0.537832        14.6351 
 270   0.0000       0.540074        14.6962 
 271   0.0000       0.546831        14.8800 
 272   0.0000       0.553344        15.0572 
 273   0.0000       0.558436        15.1958 
 274   0.0000       0.561858        15.2889 
 275   0.0000       0.564990        15.3742 
 276   0.0000       0.569612        15.4999 
 277   0.0000       0.571950        15.5635 
 278   0.0000       0.577159        15.7053 
 279   0.0000       0.586807        15.9678 
 280   0.0000       0.589344        16.0369 
 281   0.0000       0.589951        16.0534 
 282   0.0000       0.594195        16.1689 
 283   0.0000       0.596667        16.2361 
 284   0.0000       0.597923        16.2703 
 285   0.0000       0.600100        16.3296 
 286   0.0000       0.608335        16.5536 
 287   0.0000       0.612438        16.6653 
 288   0.0000       0.613706        16.6998 
 289   0.0000       0.626006        17.0345 
 290   0.0000       0.627035        17.0625 
 291   0.0000       0.628565        17.1041 
 292   0.0000       0.635114        17.2823 
 293   0.0000       0.635903        17.3038 
 294   0.0000       0.646184        17.5836 
 295   0.0000       0.649376        17.6704 
 296   0.0000       0.653678        17.7875 
 297   0.0000       0.656504        17.8644 
 298   0.0000       0.664014        18.0688 
 299   0.0000       0.668196        18.1825 
 300   0.0000       0.668478        18.1902 
 301   0.0000       0.674295        18.3485 
 302   0.0000       0.676332        18.4039 
 303   0.0000       0.678327        18.4582 
 304   0.0000       0.681976        18.5575 
 305   0.0000       0.686653        18.6848 
 306   0.0000       0.689109        18.7516 
 307   0.0000       0.691107        18.8060 
 308   0.0000       0.695697        18.9309 
 309   0.0000       0.697858        18.9897 
 310   0.0000       0.701974        19.1017 
 311   0.0000       0.704362        19.1667 
 312   0.0000       0.708699        19.2847 
 313   0.0000       0.709179        19.2977 
 314   0.0000       0.711333        19.3564 
 315   0.0000       0.714124        19.4323 
 316   0.0000       0.716953        19.5093 
 317   0.0000       0.718779        19.5590 
 318   0.0000       0.722436        19.6585 
 319   0.0000       0.722618        19.6634 
 320   0.0000       0.726845        19.7785 
 321   0.0000       0.730317        19.8729 
 322   0.0000       0.732170        19.9234 
 323   0.0000       0.734637        19.9905 
 324   0.0000       0.736967        20.0539 
 325   0.0000       0.741818        20.1859 
 326   0.0000       0.745111        20.2755 
 327   0.0000       0.746073        20.3017 
 328   0.0000       0.749994        20.4084 
 329   0.0000       0.751451        20.4480 
 330   0.0000       0.752941        20.4886 
 331   0.0000       0.756367        20.5818 
 332   0.0000       0.761257        20.7148 
 333   0.0000       0.761481        20.7210 
 334   0.0000       0.769121        20.9288 
 335   0.0000       0.772651        21.0249 
 336   0.0000       0.774048        21.0629 
 337   0.0000       0.782873        21.3031 
 338   0.0000       0.785396        21.3717 
 339   0.0000       0.786727        21.4079 
 340   0.0000       0.789593        21.4859 
 341   0.0000       0.795625        21.6501 
 342   0.0000       0.796411        21.6714 
 343   0.0000       0.802428        21.8352 
 344   0.0000       0.804143        21.8818 
 345   0.0000       0.807181        21.9645 
 346   0.0000       0.807706        21.9788 
 347   0.0000       0.811996        22.0955 
 348   0.0000       0.816145        22.2084 
 349   0.0000       0.818591        22.2750 
 350   0.0000       0.818937        22.2844 
 351   0.0000       0.819630        22.3033 
 352   0.0000       0.823023        22.3956 
 353   0.0000       0.825703        22.4685 
 354   0.0000       0.829285        22.5660 
 355   0.0000       0.830511        22.5994 
 356   0.0000       0.832821        22.6622 
 357   0.0000       0.835712        22.7409 
 358   0.0000       0.836461        22.7613 
 359   0.0000       0.839491        22.8437 
 360   0.0000       0.841684        22.9034 
 361   0.0000       0.843156        22.9434 
 362   0.0000       0.844180        22.9713 
 363   0.0000       0.846705        23.0400 
 364   0.0000       0.848792        23.0968 
 365   0.0000       0.854198        23.2439 
 366   0.0000       0.857203        23.3257 
 367   0.0000       0.860921        23.4269 
 368   0.0000       0.864292        23.5186 
 369   0.0000       0.865623        23.5548 
 370   0.0000       0.870855        23.6972 
 371   0.0000       0.871634        23.7184 
 372   0.0000       0.873699        23.7746 
 373   0.0000       0.877744        23.8846 
 374   0.0000       0.880475        23.9590 
 375   0.0000       0.881769        23.9942 
 376   0.0000       0.885893        24.1064 
 377   0.0000       0.887860        24.1599 
 378   0.0000       0.893057        24.3013 
 379   0.0000       0.893452        24.3121 
 380   0.0000       0.896407        24.3925 
 381   0.0000       0.899261        24.4701 
 382   0.0000       0.901170        24.5221 
 383   0.0000       0.902669        24.5629 
 384   0.0000       0.903724        24.5916 
 385   0.0000       0.905575        24.6419 
 386   0.0000       0.906239        24.6600 
 387   0.0000       0.909122        24.7385 
 388   0.0000       0.911484        24.8028 
 389   0.0000       0.915278        24.9060 
 390   0.0000       0.921442        25.0737 
 391   0.0000       0.922081        25.0911 
 392   0.0000       0.924796        25.1650 
 393   0.0000       0.927877        25.2488 
 394   0.0000       0.928898        25.2766 
 395   0.0000       0.930004        25.3067 
 396   0.0000       0.932388        25.3716 
 397   0.0000       0.938255        25.5312 
 398   0.0000       0.941616        25.6227 
 399   0.0000       0.942409        25.6443 
 400   0.0000       0.944375        25.6978 
 401   0.0000       0.950450        25.8631 
 402   0.0000       0.952966        25.9315 
 403   0.0000       0.953845        25.9554 
 404   0.0000       0.960809        26.1449 
 405   0.0000       0.963922        26.2296 
 406   0.0000       0.965671        26.2772 
 407   0.0000       0.968541        26.3553 
 408   0.0000       0.970024        26.3957 
 409   0.0000       0.977095        26.5881 
 410   0.0000       0.980913        26.6920 
 411   0.0000       0.984728        26.7958 
 412   0.0000       0.990572        26.9548 
 413   0.0000       0.996670        27.1208 
 414   0.0000       0.998487        27.1702 
 415   0.0000       1.005729        27.3673 
 416   0.0000       1.006439        27.3866 
 417   0.0000       1.009838        27.4791 
 418   0.0000       1.013572        27.5807 
 419   0.0000       1.021581        27.7986 
 420   0.0000       1.027197        27.9514 
 421   0.0000       1.029310        28.0089 
 422   0.0000       1.041556        28.3422 
 423   0.0000       1.043931        28.4068 
 424   0.0000       1.049273        28.5522 
 425   0.0000       1.057180        28.7673 
 426   0.0000       1.061467        28.8840 
 427   0.0000       1.064484        28.9661 
 428   0.0000       1.072061        29.1723 
 429   0.0000       1.076473        29.2923 
 430   0.0000       1.079895        29.3854 
 431   0.0000       1.083732        29.4899 
 432   0.0000       1.086814        29.5737 
 433   0.0000       1.091864        29.7111 
 434   0.0000       1.096733        29.8436 
 435   0.0000       1.104037        30.0424 
 436   0.0000       1.108185        30.1552 
 437   0.0000       1.112538        30.2737 
 438   0.0000       1.113693        30.3051 
 439   0.0000       1.117657        30.4130 
 440   0.0000       1.120748        30.4971 
 441   0.0000       1.122604        30.5476 
 442   0.0000       1.126357        30.6497 
 443   0.0000       1.129723        30.7413 
 444   0.0000       1.131161        30.7805 
 445   0.0000       1.134527        30.8721 
 446   0.0000       1.141881        31.0722 
 447   0.0000       1.147042        31.2126 
 448   0.0000       1.148604        31.2551 
 449   0.0000       1.150878        31.3170 
 450   0.0000       1.153028        31.3755 
 451   0.0000       1.154830        31.4245 
 452   0.0000       1.159998        31.5651 
 453   0.0000       1.164164        31.6785 
 454   0.0000       1.165460        31.7138 
 455   0.0000       1.169248        31.8168 
 456   0.0000       1.174865        31.9697 
 457   0.0000       1.177536        32.0424 
 458   0.0000       1.183098        32.1937 
 459   0.0000       1.186260        32.2798 
 460   0.0000       1.188169        32.3317 
 461   0.0000       1.197380        32.5824 
 462   0.0000       1.201844        32.7038 
 463   0.0000       1.204080        32.7647 
 464   0.0000       1.205454        32.8021 
 465   0.0000       1.207926        32.8693 
 466   0.0000       1.211533        32.9675 
 467   0.0000       1.216895        33.1134 
 468   0.0000       1.219439        33.1826 
 469   0.0000       1.226796        33.3828 
 470   0.0000       1.228632        33.4328 
 471   0.0000       1.233088        33.5540 
 472   0.0000       1.234357        33.5886 
 473   0.0000       1.236561        33.6485 
 474   0.0000       1.242276        33.8040 
 475   0.0000       1.243599        33.8400 
 476   0.0000       1.248497        33.9733 
 477   0.0000       1.251634        34.0587 
 478   0.0000       1.253835        34.1186 
 479   0.0000       1.254357        34.1328 
 480   0.0000       1.258051        34.2333 
 481   0.0000       1.261915        34.3384 
 482   0.0000       1.269274        34.5387 
 483   0.0000       1.272783        34.6342 
 484   0.0000       1.274701        34.6864 
 485   0.0000       1.277112        34.7520 
 486   0.0000       1.280519        34.8447 
 487   0.0000       1.284678        34.9579 
 488   0.0000       1.288761        35.0690 
 489   0.0000       1.292288        35.1649 
 490   0.0000       1.293661        35.2023 
 491   0.0000       1.296551        35.2810 
 492   0.0000       1.300617        35.3916 
 493   0.0000       1.303604        35.4729 
 494   0.0000       1.311060        35.6758 
 495   0.0000       1.313818        35.7508 
 496   0.0000       1.318607        35.8811 
 497   0.0000       1.321712        35.9656 
 498   0.0000       1.326160        36.0866 
 499   0.0000       1.328189        36.1419 
 500   0.0000       1.331191        36.2235 
 501   0.0000       1.335544        36.3420 
 502   0.0000       1.336663        36.3724 
 503   0.0000       1.344561        36.5874 
 504   0.0000       1.346910        36.6513 
 505   0.0000       1.349618        36.7250 
 506   0.0000       1.350718        36.7549 
 507   0.0000       1.356382        36.9090 
 508   0.0000       1.360208        37.0131 
[...]
 76 H s       :     0.886390  s :     0.886390
      pz      :     0.022093  p :     0.079753
      px      :     0.043571
      py      :     0.014089
 77 H s       :     0.885256  s :     0.885256
      pz      :     0.047928  p :     0.079229
      px      :     0.015021
      py      :     0.016280
 78 H s       :     0.885667  s :     0.885667
      pz      :     0.025854  p :     0.079184
      px      :     0.020470
      py      :     0.032861
 79 H s       :     0.910191  s :     0.910191
      pz      :     0.021851  p :     0.086402
      px      :     0.021678
      py      :     0.042873
 80 H s       :     0.865545  s :     0.865545
      pz      :     0.039307  p :     0.084727
      px      :     0.030237
      py      :     0.015183
 81 H s       :     0.887112  s :     0.887112
      pz      :     0.037798  p :     0.084082
      px      :     0.016192
      py      :     0.030092
 82 H s       :     0.916110  s :     0.916110
      pz      :     0.021997  p :     0.086735
      px      :     0.031596
      py      :     0.033142
 83 H s       :     0.873756  s :     0.873756
      pz      :     0.039230  p :     0.084036
      px      :     0.015282
      py      :     0.029524
 84 H s       :     0.887156  s :     0.887156
      pz      :     0.035745  p :     0.083480
      px      :     0.031685
      py      :     0.016050
 85 H s       :     0.893318  s :     0.893318
      pz      :     0.022482  p :     0.079763
      px      :     0.014086
      py      :     0.043195
 86 H s       :     0.891233  s :     0.891233
      pz      :     0.024720  p :     0.078810
      px      :     0.032964
      py      :     0.021126
 87 H s       :     0.890104  s :     0.890104
      pz      :     0.047993  p :     0.078716
      px      :     0.015588
      py      :     0.015135
 88 H s       :     0.911027  s :     0.911027
      pz      :     0.021726  p :     0.087034
      px      :     0.042860
      py      :     0.022448
 89 H s       :     0.871429  s :     0.871429
      pz      :     0.037939  p :     0.083831
      px      :     0.030470
      py      :     0.015422


                      *****************************
                      * MAYER POPULATION ANALYSIS *
                      *****************************

  NA   - Mulliken gross atomic population
  ZA   - Total nuclear charge
  QA   - Mulliken gross atomic charge
  VA   - Mayer's total valence
  BVA  - Mayer's bonded valence
  FA   - Mayer's free valence

  ATOM       NA         ZA         QA         VA         BVA        FA
  0 C      5.7883     6.0000     0.2117     3.8443     3.8443    -0.0000
  1 N      7.4555     7.0000    -0.4555     3.3295     3.3295     0.0000
  2 C      6.0674     6.0000    -0.0674     3.9211     3.9211    -0.0000
  3 N      7.3371     7.0000    -0.3371     3.4594     3.4594    -0.0000
  4 C      6.0549     6.0000    -0.0549     4.0286     4.0286    -0.0000
  5 N      7.5618     7.0000    -0.5618     3.0961     3.0961     0.0000
  6 C      6.1137     6.0000    -0.1137     3.9976     3.9976     0.0000
  7 N      7.3403     7.0000    -0.3403     3.4340     3.4340    -0.0000
  8 C      5.7946     6.0000     0.2054     3.8392     3.8392     0.0000
  9 N      7.5626     7.0000    -0.5626     3.0786     3.0786    -0.0000
 10 C      5.8811     6.0000     0.1189     3.9091     3.9091     0.0000
 11 N      7.4378     7.0000    -0.4378     3.3814     3.3814     0.0000
 12 C      6.0796     6.0000    -0.0796     3.8972     3.8972    -0.0000
 13 N      7.4310     7.0000    -0.4310     3.4209     3.4209     0.0000
 14 C      5.7784     6.0000     0.2216     3.7845     3.7845    -0.0000
 15 N      7.4415     7.0000    -0.4415     3.3696     3.3696     0.0000
 16 C      5.7697     6.0000     0.2303     3.7789     3.7789    -0.0000
 17 C      6.1240     6.0000    -0.1240     3.9988     3.9988    -0.0000
 18 C      6.1627     6.0000    -0.1627     3.7560     3.7560    -0.0000
 19 C      5.7928     6.0000     0.2072     3.8640     3.8640    -0.0000
 20 C      5.7860     6.0000     0.2140     3.8283     3.8283    -0.0000
 21 C      6.0925     6.0000    -0.0925     3.8921     3.8921    -0.0000
 22 C      6.0890     6.0000    -0.0890     3.9818     3.9818    -0.0000
 23 C      6.0410     6.0000    -0.0410     3.9922     3.9922     0.0000
 24 C      5.8037     6.0000     0.1963     3.8215     3.8215    -0.0000
 25 C      5.8858     6.0000     0.1142     3.8904     3.8904     0.0000
 26 C      6.0776     6.0000    -0.0776     3.9054     3.9054    -0.0000
 27 C      5.7878     6.0000     0.2122     3.8639     3.8639    -0.0000
 28 C      6.0601     6.0000    -0.0601     3.9888     3.9888     0.0000
 29 C      6.1810     6.0000    -0.1810     3.7453     3.7453    -0.0000
 30 C      5.7556     6.0000     0.2444     3.7978     3.7978    -0.0000
 31 C      5.7716     6.0000     0.2284     3.8191     3.8191     0.0000
 32 C      6.0615     6.0000    -0.0615     3.9231     3.9231    -0.0000
 33 C      6.0637     6.0000    -0.0637     3.9738     3.9738     0.0000
 34 C      6.0498     6.0000    -0.0498     3.9851     3.9851    -0.0000
 35 C      5.7764     6.0000     0.2236     3.8177     3.8177    -0.0000
 36 C      5.8909     6.0000     0.1091     3.8773     3.8773     0.0000
 37 C      6.0646     6.0000    -0.0646     3.9175     3.9175    -0.0000
 38 C      5.7669     6.0000     0.2331     3.8018     3.8018    -0.0000
 39 C      6.0592     6.0000    -0.0592     3.9842     3.9842     0.0000
 40 C      6.1816     6.0000    -0.1816     3.7289     3.7289     0.0000
 41 C      5.7761     6.0000     0.2239     3.8856     3.8856    -0.0000
 42 C      5.8026     6.0000     0.1974     3.8264     3.8264     0.0000
 43 C      6.0728     6.0000    -0.0728     3.9001     3.9001    -0.0000
 44 C      6.0911     6.0000    -0.0911     3.9858     3.9858     0.0000
 45 C      6.0605     6.0000    -0.0605     3.9922     3.9922     0.0000
 46 C      5.7908     6.0000     0.2092     3.8286     3.8286     0.0000
 47 C      5.8843     6.0000     0.1157     3.8939     3.8939     0.0000
 48 C      6.0684     6.0000    -0.0684     3.9087     3.9087    -0.0000
 49 C      5.7633     6.0000     0.2367     3.8938     3.8938    -0.0000
 50 C      6.0473     6.0000    -0.0473     3.9906     3.9906    -0.0000
 51 C      6.1938     6.0000    -0.1938     3.7367     3.7367     0.0000
 52 H      0.9597     1.0000     0.0403     0.9858     0.9858     0.0000
 53 H      1.0167     1.0000    -0.0167     0.9985     0.9985    -0.0000
 54 H      0.9469     1.0000     0.0531     1.0167     1.0167     0.0000
 55 H      0.9622     1.0000     0.0378     0.9869     0.9869    -0.0000
 56 H      0.9510     1.0000     0.0490     0.9697     0.9697     0.0000
 57 H      0.9513     1.0000     0.0487     0.9824     0.9824    -0.0000
 58 H      0.9528     1.0000     0.0472     0.9851     0.9851    -0.0000
 59 H      0.9986     1.0000     0.0014     1.0043     1.0043    -0.0000
 60 H      0.9493     1.0000     0.0507     1.0132     1.0132    -0.0000
 61 H      0.8290     1.0000     0.1710     1.0419     1.0419    -0.0000
 62 H      0.8246     1.0000     0.1754     1.0436     1.0436    -0.0000
 63 H      0.9436     1.0000     0.0564     0.9852     0.9852    -0.0000
 64 H      1.0040     1.0000    -0.0040     0.9972     0.9972    -0.0000
 65 H      0.9530     1.0000     0.0470     1.0098     1.0098     0.0000
 66 H      0.9434     1.0000     0.0566     0.9854     0.9854    -0.0000
 67 H      0.9367     1.0000     0.0633     0.9720     0.9720    -0.0000
 68 H      0.9422     1.0000     0.0578     0.9868     0.9868     0.0000
 69 H      0.9427     1.0000     0.0573     0.9829     0.9829    -0.0000
 70 H      1.0283     1.0000    -0.0283     0.9931     0.9931    -0.0000
 71 H      0.9538     1.0000     0.0462     1.0060     1.0060     0.0000
 72 H      0.9308     1.0000     0.0692     0.9837     0.9837    -0.0000
 73 H      1.0086     1.0000    -0.0086     1.0005     1.0005    -0.0000
 74 H      0.9415     1.0000     0.0585     1.0102     1.0102    -0.0000
 75 H      0.9315     1.0000     0.0685     0.9842     0.9842    -0.0000
 76 H      0.9269     1.0000     0.0731     0.9721     0.9721     0.0000
 77 H      0.9334     1.0000     0.0666     0.9854     0.9854     0.0000
 78 H      0.9343     1.0000     0.0657     0.9853     0.9853     0.0000
 79 H      1.0157     1.0000    -0.0157     0.9980     0.9980     0.0000
 80 H      0.9409     1.0000     0.0591     1.0071     1.0071     0.0000
 81 H      0.9463     1.0000     0.0537     0.9857     0.9857     0.0000
 82 H      1.0251     1.0000    -0.0251     0.9933     0.9933    -0.0000
 83 H      0.9589     1.0000     0.0411     1.0084     1.0084     0.0000
 84 H      0.9468     1.0000     0.0532     0.9853     0.9853    -0.0000
 85 H      0.9401     1.0000     0.0599     0.9715     0.9715     0.0000
 86 H      0.9449     1.0000     0.0551     0.9839     0.9839    -0.0000
 87 H      0.9433     1.0000     0.0567     0.9856     0.9856     0.0000
 88 H      1.0154     1.0000    -0.0154     0.9965     0.9965    -0.0000
 89 H      0.9536     1.0000     0.0464     1.0071     1.0071    -0.0000

  Mayer bond orders larger than 0.100000
B(  0-C ,  1-N ) :   1.0949 B(  0-C , 17-C ) :   1.7049 B(  0-C , 52-H ) :   0.9663 
B(  1-N ,  8-C ) :   1.0837 B(  1-N , 10-C ) :   0.9778 B(  2-C , 12-C ) :   1.5078 
B(  2-C , 16-C ) :   1.3549 B(  2-C , 53-H ) :   0.9758 B(  3-N , 14-C ) :   1.2177 
B(  3-N , 16-C ) :   1.1913 B(  3-N , 61-H ) :   0.8994 B(  4-C ,  6-C ) :   1.2128 
B(  4-C , 17-C ) :   1.2115 B(  4-C , 18-C ) :   1.4314 B(  5-N , 19-C ) :   1.4521 
B(  5-N , 27-C ) :   1.3800 B(  6-C ,  8-C ) :   1.7088 B(  6-C , 54-H ) :   0.9569 
B(  7-N , 30-C ) :   1.1940 B(  7-N , 38-C ) :   1.1926 B(  7-N , 62-H ) :   0.8968 
B(  8-C , 55-H ) :   0.9679 B(  9-N , 41-C ) :   1.3933 B(  9-N , 49-C ) :   1.4274 
B( 10-C , 56-H ) :   0.9769 B( 10-C , 57-H ) :   0.9831 B( 10-C , 58-H ) :   0.9834 
B( 11-N , 20-C ) :   1.1318 B( 11-N , 24-C ) :   1.1108 B( 11-N , 25-C ) :   0.9590 
B( 12-C , 14-C ) :   1.3554 B( 12-C , 59-H ) :   0.9739 B( 13-N , 31-C ) :   1.1570 
B( 13-N , 35-C ) :   1.1519 B( 13-N , 36-C ) :   0.9441 B( 14-C , 18-C ) :   1.1320 
B( 15-N , 42-C ) :   1.1071 B( 15-N , 46-C ) :   1.1209 B( 15-N , 47-C ) :   0.9623 
B( 16-C , 51-C ) :   1.1726 B( 17-C , 60-H ) :   0.9570 B( 18-C , 19-C ) :   1.1344 
B( 19-C , 21-C ) :   1.2434 B( 20-C , 28-C ) :   1.6258 B( 20-C , 63-H ) :   0.9702 
B( 21-C , 26-C ) :   1.6120 B( 21-C , 64-H ) :   0.9714 B( 22-C , 23-C ) :   1.2907 
B( 22-C , 28-C ) :   1.2673 B( 22-C , 29-C ) :   1.2208 B( 23-C , 24-C ) :   1.6175 
B( 23-C , 65-H ) :   0.9705 B( 24-C , 66-H ) :   0.9694 B( 25-C , 67-H ) :   0.9760 
B( 25-C , 68-H ) :   0.9828 B( 25-C , 69-H ) :   0.9823 B( 26-C , 27-C ) :   1.2380 
B( 26-C , 70-H ) :   0.9703 B( 27-C , 29-C ) :   1.2142 B( 28-C , 71-H ) :   0.9719 
B( 29-C , 30-C ) :   1.2418 B( 30-C , 32-C ) :   1.2826 B( 31-C , 39-C ) :   1.5945 
B( 31-C , 72-H ) :   0.9683 B( 32-C , 37-C ) :   1.5768 B( 32-C , 73-H ) :   0.9784 
B( 33-C , 34-C ) :   1.3038 B( 33-C , 39-C ) :   1.2976 B( 33-C , 40-C ) :   1.1852 
B( 34-C , 35-C ) :   1.5911 B( 34-C , 74-H ) :   0.9697 B( 35-C , 75-H ) :   0.9684 
B( 36-C , 76-H ) :   0.9767 B( 36-C , 77-H ) :   0.9816 B( 36-C , 78-H ) :   0.9825 
B( 37-C , 38-C ) :   1.2868 B( 37-C , 79-H ) :   0.9768 B( 38-C , 40-C ) :   1.2316 
B( 39-C , 80-H ) :   0.9707 B( 40-C , 41-C ) :   1.2459 B( 41-C , 43-C ) :   1.1907 
B( 42-C , 50-C ) :   1.6358 B( 42-C , 81-H ) :   0.9697 B( 43-C , 48-C ) :   1.6613 
B( 43-C , 82-H ) :   0.9723 B( 44-C , 45-C ) :   1.2624 B( 44-C , 50-C ) :   1.2693 
B( 44-C , 51-C ) :   1.2648 B( 45-C , 46-C ) :   1.6368 B( 45-C , 83-H ) :   0.9718 
B( 46-C , 84-H ) :   0.9701 B( 47-C , 85-H ) :   0.9762 B( 47-C , 86-H ) :   0.9829 
B( 47-C , 87-H ) :   0.9825 B( 48-C , 49-C ) :   1.1941 B( 48-C , 88-H ) :   0.9748 
B( 49-C , 51-C ) :   1.2364 B( 50-C , 89-H ) :   0.9709 

-------
TIMINGS
-------

Total SCF time: 0 days 0 hours 42 min 45 sec 

Total time                  ....    2565.195 sec
Sum of individual times     ....    2562.003 sec  ( 99.9%)

Fock matrix formation       ....    2542.552 sec  ( 99.1%)
Diagonalization             ....       4.627 sec  (  0.2%)
Density matrix formation    ....       0.479 sec  (  0.0%)
Population analysis         ....       0.334 sec  (  0.0%)
Initial guess               ....       2.461 sec  (  0.1%)
Orbital Transformation      ....       0.000 sec  (  0.0%)
Orbital Orthonormalization  ....       0.000 sec  (  0.0%)
DIIS solution               ....       4.273 sec  (  0.2%)
SOSCF solution              ....       5.851 sec  (  0.2%)

Maximum memory used throughout the entire SCF-calculation: 304.2 MB


           ************************************************************
           *        Program running with 8 parallel MPI-processes     *
           *              working on a common directory               *
           ************************************************************

------------------------------------------------------------------------------
                                ORCA  MP2 
------------------------------------------------------------------------------

Freezing NCore=104 chemical core electrons

----------
MP2 ENERGY (disk based algorithm)
----------

Dimension of the basis                    ...  918
Memory devoted to MP2                     ... 7000 MB   
Data format for buffers                   ... DOUBLE
Compression type for matrix containers    ... UNCOMPRESSED

-------------------------------
PARTIAL EXCHANGE TRANSFORMATION
-------------------------------

Transformation type                        ... one-operator
Generation of integrals (i,mue|j,nue)      ... ON
Generation of integrals (mue,kappa|nue,tau)... OFF
Generation of integrals (i,mue|a,nue)      ... OFF
Dimension of the basis                     ...  918
Number of internal MOs                     ...  127 (  52- 178)
Pair cutoff                                ... 2.500e-12 Eh
Number of AO pairs in the trafo            ... 421821
Total Number of distinct AO pairs          ... 421821
Memory devoted for trafo                   ... 7000.0 MB 
Max. Number of MO pairs treated together   ... 1088      
Number Format for Storage                  ... Double (8 Byte)
Integral package used                      ... LIBINT

Starting integral evaluation:
    ... done with AO integral generation
Closing buffer AOK     (38.25 GB; CompressionRatio= 1.33)
Collecting buffer AOK 
Number of MO pairs included in the trafo   ... 8128
------------------------
SORTING OF (i,mue|j,nue)
------------------------

IBATCH = 1 of  1
Closing buffer KAO     (51.03 GB; CompressionRatio= 1.00)
Collecting buffer KAO 
N(AO-Batches) Done                         ... 174753456 
N(AO-Batches) Skipped                      ... 167056496 
N(IJ)-pairs Skipped                        ...         0 
TOTAL TIME for half transformation         ...  1062.437 sec
AO-integral generation                     ...   251.938 sec
Half transformation                        ...   467.594 sec
K-integral sorting                         ...    99.768 sec

Finished integral transformation - now doing MP2 part

OPERATOR COMBINATION   0   0: ij=( 52..178, 52..178)
Process 2:   Internal MO  84
Process 5:   Internal MO 132
Process 0:   Internal MO  54
Process 0:   Internal MO  57
Process 1:   Internal MO  69
Process 0:   Internal MO  60
Process 4:   Internal MO 117
Process 0:   Internal MO  63
Process 1:   Internal MO  72
Process 3:   Internal MO 102
Process 2:   Internal MO  87
Process 0:   Internal MO  66
Process 7:   Internal MO 165
Process 1:   Internal MO  75
Process 6:   Internal MO 150
Process 2:   Internal MO  90
Process 1:   Internal MO  78
Process 5:   Internal MO 135
Process 3:   Internal MO 105
Process 4:   Internal MO 120
Process 1:   Internal MO  81
Process 2:   Internal MO  93
Process 3:   Internal MO 108
Process 2:   Internal MO  96
Process 7:   Internal MO 168
Process 4:   Internal MO 123
Process 6:   Internal MO 153
Process 5:   Internal MO 138
Process 3:   Internal MO 111
Process 2:   Internal MO  99
Process 4:   Internal MO 126
Process 5:   Internal MO 141
Process 3:   Internal MO 114
Process 6:   Internal MO 156
Process 7:   Internal MO 171
Process 4:   Internal MO 129
Process 5:   Internal MO 144
Process 6:   Internal MO 159
Process 7:   Internal MO 174
Process 5:   Internal MO 147
Process 6:   Internal MO 162
Process 7:   Internal MO 177
-----------------------------------------------
 MP2 CORRELATION ENERGY   :     -7.281789341 Eh
-----------------------------------------------


-------
TIMINGS
-------
Total time                : 1225.870 sec
Integral trafo            : 1071.933 sec ( 87.4%)
K(i,j)                    :    9.751 sec (  0.8%)
T(i,j)                    :    0.165 sec (  0.0%)

---------------------------------------
MP2 TOTAL ENERGY:    -2130.894675444 Eh
---------------------------------------

Maximum memory used throughout the entire MP2-calculation: 6735.8 MB

-------------------------   --------------------
FINAL SINGLE POINT ENERGY     -2130.894675443809
-------------------------   --------------------


                            ***************************************
                            *     ORCA property calculations      *
                            ***************************************


  WARNING: The energy has been calculated at the MP2 level but the densities
           used in the property calculations are still SCF densities
           MP2 response densities have not been calculated 
           use %mp2 Density relaxed end
           or  %mp2 Density unrelaxed end

                                    ---------------------
                                    Active property flags
                                    ---------------------
   (+) Dipole Moment


------------------------------------------------------------------------------
                       ORCA ELECTRIC PROPERTIES CALCULATION
------------------------------------------------------------------------------

Dipole Moment Calculation                       ... on
Quadrupole Moment Calculation                   ... off
Polarizability Calculation                      ... off
GBWName                                         ... /scratch/chu_02/allen/tmpyp4_amber_gaff2/conf1/conf1/Conf330.orca.gbw
Electron density                                ... /scratch/chu_02/allen/tmpyp4_amber_gaff2/conf1/conf1/Conf330.orca.scfp
The origin for moment calculation is the CENTER OF MASS  = (-0.001360, -0.004971  0.000456)

-------------
DIPOLE MOMENT
-------------
                                X             Y             Z
Electronic contribution:      2.16252      -3.99169      -0.06503
Nuclear contribution   :     -0.00623       0.18277       0.07496
                        -----------------------------------------
Total Dipole Moment    :      2.15629      -3.80893       0.00993
                        -----------------------------------------
Magnitude (a.u.)       :      4.37694
Magnitude (Debye)      :     11.12529



--------------------
Rotational spectrum 
--------------------
 
Rotational constants in cm-1:     0.001502     0.001476     0.000761 
Rotational constants in MHz :    45.031031    44.251611    22.804271 

 Dipole components along the rotational axes: 
x,y,z [a.u.] :     2.975743    -3.209734     0.012225 
x,y,z [Debye]:     7.563738    -8.158496     0.031073 

 

Timings for individual modules:

Sum of individual times         ...     3797.076 sec (=  63.285 min)
GTO integral calculation        ...        3.370 sec (=   0.056 min)   0.1 %
SCF iterations                  ...     2566.602 sec (=  42.777 min)  67.6 %
MP2 module                      ...     1227.105 sec (=  20.452 min)  32.3 %
                             ****ORCA TERMINATED NORMALLY****
TOTAL RUN TIME: 0 days 1 hours 3 minutes 19 seconds 398 msec
# of primitive gaussian functions

