
                                 *****************
                                 * O   R   C   A *
                                 *****************

                                            #,                                       
                                            ###                                      
                                            ####                                     
                                            #####                                    
                                            ######                                   
                                           ########,                                 
                                     ,,################,,,,,                         
                               ,,#################################,,                 
                          ,,##########################################,,             
                       ,#########################################, ''#####,          
                    ,#############################################,,   '####,        
                  ,##################################################,,,,####,       
                ,###########''''           ''''###############################       
              ,#####''   ,,,,##########,,,,          '''####'''          '####       
            ,##' ,,,,###########################,,,                        '##       
           ' ,,###''''                  '''############,,,                           
         ,,##''                                '''############,,,,        ,,,,,,###''
      ,#''                                            '''#######################'''  
     '                                                          ''''####''''         
             ,#######,   #######,   ,#######,      ##                                
            ,#'     '#,  ##    ##  ,#'     '#,    #''#        ######   ,####,        
            ##       ##  ##   ,#'  ##            #'  '#       #        #'  '#        
            ##       ##  #######   ##           ,######,      #####,   #    #        
            '#,     ,#'  ##    ##  '#,     ,#' ,#      #,         ##   #,  ,#        
             '#######'   ##     ##  '#######'  #'      '#     #####' # '####'        



                  #######################################################
                  #                        -***-                        #
                  #          Department of theory and spectroscopy      #
                  #    Directorship and core code : Frank Neese         #
                  #        Max Planck Institute fuer Kohlenforschung    #
                  #                Kaiser Wilhelm Platz 1               #
                  #                 D-45470 Muelheim/Ruhr               #
                  #                      Germany                        #
                  #                                                     #
                  #                  All rights reserved                #
                  #                        -***-                        #
                  #######################################################


                         Program Version 5.0.4 -  RELEASE  -


 With contributions from (in alphabetic order):
   Daniel Aravena         : Magnetic Suceptibility
   Michael Atanasov       : Ab Initio Ligand Field Theory (pilot matlab implementation)
   Alexander A. Auer      : GIAO ZORA, VPT2 properties, NMR spectrum
   Ute Becker             : Parallelization
   Giovanni Bistoni       : ED, misc. LED, open-shell LED, HFLD
   Martin Brehm           : Molecular dynamics
   Dmytro Bykov           : SCF Hessian
   Vijay G. Chilkuri      : MRCI spin determinant printing, contributions to CSF-ICE
   Dipayan Datta          : RHF DLPNO-CCSD density
   Achintya Kumar Dutta   : EOM-CC, STEOM-CC
   Dmitry Ganyushin       : Spin-Orbit,Spin-Spin,Magnetic field MRCI
   Miquel Garcia          : C-PCM and meta-GGA Hessian, CC/C-PCM, Gaussian charge scheme
   Yang Guo               : DLPNO-NEVPT2, F12-NEVPT2, CIM, IAO-localization
   Andreas Hansen         : Spin unrestricted coupled pair/coupled cluster methods
   Benjamin Helmich-Paris : MC-RPA, TRAH-SCF, COSX integrals
   Lee Huntington         : MR-EOM, pCC
   Robert Izsak           : Overlap fitted RIJCOSX, COSX-SCS-MP3, EOM
   Marcus Kettner         : VPT2
   Christian Kollmar      : KDIIS, OOCD, Brueckner-CCSD(T), CCSD density, CASPT2, CASPT2-K
   Simone Kossmann        : Meta GGA functionals, TD-DFT gradient, OOMP2, MP2 Hessian
   Martin Krupicka        : Initial AUTO-CI
   Lucas Lang             : DCDCAS
   Marvin Lechner         : AUTO-CI (C++ implementation), FIC-MRCC
   Dagmar Lenk            : GEPOL surface, SMD
   Dimitrios Liakos       : Extrapolation schemes; Compound Job, initial MDCI parallelization
   Dimitrios Manganas     : Further ROCIS development; embedding schemes
   Dimitrios Pantazis     : SARC Basis sets
   Anastasios Papadopoulos: AUTO-CI, single reference methods and gradients
   Taras Petrenko         : DFT Hessian,TD-DFT gradient, ASA, ECA, R-Raman, ABS, FL, XAS/XES, NRVS
   Peter Pinski           : DLPNO-MP2, DLPNO-MP2 Gradient
   Christoph Reimann      : Effective Core Potentials
   Marius Retegan         : Local ZFS, SOC
   Christoph Riplinger    : Optimizer, TS searches, QM/MM, DLPNO-CCSD(T), (RO)-DLPNO pert. Triples
   Tobias Risthaus        : Range-separated hybrids, TD-DFT gradient, RPA, STAB
   Michael Roemelt        : Original ROCIS implementation
   Masaaki Saitow         : Open-shell DLPNO-CCSD energy and density
   Barbara Sandhoefer     : DKH picture change effects
   Avijit Sen             : IP-ROCIS
   Kantharuban Sivalingam : CASSCF convergence, NEVPT2, FIC-MRCI
   Bernardo de Souza      : ESD, SOC TD-DFT
   Georgi Stoychev        : AutoAux, RI-MP2 NMR, DLPNO-MP2 response
   Willem Van den Heuvel  : Paramagnetic NMR
   Boris Wezisla          : Elementary symmetry handling
   Frank Wennmohs         : Technical directorship


 We gratefully acknowledge several colleagues who have allowed us to
 interface, adapt or use parts of their codes:
   Stefan Grimme, W. Hujo, H. Kruse, P. Pracht,  : VdW corrections, initial TS optimization,
                  C. Bannwarth, S. Ehlert          DFT functionals, gCP, sTDA/sTD-DF
   Ed Valeev, F. Pavosevic, A. Kumar             : LibInt (2-el integral package), F12 methods
   Garnet Chan, S. Sharma, J. Yang, R. Olivares  : DMRG
   Ulf Ekstrom                                   : XCFun DFT Library
   Mihaly Kallay                                 : mrcc  (arbitrary order and MRCC methods)
   Jiri Pittner, Ondrej Demel                    : Mk-CCSD
   Frank Weinhold                                : gennbo (NPA and NBO analysis)
   Christopher J. Cramer and Donald G. Truhlar   : smd solvation model
   Lars Goerigk                                  : TD-DFT with DH, B97 family of functionals
   V. Asgeirsson, H. Jonsson                     : NEB implementation
   FAccTs GmbH                                   : IRC, NEB, NEB-TS, DLPNO-Multilevel, CI-OPT
                                                   MM, QMMM, 2- and 3-layer-ONIOM, Crystal-QMMM,
                                                   LR-CPCM, SF, NACMEs, symmetry and pop. for TD-DFT,
                                                   nearIR, NL-DFT gradient (VV10), updates on ESD,
                                                   ML-optimized integration grids
   S Lehtola, MJT Oliveira, MAL Marques          : LibXC Library
   Liviu Ungur et al                             : ANISO software


 Your calculation uses the libint2 library for the computation of 2-el integrals
 For citations please refer to: http://libint.valeyev.net

 Your ORCA version has been built with support for libXC version: 5.1.0
 For citations please refer to: https://tddft.org/programs/libxc/

 This ORCA versions uses:
   CBLAS   interface :  Fast vector & matrix operations
   LAPACKE interface :  Fast linear algebra routines
   SCALAPACK package :  Parallel linear algebra routines
   Shared memory     :  Shared parallel matrices
   BLAS/LAPACK       :  OpenBLAS 0.3.15  USE64BITINT DYNAMIC_ARCH NO_AFFINITY Sandybridge SINGLE_THREADED
        Core in use  :  Sandybridge
   Copyright (c) 2011-2014, The OpenBLAS Project


================================================================================

----- Orbital basis set information -----
Your calculation utilizes the basis: cc-pVDZ 
       H, B-Ne : Obtained from the ccRepo (grant-hill.group.shef.ac.uk/ccrepo) Feb. 2017
                 T. H. Dunning, Jr., J. Chem. Phys. 90, 1007 (1989)
            He : Obtained from the ccRepo (grant-hill.group.shef.ac.uk/ccrepo) Feb. 2017
                 D. E. Woon, T. H. Dunning, Jr., J. Chem. Phys. 100, 2975 (1994)
  Li-Be, Na-Mg : Obtained from the ccRepo (grant-hill.group.shef.ac.uk/ccrepo) Feb. 2017
                 B. P. Prascher, D. E. Woon, K. A. Peterson, T. H. Dunning, Jr., A. K. Wilson, Theor. Chem. Acc. 128, 69 (2011)
         Al-Ar : Obtained from the ccRepo (grant-hill.group.shef.ac.uk/ccrepo) Feb. 2017
                 D. E. Woon, T. H. Dunning, Jr., J. Chem. Phys. 98, 1358 (1993)
            Ca : Obtained from the Peterson Research Group Website (tyr0.chem.wsu.edu/~kipeters) Feb. 2017
                 J. Koput, K. A. Peterson, J. Phys. Chem. 106, 9595 (2002)
         Sc-Zn : Obtained from the ccRepo (grant-hill.group.shef.ac.uk/ccrepo) Feb. 2017
                 N. B. Balabanov, K. A. Peterson, J. Chem. Phys. 123, 064107 (2005)
                 N. B. Balabanov, K. A. Peterson, J. Chem. Phys. 125, 074110 (2006)
         Ga-Kr : Obtained from the ccRepo (grant-hill.group.shef.ac.uk/ccrepo) Feb. 2017
                 A. K. Wilson, D. E. Woon, K. A. Peterson, T. H. Dunning, Jr., J. Chem. Phys. 110, 7667 (1999)

================================================================================
                                        WARNINGS
                       Please study these warnings very carefully!
================================================================================


WARNING: No MP2 level density has been requested!
         To caclulate MP2 level properties use
         %mp2 Density relaxed end
         or
         %mp2 Density unrelaxed end

WARNING: Post HF methods need fully converged wavefunctions
  ===> : Setting SCFConvForced true
         You can overwrite this default with %scf ConvForced false 


INFO   : the flag for use of the SHARK integral package has been found!

================================================================================
                                       INPUT FILE
================================================================================
NAME = /scratch/allen/tmpyp4_amber_gaff2/2.Mdgx/conf11/conf11/Conf110.orca
|  1> ! PAL2
|  2> ! mp2 cc-pvdz TightSCF  NoKeepInts
|  3> 
|  4> %scf
|  5>   MaxCore 2000
|  6> end
|  7> %mp2
|  8>   MaxCore 2000
|  9> end
| 10> * xyz 0 1
| 11>    C       -4.29600         5.65500        -1.02500
| 12>    C        1.47400         4.04100         0.05700
| 13>    C       -2.80200         4.09300         0.04900
| 14>    C       -2.88500         4.88700         1.20400
| 15>    C       -3.66400         6.02600         1.20800
| 16>    C       -5.21000         7.60400         0.15200
| 17>    C        0.13200         4.30700         0.06100
| 18>    C       -0.56900         3.05600         0.04700
| 19>    C        1.64900         2.61800         0.02300
| 20>    C       -3.53400         4.50400        -1.07600
| 21>    N       -4.35300         6.39800         0.10400
| 22>    N        0.38800         2.06700         0.02500
| 23>    N       -2.01000         0.39500        -0.07500
| 24>    N       -0.38800        -2.07400        -0.02700
| 25>    N        2.01000        -0.40100         0.06500
| 26>    C       -1.96000         2.86100         0.02400
| 27>    C       -2.62300         1.61500        -0.01800
| 28>    C       -5.57300        -4.32900         1.06600
| 29>    C       -4.07300         1.47100         0.05600
| 30>    C       -4.10600        -2.75600        -0.02600
| 31>    C       -4.99500        -2.75700        -1.11100
| 32>    C       -6.13200        -3.54200        -1.07600
| 33>    C       -7.65100        -5.11300         0.04000
| 34>    C       -4.32400         0.14100         0.03700
| 35>    C       -3.02500        -0.52000        -0.04800
| 36>    C       -4.42200        -3.56600         1.07500
| 37>    N       -6.40700        -4.31300         0.00100
| 38>    C       -2.86700        -1.92200        -0.04000
| 39>    C       -1.65000        -2.62400        -0.02700
| 40>    C        3.56800        -6.14200        -1.04000
| 41>    C       -1.47600        -4.04900        -0.03400
| 42>    C        2.80300        -4.09900        -0.00800
| 43>    C        3.65700        -4.38400         1.06900
| 44>    C        4.42700        -5.53000         1.05900
| 45>    C        5.24500        -7.58800         0.01400
| 46>    C       -0.13400        -4.31500        -0.02200
| 47>    C        0.56800        -3.06400        -0.02700
| 48>    C        2.77500        -5.01200        -1.07400
| 49>    N        4.37600        -6.39100         0.01700
| 50>    C        1.95900        -2.86900        -0.00900
| 51>    C        2.62100        -1.62200         0.00900
| 52>    C        5.54300         4.33900        -1.13000
| 53>    C        4.07000        -1.47900        -0.09400
| 54>    C        4.10400         2.75100        -0.02100
| 55>    C        5.02700         2.72900         1.03600
| 56>    C        6.16600         3.50900         0.97800
| 57>    C        7.61900         5.15300        -0.11500
| 58>    C        4.32100        -0.14800        -0.09200
| 59>    C        3.02500         0.51400         0.01500
| 60>    C        4.38700         3.58200        -1.11500
| 61>    C        2.86600         1.91600         0.01300
| 62>    N        6.41300         4.29600        -0.09500
| 63>    H       -4.86600         6.01600        -1.87200
| 64>    H        2.27400         4.76600         0.08100
| 65>    H       -2.35100         4.61700         2.10700
| 66>    H       -3.76600         6.66400         2.07600
| 67>    H       -6.19100         7.32700         0.54400
| 68>    H       -4.74000         8.34200         0.80300
| 69>    H       -5.30800         8.00400        -0.85700
| 70>    H       -0.33200         5.28200         0.06900
| 71>    H       -3.50000         3.94100        -2.00200
| 72>    H        0.18200         1.07200         0.00500
| 73>    H       -0.18300        -1.08000        -0.02100
| 74>    H       -5.86400        -4.96200         1.89500
| 75>    H       -4.79400         2.27200         0.13900
| 76>    H       -4.80000        -2.16000        -1.99400
| 77>    H       -6.84100        -3.58200        -1.89300
| 78>    H       -8.42800        -4.53600         0.54600
| 79>    H       -7.95600        -5.33700        -0.98100
| 80>    H       -7.45600        -6.03700         0.58400
| 81>    H       -5.28700        -0.34400         0.10000
| 82>    H       -3.78000        -3.60100         1.94700
| 83>    H        3.58700        -6.86800        -1.84300
| 84>    H       -2.27600        -4.77400        -0.05000
| 85>    H        3.71400        -3.72400         1.92600
| 86>    H        5.09200        -5.79500         1.87100
| 87>    H        6.20500        -7.32900        -0.43900
| 88>    H        5.39300        -7.91700         1.04200
| 89>    H        4.75900        -8.37300        -0.56400
| 90>    H        0.32900        -5.29000        -0.00800
| 91>    H        2.14600        -4.84200        -1.94000
| 92>    H        5.80800         4.98600        -1.95600
| 93>    H        4.78800        -2.28100        -0.18500
| 94>    H        4.86000         2.11400         1.91200
| 95>    H        6.90100         3.53100         1.77200
| 96>    H        7.38300         6.10900         0.35600
| 97>    H        8.41400         4.65200         0.43500
| 98>    H        7.92100         5.31000        -1.15000
| 99>    H        5.28300         0.33600        -0.17900
|100>    H        3.72000         3.63200        -1.96700
|101> *
|102> 
|103>                          ****END OF INPUT****
================================================================================

                       ****************************
                       * Single Point Calculation *
                       ****************************

---------------------------------
CARTESIAN COORDINATES (ANGSTROEM)
---------------------------------
  C     -4.296000    5.655000   -1.025000
  C      1.474000    4.041000    0.057000
  C     -2.802000    4.093000    0.049000
  C     -2.885000    4.887000    1.204000
  C     -3.664000    6.026000    1.208000
  C     -5.210000    7.604000    0.152000
  C      0.132000    4.307000    0.061000
  C     -0.569000    3.056000    0.047000
  C      1.649000    2.618000    0.023000
  C     -3.534000    4.504000   -1.076000
  N     -4.353000    6.398000    0.104000
  N      0.388000    2.067000    0.025000
  N     -2.010000    0.395000   -0.075000
  N     -0.388000   -2.074000   -0.027000
  N      2.010000   -0.401000    0.065000
  C     -1.960000    2.861000    0.024000
  C     -2.623000    1.615000   -0.018000
  C     -5.573000   -4.329000    1.066000
  C     -4.073000    1.471000    0.056000
  C     -4.106000   -2.756000   -0.026000
  C     -4.995000   -2.757000   -1.111000
  C     -6.132000   -3.542000   -1.076000
  C     -7.651000   -5.113000    0.040000
  C     -4.324000    0.141000    0.037000
  C     -3.025000   -0.520000   -0.048000
  C     -4.422000   -3.566000    1.075000
  N     -6.407000   -4.313000    0.001000
  C     -2.867000   -1.922000   -0.040000
  C     -1.650000   -2.624000   -0.027000
  C      3.568000   -6.142000   -1.040000
  C     -1.476000   -4.049000   -0.034000
  C      2.803000   -4.099000   -0.008000
  C      3.657000   -4.384000    1.069000
  C      4.427000   -5.530000    1.059000
  C      5.245000   -7.588000    0.014000
  C     -0.134000   -4.315000   -0.022000
  C      0.568000   -3.064000   -0.027000
  C      2.775000   -5.012000   -1.074000
  N      4.376000   -6.391000    0.017000
  C      1.959000   -2.869000   -0.009000
  C      2.621000   -1.622000    0.009000
  C      5.543000    4.339000   -1.130000
  C      4.070000   -1.479000   -0.094000
  C      4.104000    2.751000   -0.021000
  C      5.027000    2.729000    1.036000
  C      6.166000    3.509000    0.978000
  C      7.619000    5.153000   -0.115000
  C      4.321000   -0.148000   -0.092000
  C      3.025000    0.514000    0.015000
  C      4.387000    3.582000   -1.115000
  C      2.866000    1.916000    0.013000
  N      6.413000    4.296000   -0.095000
  H     -4.866000    6.016000   -1.872000
  H      2.274000    4.766000    0.081000
  H     -2.351000    4.617000    2.107000
  H     -3.766000    6.664000    2.076000
  H     -6.191000    7.327000    0.544000
  H     -4.740000    8.342000    0.803000
  H     -5.308000    8.004000   -0.857000
  H     -0.332000    5.282000    0.069000
  H     -3.500000    3.941000   -2.002000
  H      0.182000    1.072000    0.005000
  H     -0.183000   -1.080000   -0.021000
  H     -5.864000   -4.962000    1.895000
  H     -4.794000    2.272000    0.139000
  H     -4.800000   -2.160000   -1.994000
  H     -6.841000   -3.582000   -1.893000
  H     -8.428000   -4.536000    0.546000
  H     -7.956000   -5.337000   -0.981000
  H     -7.456000   -6.037000    0.584000
  H     -5.287000   -0.344000    0.100000
  H     -3.780000   -3.601000    1.947000
  H      3.587000   -6.868000   -1.843000
  H     -2.276000   -4.774000   -0.050000
  H      3.714000   -3.724000    1.926000
  H      5.092000   -5.795000    1.871000
  H      6.205000   -7.329000   -0.439000
  H      5.393000   -7.917000    1.042000
  H      4.759000   -8.373000   -0.564000
  H      0.329000   -5.290000   -0.008000
  H      2.146000   -4.842000   -1.940000
  H      5.808000    4.986000   -1.956000
  H      4.788000   -2.281000   -0.185000
  H      4.860000    2.114000    1.912000
  H      6.901000    3.531000    1.772000
  H      7.383000    6.109000    0.356000
  H      8.414000    4.652000    0.435000
  H      7.921000    5.310000   -1.150000
  H      5.283000    0.336000   -0.179000
  H      3.720000    3.632000   -1.967000

----------------------------
CARTESIAN COORDINATES (A.U.)
----------------------------
  NO LB      ZA    FRAG     MASS         X           Y           Z
   0 C     6.0000    0    12.011   -8.118263   10.686401   -1.936969
   1 C     6.0000    0    12.011    2.785456    7.636383    0.107714
   2 C     6.0000    0    12.011   -5.295013    7.734649    0.092597
   3 C     6.0000    0    12.011   -5.451860    9.235092    2.275230
   4 C     6.0000    0    12.011   -6.923957   11.387490    2.282789
   5 C     6.0000    0    12.011   -9.845473   14.369478    0.287238
   6 C     6.0000    0    12.011    0.249444    8.139050    0.115273
   7 C     6.0000    0    12.011   -1.075254    5.775003    0.088817
   8 C     6.0000    0    12.011    3.116158    4.947303    0.043464
   9 C     6.0000    0    12.011   -6.678292    8.511327   -2.033345
  10 N     7.0000    0    14.007   -8.225978   12.090468    0.196532
  11 N     7.0000    0    14.007    0.733214    3.906064    0.047243
  12 N     7.0000    0    14.007   -3.798350    0.746442   -0.141729
  13 N     7.0000    0    14.007   -0.733214   -3.919292   -0.051023
  14 N     7.0000    0    14.007    3.798350   -0.757780    0.122832
  15 C     6.0000    0    12.011   -3.703863    5.406506    0.045353
  16 C     6.0000    0    12.011   -4.956752    3.051908   -0.034015
  17 C     6.0000    0    12.011  -10.531444   -8.180624    2.014448
  18 C     6.0000    0    12.011   -7.696855    2.779787    0.105825
  19 C     6.0000    0    12.011   -7.759216   -5.208085   -0.049133
  20 C     6.0000    0    12.011   -9.439182   -5.209975   -2.099486
  21 C     6.0000    0    12.011  -11.587801   -6.693410   -2.033345
  22 C     6.0000    0    12.011  -14.458295   -9.662170    0.075589
  23 C     6.0000    0    12.011   -8.171176    0.266451    0.069920
  24 C     6.0000    0    12.011   -5.716422   -0.982658   -0.090707
  25 C     6.0000    0    12.011   -8.356369   -6.738763    2.031456
  26 N     7.0000    0    14.007  -12.107475   -8.150389    0.001890
  27 C     6.0000    0    12.011   -5.417845   -3.632054   -0.075589
  28 C     6.0000    0    12.011   -3.118048   -4.958641   -0.051023
  29 C     6.0000    0    12.011    6.742543  -11.606698   -1.965315
  30 C     6.0000    0    12.011   -2.789236   -7.651501   -0.064251
  31 C     6.0000    0    12.011    5.296902   -7.745987   -0.015118
  32 C     6.0000    0    12.011    6.910728   -8.284559    2.020117
  33 C     6.0000    0    12.011    8.365818  -10.450186    2.001220
  34 C     6.0000    0    12.011    9.911614  -14.339242    0.026456
  35 C     6.0000    0    12.011   -0.253223   -8.154168   -0.041574
  36 C     6.0000    0    12.011    1.073364   -5.790121   -0.051023
  37 C     6.0000    0    12.011    5.243990   -9.471307   -2.029566
  38 N     7.0000    0    14.007    8.269442  -12.077240    0.032125
  39 C     6.0000    0    12.011    3.701973   -5.421624   -0.017008
  40 C     6.0000    0    12.011    4.952972   -3.065136    0.017008
  41 C     6.0000    0    12.011   10.474752    8.199522   -2.135391
  42 C     6.0000    0    12.011    7.691185   -2.794905   -0.177634
  43 C     6.0000    0    12.011    7.755436    5.198637   -0.039684
  44 C     6.0000    0    12.011    9.499653    5.157063    1.957756
  45 C     6.0000    0    12.011   11.652051    6.631049    1.848152
  46 C     6.0000    0    12.011   14.397823    9.737759   -0.217319
  47 C     6.0000    0    12.011    8.165507   -0.279679   -0.173855
  48 C     6.0000    0    12.011    5.716422    0.971319    0.028346
  49 C     6.0000    0    12.011    8.290229    6.768999   -2.107045
  50 C     6.0000    0    12.011    5.415955    3.620715    0.024566
  51 N     7.0000    0    14.007   12.118814    8.118263   -0.179524
  52 H     1.0000    0     1.008   -9.195407   11.368592   -3.537567
  53 H     1.0000    0     1.008    4.297237    9.006435    0.153068
  54 H     1.0000    0     1.008   -4.442746    8.724866    3.981653
  55 H     1.0000    0     1.008   -7.116709   12.593135    3.923071
  56 H     1.0000    0     1.008  -11.699294   13.846023    1.028011
  57 H     1.0000    0     1.008   -8.957302   15.764095    1.517450
  58 H     1.0000    0     1.008  -10.030666   15.125368   -1.619495
  59 H     1.0000    0     1.008   -0.627389    9.981533    0.130391
  60 H     1.0000    0     1.008   -6.614041    7.447411   -3.783232
  61 H     1.0000    0     1.008    0.343930    2.025786    0.009449
  62 H     1.0000    0     1.008   -0.345820   -2.040904   -0.039684
  63 H     1.0000    0     1.008  -11.081354   -9.376821    3.581031
  64 H     1.0000    0     1.008   -9.059347    4.293458    0.262672
  65 H     1.0000    0     1.008   -9.070685   -4.081808   -3.768114
  66 H     1.0000    0     1.008  -12.927616   -6.768999   -3.577252
  67 H     1.0000    0     1.008  -15.926612   -8.571798    1.031790
  68 H     1.0000    0     1.008  -15.034661  -10.085468   -1.853821
  69 H     1.0000    0     1.008  -14.089798  -11.408277    1.103600
  70 H     1.0000    0     1.008   -9.990982   -0.650066    0.188973
  71 H     1.0000    0     1.008   -7.143165   -6.804904    3.679297
  72 H     1.0000    0     1.008    6.778448  -12.978639   -3.482765
  73 H     1.0000    0     1.008   -4.301017   -9.021553   -0.094486
  74 H     1.0000    0     1.008    7.018443   -7.037340    3.639613
  75 H     1.0000    0     1.008    9.622485  -10.950963    3.535678
  76 H     1.0000    0     1.008   11.725751  -13.849803   -0.829590
  77 H     1.0000    0     1.008   10.191293  -14.960962    1.969095
  78 H     1.0000    0     1.008    8.993207  -15.822677   -1.065806
  79 H     1.0000    0     1.008    0.621720   -9.996651   -0.015118
  80 H     1.0000    0     1.008    4.055352   -9.150054   -3.666069
  81 H     1.0000    0     1.008   10.975529    9.422175   -3.696304
  82 H     1.0000    0     1.008    9.048009   -4.310465   -0.349599
  83 H     1.0000    0     1.008    9.184069    3.994881    3.613156
  84 H     1.0000    0     1.008   13.041000    6.672623    3.348595
  85 H     1.0000    0     1.008   13.951848   11.544337    0.672743
  86 H     1.0000    0     1.008   15.900156    8.791006    0.822031
  87 H     1.0000    0     1.008   14.968521   10.034446   -2.173185
  88 H     1.0000    0     1.008    9.983423    0.634948   -0.338261
  89 H     1.0000    0     1.008    7.029781    6.863485   -3.717091

--------------------------------
INTERNAL COORDINATES (ANGSTROEM)
--------------------------------
 C      0   0   0     0.000000000000     0.00000000     0.00000000
 C      1   0   0     6.088400446751     0.00000000     0.00000000
 C      1   2   0     2.413577427803    33.14719754     0.00000000
 C      3   1   2     1.404047719987    87.90706174    93.05971755
 C      4   3   1     1.379919562873   120.16768707     0.09881662
 C      5   4   3     2.448537522686   152.51591533     1.70494719
 C      2   1   3     1.368114030335    11.29358914   326.55019372
 C      7   2   3     1.434084376876   108.05010202     0.84668783
 C      2   1   3     1.434123425651   111.99150678    39.07410851
 C      1   2   3     1.381320382822    42.51264132   311.97626012
 N      1   2   3     1.352752379410    92.13280787    87.79765754
 N      9   2   1     1.376127174356   106.58526707   347.89591882
 N     12   9   2     2.925062050624   168.53581413   171.12065651
 N     13  12   9     2.954513327098    91.55032014    11.12112580
 N     14  13  12     2.925371258490    88.43092389   359.84326247
 C      8   7   2     1.404790019896   127.24786865   181.11170171
 C     13  12   9     1.366535034311    81.72106996   188.00453233
 C     14  13  12     5.758810554272    80.56209567   166.76250791
 C     17  13  12     1.459010623676   111.08861209   183.82872609
 C     18  14  13     2.412235892279    27.27532823    36.33507194
 C     20  18  14     1.402692767501    87.95206320   148.94598259
 C     21  20  18     1.382106725257   120.14573887   359.70382047
 C     18  14  13     2.446510985056   144.15733107    82.80075377
 C     19  17  13     1.353610726908   106.29293361   359.75308708
 C     13  12   9     1.366813447402   172.21332906    33.46711076
 C     18  14  13     1.380960173213    15.08449437   309.23336894
 N     22  21  20     1.352773077792   120.73759875     0.27865223
 C     25  13  17     1.410897586645   125.60330303   182.37774668
 C     14  13  12     1.376642291955    80.24689249   177.85461986
 C     14  13  12     5.764089607215   164.51507311   312.20821879
 C     29  14  13     1.435600919476   106.58649366   178.76395472
 C     30  14  13     2.413316804732    27.10625047    82.12560436
 C     32  30  14     1.403734305344    87.90059683   149.76154742
 C     33  32  30     1.380694028378   120.14881443   359.74174632
 C     34  33  32     2.448777858443   152.49203239     2.45173620
 C     31  29  14     1.368160809262   108.16950133     0.70383075
 C     14  13  12     1.376239804685   169.26375223   353.09862627
 C     30  14  13     1.380907310430    14.68948582   353.70041132
 N     34  33  32     1.352658863128   120.85575621     0.19603406
 C     37  14  29     1.404717053360   126.01551127   180.90772073
 C     15  14  13     1.366491126938    81.61824056   183.09049352
 C      2   1   3     4.249062720177   147.06683267   160.17667263
 C     41  15  14     1.459677704153   111.05201287   175.08990246
 C     42   2   1     2.412953791518    41.78584867   209.02026624
 C     44  42   2     1.403446472082    87.95153797   233.97558675
 C     45  44  42     1.381696421071   120.11137308     0.19721020
 C     42   2   1     2.450019795838   135.97209175   119.33511535
 C     43  41  15     1.354461516618   106.26758155     0.30894352
 C     15  14  13     1.367461151185   171.87382904   332.35056460
 C     42   2   1     1.381886391857    32.59078432   257.87554544
 C      9   2   1     1.404988612053   126.98745415   168.90025635
 N     42   2   1     1.352765315936   113.57249190   147.07170454
 H      1   2   3     1.082880418144   136.57084379   221.48825627
 H      2   1   3     1.079907866440   121.87313850   208.48142645
 H      4   3   1     1.083265895337   121.04009918   179.53869373
 H      5   4   3     1.082068389706   122.83428954   179.44099188
 H      6   5   4     1.092132775811   104.41193211   100.04583328
 H      6   5   4     1.090570951383    84.63848679   209.50458668
 H      6   5   4     1.089809616401   133.83778277   322.30784656
 H      7   2  54     1.079807853278   126.66122480     1.30600390
 H     10   1   2     1.084251354622   118.78364112   235.04352391
 H     12   9   2     1.016297692608   125.29023241   180.00180175
 H     14  13  12     1.014936943854    44.97226959   359.42596618
 H     18  14  13     1.082871645210   128.03556573   234.20482432
 H     19  17  13     1.080893611786   126.41830519   178.11313280
 H     21  20  18     1.083569563987   121.05669627   180.67006309
 H     22  21  20     1.082483256222   122.73097286   180.59748951
 H     23  18  14     1.092105306278   103.92715769   234.93429879
 H     23  18  14     1.088871893291   134.19244188    12.25587044
 H     23  18  14     1.089833473518    84.85857450   125.45241208
 H     24  19  17     1.080075460327   127.28078426   178.44613241
 H     26  18  14     1.083408048706   118.76995697   244.94906660
 H     30  14  13     1.082703098730   127.99711412   279.66882698
 H     31  29  14     1.079759695488   125.22293469   180.92530585
 H     33  32  30     1.083188810873   121.01964473   180.74284758
 H     34  33  32     1.082494341787   122.70821597   180.59516895
 H     35  34  33     1.092652735319   105.73575241    97.19771933
 H     35  34  33     1.089462711615    84.05943581   206.43036958
 H     35  34  33     1.089268102902   133.08365142   318.50306270
 H     36  31  29     1.079439669458   126.61599965   178.98859863
 H     38  30  73     1.083742127999   118.77264435   359.90091293
 H     42   2   1     1.082178358682   119.31790784     3.70323499
 H     43  41  15     1.080281907652   126.36969097   182.06329380
 H     45  44  42     1.083277434455   121.10105945   179.58025624
 H     46  45  44     1.082194529648   122.72144639   179.46906377
 H     47  42   2     1.091546151109   106.65128841   315.16475048
 H     47  42   2     1.088818625851   132.46019523    94.52397119
 H     47  42   2     1.089531091801    83.63838232   206.04504406
 H     48  43  41     1.080402239909   127.23657387   181.62955349
 H     50  42   2     1.083186502870   118.77001737    94.71359229

---------------------------
INTERNAL COORDINATES (A.U.)
---------------------------
 C      0   0   0     0.000000000000     0.00000000     0.00000000
 C      1   0   0    11.505409438004     0.00000000     0.00000000
 C      1   2   0     4.561000341562    33.14719754     0.00000000
 C      3   1   2     2.653265669732    87.90706174    93.05971755
 C      4   3   1     2.607670060671   120.16768707     0.09881662
 C      5   4   3     4.627065346506   152.51591533     1.70494719
 C      2   1   3     2.585360837309    11.29358914   326.55019372
 C      7   2   3     2.710026725231   108.05010202     0.84668783
 C      2   1   3     2.710100516721   111.99150678    39.07410851
 C      1   2   3     2.610317226737    42.51264132   311.97626012
 N      1   2   3     2.556331524096    92.13280787    87.79765754
 N      9   2   1     2.600503484979   106.58526707   347.89591882
 N     12   9   2     5.527566200405   168.53581413   171.12065651
 N     13  12   9     5.583221047236    91.55032014    11.12112580
 N     14  13  12     5.528150518591    88.43092389   359.84326247
 C      8   7   2     2.654668413270   127.24786865   181.11170171
 C     13  12   9     2.582376967257    81.72106996   188.00453233
 C     14  13  12    10.882574804710    80.56209567   166.76250791
 C     17  13  12     2.757130505230   111.08861209   183.82872609
 C     18  14  13     4.558465206823    27.27532823    36.33507194
 C     20  18  14     2.650705180609    87.95206320   148.94598259
 C     21  20  18     2.611803198586   120.14573887   359.70382047
 C     18  14  13     4.623235745386   144.15733107    82.80075377
 C     19  17  13     2.557953565794   106.29293361   359.75308708
 C     13  12   9     2.582903091751   172.21332906    33.46711076
 C     18  14  13     2.609636529225    15.08449437   309.23336894
 N     22  21  20     2.556370638369   120.73759875     0.27865223
 C     25  13  17     2.666210041769   125.60330303   182.37774668
 C     14  13  12     2.601476916169    80.24689249   177.85461986
 C     14  13  12    10.892550769017   164.51507311   312.20821879
 C     29  14  13     2.712892575415   106.58649366   178.76395472
 C     30  14  13     4.560507835333    27.10625047    82.12560436
 C     32  30  14     2.652673401891    87.90059683   149.76154742
 C     33  32  30     2.609133588376   120.14881443   359.74174632
 C     34  33  32     4.627519515267   152.49203239     2.45173620
 C     31  29  14     2.585449236669   108.16950133     0.70383075
 C     14  13  12     2.600716325456   169.26375223   353.09862627
 C     30  14  13     2.609536633043    14.68948582   353.70041132
 N     34  33  32     2.556154803934   120.85575621     0.19603406
 C     37  14  29     2.654530526499   126.01551127   180.90772073
 C     15  14  13     2.582293994346    81.61824056   183.09049352
 C      2   1   3     8.029564866989   147.06683267   160.17667263
 C     41  15  14     2.758391104639   111.05201287   175.08990246
 C     42   2   1     4.559821839776    41.78584867   209.02026624
 C     44  42   2     2.652129475853    87.95153797   233.97558675
 C     45  44  42     2.611027836043   120.11137308     0.19721020
 C     42   2   1     4.629866436820   135.97209175   119.33511535
 C     43  41  15     2.559561325344   106.26758155     0.30894352
 C     15  14  13     2.584127074516   171.87382904   332.35056460
 C     42   2   1     2.611386828803    32.59078432   257.87554544
 C      9   2   1     2.655043698059   126.98745415   168.90025635
 N     42   2   1     2.556355970587   113.57249190   147.07170454
 H      1   2   3     2.046347426079   136.57084379   221.48825627
 H      2   1   3     2.040730117440   121.87313850   208.48142645
 H      4   3   1     2.047075872404   121.04009918   179.53869373
 H      5   4   3     2.044812914717   122.83428954   179.44099188
 H      6   5   4     2.063831848161   104.41193211   100.04583328
 H      6   5   4     2.060880427723    84.63848679   209.50458668
 H      6   5   4     2.059441713112   133.83778277   322.30784656
 H      7   2  54     2.040541119952   126.66122480     1.30600390
 H     10   1   2     2.048938120569   118.78364112   235.04352391
 H     12   9   2     1.920524309565   125.29023241   180.00180175
 H     14  13  12     1.917952867083    44.97226959   359.42596618
 H     18  14  13     2.046330847636   128.03556573   234.20482432
 H     19  17  13     2.042592906181   126.41830519   178.11313280
 H     21  20  18     2.047649722989   121.05669627   180.67006309
 H     22  21  20     2.045596898814   122.73097286   180.59748951
 H     23  18  14     2.063779938267   103.92715769   234.93429879
 H     23  18  14     2.057669673245   134.19244188    12.25587044
 H     23  18  14     2.059486796529    84.85857450   125.45241208
 H     24  19  17     2.041046823986   127.28078426   178.44613241
 H     26  18  14     2.047344503340   118.76995697   244.94906660
 H     30  14  13     2.046012340948   127.99711412   279.66882698
 H     31  29  14     2.040450114918   125.22293469   180.92530585
 H     33  32  30     2.046930203877   121.01964473   180.74284758
 H     34  33  32     2.045617847496   122.70821597   180.59516895
 H     35  34  33     2.064814429233   105.73575241    97.19771933
 H     35  34  33     2.058786158072    84.05943581   206.43036958
 H     35  34  33     2.058418400901   133.08365142   318.50306270
 H     36  31  29     2.039845353366   126.61599965   178.98859863
 H     38  30  73     2.047975821711   118.77264435   359.90091293
 H     42   2   1     2.045020725966   119.31790784     3.70323499
 H     43  41  15     2.041436952892   126.36969097   182.06329380
 H     45  44  42     2.047097678177   121.10105945   179.58025624
 H     46  45  44     2.045051284662   122.72144639   179.46906377
 H     47  42   2     2.062723288131   106.65128841   315.16475048
 H     47  42   2     2.057569012371   132.46019523    94.52397119
 H     47  42   2     2.058915377895    83.63838232   206.04504406
 H     48  43  41     2.041664347903   127.23657387   181.62955349
 H     50  42   2     2.046925842384   118.77001737    94.71359229

---------------------
BASIS SET INFORMATION
---------------------
There are 3 groups of distinct atoms

 Group   1 Type C   : 17s4p1d contracted to 3s2p1d pattern {881/31/1}
 Group   2 Type N   : 17s4p1d contracted to 3s2p1d pattern {881/31/1}
 Group   3 Type H   : 4s1p contracted to 2s1p pattern {31/1}

Atom   0C    basis set group =>   1
Atom   1N    basis set group =>   2
Atom   2C    basis set group =>   1
Atom   3N    basis set group =>   2
Atom   4C    basis set group =>   1
Atom   5N    basis set group =>   2
Atom   6C    basis set group =>   1
Atom   7N    basis set group =>   2
Atom   8C    basis set group =>   1
Atom   9N    basis set group =>   2
Atom  10C    basis set group =>   1
Atom  11N    basis set group =>   2
Atom  12C    basis set group =>   1
Atom  13N    basis set group =>   2
Atom  14C    basis set group =>   1
Atom  15N    basis set group =>   2
Atom  16C    basis set group =>   1
Atom  17C    basis set group =>   1
Atom  18C    basis set group =>   1
Atom  19C    basis set group =>   1
Atom  20C    basis set group =>   1
Atom  21C    basis set group =>   1
Atom  22C    basis set group =>   1
Atom  23C    basis set group =>   1
Atom  24C    basis set group =>   1
Atom  25C    basis set group =>   1
Atom  26C    basis set group =>   1
Atom  27C    basis set group =>   1
Atom  28C    basis set group =>   1
Atom  29C    basis set group =>   1
Atom  30C    basis set group =>   1
Atom  31C    basis set group =>   1
Atom  32C    basis set group =>   1
Atom  33C    basis set group =>   1
Atom  34C    basis set group =>   1
Atom  35C    basis set group =>   1
Atom  36C    basis set group =>   1
Atom  37C    basis set group =>   1
Atom  38C    basis set group =>   1
Atom  39C    basis set group =>   1
Atom  40C    basis set group =>   1
Atom  41C    basis set group =>   1
Atom  42C    basis set group =>   1
Atom  43C    basis set group =>   1
Atom  44C    basis set group =>   1
Atom  45C    basis set group =>   1
Atom  46C    basis set group =>   1
Atom  47C    basis set group =>   1
Atom  48C    basis set group =>   1
Atom  49C    basis set group =>   1
Atom  50C    basis set group =>   1
Atom  51C    basis set group =>   1
Atom  52H    basis set group =>   3
Atom  53H    basis set group =>   3
Atom  54H    basis set group =>   3
Atom  55H    basis set group =>   3
Atom  56H    basis set group =>   3
Atom  57H    basis set group =>   3
Atom  58H    basis set group =>   3
Atom  59H    basis set group =>   3
Atom  60H    basis set group =>   3
Atom  61H    basis set group =>   3
Atom  62H    basis set group =>   3
Atom  63H    basis set group =>   3
Atom  64H    basis set group =>   3
Atom  65H    basis set group =>   3
Atom  66H    basis set group =>   3
Atom  67H    basis set group =>   3
Atom  68H    basis set group =>   3
Atom  69H    basis set group =>   3
Atom  70H    basis set group =>   3
Atom  71H    basis set group =>   3
Atom  72H    basis set group =>   3
Atom  73H    basis set group =>   3
Atom  74H    basis set group =>   3
Atom  75H    basis set group =>   3
Atom  76H    basis set group =>   3
Atom  77H    basis set group =>   3
Atom  78H    basis set group =>   3
Atom  79H    basis set group =>   3
Atom  80H    basis set group =>   3
Atom  81H    basis set group =>   3
Atom  82H    basis set group =>   3
Atom  83H    basis set group =>   3
Atom  84H    basis set group =>   3
Atom  85H    basis set group =>   3
Atom  86H    basis set group =>   3
Atom  87H    basis set group =>   3
Atom  88H    basis set group =>   3
Atom  89H    basis set group =>   3


           ************************************************************
           *        Program running with 16 parallel MPI-processes    *
           *              working on a common directory               *
           ************************************************************
------------------------------------------------------------------------------
                           ORCA GTO INTEGRAL CALCULATION
------------------------------------------------------------------------------
------------------------------------------------------------------------------
                   ___                                                        
                  /   \      - P O W E R E D   B Y -                         
                 /     \                                                     
                 |  |  |   _    _      __       _____    __    __             
                 |  |  |  | |  | |    /  \     |  _  \  |  |  /  |          
                  \  \/   | |  | |   /    \    | | | |  |  | /  /          
                 / \  \   | |__| |  /  /\  \   | |_| |  |  |/  /          
                |  |  |   |  __  | /  /__\  \  |    /   |      \           
                |  |  |   | |  | | |   __   |  |    \   |  |\   \          
                \     /   | |  | | |  |  |  |  | |\  \  |  | \   \       
                 \___/    |_|  |_| |__|  |__|  |_| \__\ |__|  \__/        
                                                                              
                      - O R C A' S   B I G   F R I E N D -                    
                                      &                                       
                       - I N T E G R A L  F E E D E R -                       
                                                                              
 v1 FN, 2020, v2 2021                                                         
------------------------------------------------------------------------------


Reading SHARK input file /scratch/allen/tmpyp4_amber_gaff2/conf1/conf1/Conf110.orca.SHARKINP.tmp ... ok
----------------------
SHARK INTEGRAL PACKAGE
----------------------

Number of atoms                             ...     90
Number of basis functions                   ...   1230
Number of shells                            ...    738
Maximum angular momentum                    ...      2
Integral batch strategy                     ... SHARK/LIBINT Hybrid
RI-J (if used) integral strategy            ... SPLIT-RIJ (Revised 2003 algorithm where possible)
Printlevel                                  ...      1
Contraction scheme used                     ... PARTIAL GENERAL contraction
Coulomb Range Separation                    ... NOT USED
Exchange Range Separation                   ... NOT USED
Finite Nucleus Model                        ... NOT USED
Auxiliary Coulomb fitting basis             ... NOT available
Auxiliary J/K fitting basis                 ... NOT available
Auxiliary Correlation fitting basis         ... NOT available
Auxiliary 'external' fitting basis          ... NOT available
Integral threshold                          ...     2.500000e-11
Primitive cut-off                           ...     2.500000e-12
Primitive pair pre-selection threshold      ...     2.500000e-12

Calculating pre-screening integrals         ... done (  0.1 sec) Dimension = 738
Calculating pre-screening integrals (ORCA)  ... done (  0.3 sec) Dimension = 426
Organizing shell pair data                  ... done (  0.5 sec)
Shell pair information
Total number of shell pairs                 ...    272691
Shell pairs after pre-screening             ...     71571
Total number of primitive shell pairs       ...    422091
Primitive shell pairs kept                  ...     92333
          la=0 lb=0:  29402 shell pairs
          la=1 lb=0:  25952 shell pairs
          la=1 lb=1:   4684 shell pairs
          la=2 lb=0:   7877 shell pairs
          la=2 lb=1:   3125 shell pairs
          la=2 lb=2:    531 shell pairs

Calculating one electron integrals          ... done (  0.2 sec)
Calculating Nuclear repulsion               ... done (  0.0 sec) ENN=   6222.905823653704 Eh

SHARK setup successfully completed in   1.7 seconds

Maximum memory used throughout the entire GTOINT-calculation: 98.9 MB


           ************************************************************
           *        Program running with 16 parallel MPI-processes    *
           *              working on a common directory               *
           ************************************************************
-------------------------------------------------------------------------------
                                 ORCA SCF
-------------------------------------------------------------------------------

------------
SCF SETTINGS
------------
Hamiltonian:
 Ab initio Hamiltonian  Method          .... Hartree-Fock(GTOs)


General Settings:
 Integral files         IntName         .... /scratch/allen/tmpyp4_amber_gaff2/conf1/conf1/Conf110.orca
 Hartree-Fock type      HFTyp           .... RHF
 Total Charge           Charge          ....    0
 Multiplicity           Mult            ....    1
 Number of Electrons    NEL             ....  358
 Basis Dimension        Dim             ....  918
 Nuclear Repulsion      ENuc            ....   6222.9058236537 Eh

Convergence Acceleration:
 DIIS                   CNVDIIS         .... on
   Start iteration      DIISMaxIt       ....    12
   Startup error        DIISStart       ....  0.200000
   # of expansion vecs  DIISMaxEq       ....     5
   Bias factor          DIISBfac        ....   1.050
   Max. coefficient     DIISMaxC        ....  10.000
 Trust-Rad. Augm. Hess. CNVTRAH         .... auto
   Auto Start mean grad. ratio tolernc. ....  1.125000
   Auto Start start iteration           ....    20
   Auto Start num. interpolation iter.  ....    10
   Max. Number of Micro iterations      ....    16
   Max. Number of Macro iterations      .... Maxiter - #DIIS iter
   Number of Davidson start vectors     ....     2
   Converg. threshold I  (grad. norm)   ....   1.000e-05
   Converg. threshold II (energy diff.) ....   1.000e-08
   Grad. Scal. Fac. for Micro threshold ....   0.100
   Minimum threshold for Micro iter.    ....   0.010
   NR start threshold (gradient norm)   ....   0.001
   Initial trust radius                 ....   0.400
   Minimum AH scaling param. (alpha)    ....   1.000
   Maximum AH scaling param. (alpha)    .... 1000.000
   Orbital update algorithm             .... Taylor
   White noise on init. David. guess    .... on
   Maximum white noise                  ....   0.010
   Quad. conv. algorithm                .... NR
 SOSCF                  CNVSOSCF        .... on
   Start iteration      SOSCFMaxIt      ....   150
   Startup grad/error   SOSCFStart      ....  0.003300
 Level Shifting         CNVShift        .... on
   Level shift para.    LevelShift      ....    0.2500
   Turn off err/grad.   ShiftErr        ....    0.0010
 Zerner damping         CNVZerner       .... off
 Static damping         CNVDamp         .... on
   Fraction old density DampFac         ....    0.7000
   Max. Damping (<1)    DampMax         ....    0.9800
   Min. Damping (>=0)   DampMin         ....    0.0000
   Turn off err/grad.   DampErr         ....    0.1000
 Fernandez-Rico         CNVRico         .... off

SCF Procedure:
 Maximum # iterations   MaxIter         ....   125
 SCF integral mode      SCFMode         .... Direct
   Integral package                     .... SHARK and LIBINT hybrid scheme
 Reset frequency        DirectResetFreq ....    20
 Integral Threshold     Thresh          ....  2.500e-11 Eh
 Primitive CutOff       TCut            ....  2.500e-12 Eh

Convergence Tolerance:
 Convergence Check Mode ConvCheckMode   .... Total+1el-Energy
 Convergence forced     ConvForced      .... 1
 Energy Change          TolE            ....  1.000e-08 Eh
 1-El. energy change                    ....  1.000e-05 Eh
 Orbital Gradient       TolG            ....  1.000e-05
 Orbital Rotation angle TolX            ....  1.000e-05
 DIIS Error             TolErr          ....  5.000e-07


Diagonalization of the overlap matrix:
Smallest eigenvalue                        ... 2.261e-04
Time for diagonalization                   ...    0.395 sec
Threshold for overlap eigenvalues          ... 1.000e-08
Number of eigenvalues below threshold      ... 0
Time for construction of square roots      ...    0.196 sec
Total time needed                          ...    0.605 sec

Time for model grid setup =    1.009 sec

------------------------------
INITIAL GUESS: MODEL POTENTIAL
------------------------------
Loading Hartree-Fock densities                     ... done
Calculating cut-offs                               ... done
Initializing the effective Hamiltonian             ... done
Setting up the integral package (SHARK)            ... done
Starting the Coulomb interaction                   ... done (   1.1 sec)
Reading the grid                                   ... done
Mapping shells                                     ... done
Starting the XC term evaluation                    ... done (   0.2 sec)
Transforming the Hamiltonian                       ... done (   0.2 sec)
Diagonalizing the Hamiltonian                      ... done (   0.3 sec)
Back transforming the eigenvectors                 ... done (   0.1 sec)
Now organizing SCF variables                       ... done
                      ------------------
                      INITIAL GUESS DONE (   3.0 sec)
                      ------------------
--------------
SCF ITERATIONS
--------------
ITER       Energy         Delta-E        Max-DP      RMS-DP      [F,P]     Damp
               ***  Starting incremental Fock matrix formation  ***
  0  -2121.6568571615   0.000000000000 0.06921549  0.00121072  0.2340712 0.7000
  1  -2122.3250199303  -0.668162768729 0.05256473  0.00098137  0.1447517 0.7000
                               ***Turning on DIIS***
  2  -2122.7402314042  -0.415211473935 0.11664529  0.00222069  0.0804185 0.0000
  3  -2117.6912053374   5.049026066852 0.03266139  0.00068642  0.0444372 0.0000
  4  -2123.4032878817  -5.712082544389 0.00888277  0.00022953  0.0070440 0.0000
  5  -2123.5858110324  -0.182523150672 0.00512900  0.00013676  0.0049824 0.0000
  6  -2123.5678488601   0.017962172320 0.00342778  0.00009050  0.0020611 0.0000
  7  -2123.6735705091  -0.105721649030 0.00294572  0.00007334  0.0015567 0.0000
  8  -2123.6984571460  -0.024886636886 0.00282463  0.00007138  0.0014445 0.0000
  9  -2123.6594132877   0.039043858353 0.00236813  0.00005012  0.0011255 0.0000
 10  -2123.6789655823  -0.019552294632 0.00545884  0.00010628  0.0008448 0.0000
                      *** Initiating the SOSCF procedure ***
                           *** Shutting down DIIS ***
                      *** Re-Reading the Fockian *** 
                      *** Removing any level shift *** 
ITER      Energy       Delta-E        Grad      Rot      Max-DP    RMS-DP
 11  -2123.53669031   0.1422752741  0.000306  0.000306  0.000279  0.000007
               *** Restarting incremental Fock matrix formation ***
 12  -2123.61768261  -0.0809923038  0.000992  0.006863  0.001252  0.000033
 13  -2123.61777930  -0.0000966897  0.001136  0.028791  0.005622  0.000111
 14  -2123.61791180  -0.0001324942  0.000431  0.001981  0.000589  0.000013
 15  -2123.61792923  -0.0000174379  0.000321  0.006178  0.000913  0.000023
 16  -2123.61794246  -0.0000132226  0.000169  0.006529  0.001124  0.000024
 17  -2123.61795294  -0.0000104810  0.000280  0.009223  0.001107  0.000029
 18  -2123.61796216  -0.0000092246  0.000170  0.008524  0.001003  0.000026
 19  -2123.61796891  -0.0000067460  0.000174  0.003491  0.000538  0.000011
 20  -2123.61797123  -0.0000023197  0.000073  0.001385  0.000299  0.000006
 21  -2123.61797207  -0.0000008390  0.000070  0.000603  0.000152  0.000003
 22  -2123.61797261  -0.0000005459  0.000039  0.000766  0.000209  0.000003
 23  -2123.61797297  -0.0000003565  0.000032  0.000992  0.000179  0.000003
 24  -2123.61797314  -0.0000001677  0.000015  0.000573  0.000093  0.000002
 25  -2123.61797321  -0.0000000775  0.000016  0.000337  0.000068  0.000001
 26  -2123.61797327  -0.0000000520  0.000014  0.000364  0.000053  0.000001
 27  -2123.61797329  -0.0000000270  0.000009  0.000336  0.000043  0.000001
 28  -2123.61797331  -0.0000000176  0.000006  0.000233  0.000031  0.000001
 29  -2123.61797332  -0.0000000125  0.000004  0.000082  0.000016  0.000000
                  ***Gradient check signals convergence***
              ***Rediagonalizing the Fockian in SOSCF/NRSCF***

               *****************************************************
               *                     SUCCESS                       *
               *           SCF CONVERGED AFTER  30 CYCLES          *
               *****************************************************


----------------
TOTAL SCF ENERGY
----------------

Total Energy       :        -2123.61797333 Eh          -57786.58287 eV

Components:
Nuclear Repulsion  :         6222.90582365 Eh          169333.87623 eV
Electronic Energy  :        -8346.52379698 Eh         -227120.45910 eV
One Electron Energy:       -15287.18931603 Eh         -415985.56959 eV
Two Electron Energy:         6940.66551905 Eh          188865.11049 eV

Virial components:
Potential Energy   :        -4245.59657520 Eh         -115528.55617 eV
Kinetic Energy     :         2121.97860187 Eh           57741.97330 eV
Virial Ratio       :            2.00077257


---------------
SCF CONVERGENCE
---------------

  Last Energy change         ...   -2.1391e-09  Tolerance :   1.0000e-08
  Last MAX-Density change    ...    7.0529e-06  Tolerance :   1.0000e-07
  Last RMS-Density change    ...    1.7284e-07  Tolerance :   5.0000e-09
  Last Orbital Gradient      ...    2.1303e-06  Tolerance :   1.0000e-05
  Last Orbital Rotation      ...    4.2511e-05  Tolerance :   1.0000e-05

             **** THE GBW FILE WAS UPDATED (/scratch/allen/tmpyp4_amber_gaff2/conf1/conf1/Conf110.orca.gbw) ****
             **** DENSITY /scratch/allen/tmpyp4_amber_gaff2/conf1/conf1/Conf110.orca.scfp WAS UPDATED ****
             **** ENERGY FILE WAS UPDATED (/scratch/allen/tmpyp4_amber_gaff2/conf1/conf1/Conf110.orca.en.tmp) ****
             **** THE GBW FILE WAS UPDATED (/scratch/allen/tmpyp4_amber_gaff2/conf1/conf1/Conf110.orca.gbw) ****
             **** DENSITY /scratch/allen/tmpyp4_amber_gaff2/conf1/conf1/Conf110.orca.scfp WAS UPDATED ****
----------------
ORBITAL ENERGIES
----------------

  NO   OCC          E(Eh)            E(eV) 
   0   2.0000     -15.659812      -426.1252 
   1   2.0000     -15.638760      -425.5523 
   2   2.0000     -15.626009      -425.2053 
   3   2.0000     -15.611812      -424.8190 
   4   2.0000     -15.516693      -422.2307 
   5   2.0000     -15.512860      -422.1264 
   6   2.0000     -15.446676      -420.3254 
   7   2.0000     -15.436425      -420.0465 
   8   2.0000     -11.315122      -307.9001 
   9   2.0000     -11.311290      -307.7959 
  10   2.0000     -11.310121      -307.7640 
  11   2.0000     -11.302306      -307.5514 
  12   2.0000     -11.295864      -307.3761 
  13   2.0000     -11.294137      -307.3291 
  14   2.0000     -11.292055      -307.2724 
  15   2.0000     -11.285516      -307.0945 
  16   2.0000     -11.284846      -307.0763 
  17   2.0000     -11.281101      -306.9744 
  18   2.0000     -11.272989      -306.7536 
  19   2.0000     -11.269727      -306.6649 
  20   2.0000     -11.260846      -306.4232 
  21   2.0000     -11.248147      -306.0776 
  22   2.0000     -11.247952      -306.0723 
  23   2.0000     -11.242061      -305.9120 
  24   2.0000     -11.233852      -305.6887 
  25   2.0000     -11.233076      -305.6675 
  26   2.0000     -11.230159      -305.5882 
  27   2.0000     -11.224151      -305.4247 
  28   2.0000     -11.224028      -305.4213 
  29   2.0000     -11.217427      -305.2417 
  30   2.0000     -11.214292      -305.1564 
  31   2.0000     -11.213470      -305.1340 
  32   2.0000     -11.199630      -304.7574 
  33   2.0000     -11.199549      -304.7552 
  34   2.0000     -11.192006      -304.5500 
  35   2.0000     -11.191893      -304.5469 
  36   2.0000     -11.179683      -304.2146 
  37   2.0000     -11.179659      -304.2140 
  38   2.0000     -11.176646      -304.1320 
  39   2.0000     -11.169816      -303.9462 
  40   2.0000     -11.163690      -303.7795 
  41   2.0000     -11.161554      -303.7213 
  42   2.0000     -11.159575      -303.6675 
  43   2.0000     -11.159233      -303.6582 
  44   2.0000     -11.157023      -303.5980 
  45   2.0000     -11.156574      -303.5858 
  46   2.0000     -11.152296      -303.4694 
  47   2.0000     -11.152252      -303.4682 
  48   2.0000     -11.149572      -303.3953 
  49   2.0000     -11.147473      -303.3382 
  50   2.0000     -11.130718      -302.8822 
  51   2.0000     -11.128657      -302.8262 
  52   2.0000      -1.342468       -36.5304 
  53   2.0000      -1.325295       -36.0631 
  54   2.0000      -1.314036       -35.7567 
  55   2.0000      -1.302200       -35.4347 
  56   2.0000      -1.216588       -33.1050 
  57   2.0000      -1.210125       -32.9292 
  58   2.0000      -1.165796       -31.7229 
  59   2.0000      -1.149142       -31.2697 
  60   2.0000      -1.127366       -30.6772 
  61   2.0000      -1.112868       -30.2827 
  62   2.0000      -1.103364       -30.0241 
  63   2.0000      -1.092481       -29.7279 
  64   2.0000      -1.065241       -28.9867 
  65   2.0000      -1.049075       -28.5468 
  66   2.0000      -1.038589       -28.2614 
  67   2.0000      -1.029723       -28.0202 
  68   2.0000      -1.027692       -27.9649 
  69   2.0000      -1.012949       -27.5637 
  70   2.0000      -1.006267       -27.3819 
  71   2.0000      -0.993876       -27.0447 
  72   2.0000      -0.981329       -26.7033 
  73   2.0000      -0.974326       -26.5128 
  74   2.0000      -0.971405       -26.4333 
  75   2.0000      -0.960438       -26.1348 
  76   2.0000      -0.948688       -25.8151 
  77   2.0000      -0.948200       -25.8018 
  78   2.0000      -0.931449       -25.3460 
  79   2.0000      -0.921526       -25.0760 
  80   2.0000      -0.894097       -24.3296 
  81   2.0000      -0.887419       -24.1479 
  82   2.0000      -0.875847       -23.8330 
  83   2.0000      -0.865876       -23.5617 
  84   2.0000      -0.861671       -23.4473 
  85   2.0000      -0.856355       -23.3026 
  86   2.0000      -0.851205       -23.1625 
  87   2.0000      -0.836240       -22.7552 
  88   2.0000      -0.822291       -22.3757 
  89   2.0000      -0.796976       -21.6868 
  90   2.0000      -0.795522       -21.6472 
  91   2.0000      -0.741780       -20.1849 
  92   2.0000      -0.732377       -19.9290 
  93   2.0000      -0.726865       -19.7790 
  94   2.0000      -0.722862       -19.6701 
  95   2.0000      -0.716127       -19.4868 
  96   2.0000      -0.710045       -19.3213 
  97   2.0000      -0.705645       -19.2016 
  98   2.0000      -0.699574       -19.0364 
  99   2.0000      -0.692596       -18.8465 
 100   2.0000      -0.690900       -18.8003 
 101   2.0000      -0.682191       -18.5633 
 102   2.0000      -0.679619       -18.4934 
 103   2.0000      -0.672112       -18.2891 
 104   2.0000      -0.670760       -18.2523 
 105   2.0000      -0.668848       -18.2003 
 106   2.0000      -0.662580       -18.0297 
 107   2.0000      -0.660446       -17.9716 
 108   2.0000      -0.656936       -17.8761 
 109   2.0000      -0.656089       -17.8531 
 110   2.0000      -0.650352       -17.6970 
 111   2.0000      -0.647562       -17.6210 
 112   2.0000      -0.643718       -17.5164 
 113   2.0000      -0.637962       -17.3598 
 114   2.0000      -0.632786       -17.2190 
 115   2.0000      -0.630659       -17.1611 
 116   2.0000      -0.622878       -16.9494 
 117   2.0000      -0.616207       -16.7679 
 118   2.0000      -0.613471       -16.6934 
 119   2.0000      -0.608169       -16.5491 
 120   2.0000      -0.606204       -16.4957 
 121   2.0000      -0.598776       -16.2935 
 122   2.0000      -0.597754       -16.2657 
 123   2.0000      -0.595843       -16.2137 
 124   2.0000      -0.592210       -16.1149 
 125   2.0000      -0.584556       -15.9066 
 126   2.0000      -0.576338       -15.6829 
 127   2.0000      -0.570850       -15.5336 
 128   2.0000      -0.567393       -15.4395 
 129   2.0000      -0.562823       -15.3152 
 130   2.0000      -0.555494       -15.1158 
 131   2.0000      -0.548253       -14.9187 
 132   2.0000      -0.540257       -14.7011 
 133   2.0000      -0.534194       -14.5362 
 134   2.0000      -0.531846       -14.4723 
 135   2.0000      -0.530821       -14.4444 
 136   2.0000      -0.524812       -14.2809 
 137   2.0000      -0.521877       -14.2010 
 138   2.0000      -0.518679       -14.1140 
 139   2.0000      -0.514541       -14.0014 
 140   2.0000      -0.509057       -13.8521 
 141   2.0000      -0.505983       -13.7685 
 142   2.0000      -0.502277       -13.6677 
 143   2.0000      -0.499389       -13.5891 
 144   2.0000      -0.498717       -13.5708 
 145   2.0000      -0.496131       -13.5004 
 146   2.0000      -0.493427       -13.4268 
 147   2.0000      -0.492047       -13.3893 
 148   2.0000      -0.486762       -13.2455 
 149   2.0000      -0.466084       -12.6828 
 150   2.0000      -0.460837       -12.5400 
 151   2.0000      -0.453122       -12.3301 
 152   2.0000      -0.448105       -12.1936 
 153   2.0000      -0.442948       -12.0532 
 154   2.0000      -0.441152       -12.0044 
 155   2.0000      -0.440220       -11.9790 
 156   2.0000      -0.431818       -11.7504 
 157   2.0000      -0.424761       -11.5583 
 158   2.0000      -0.392588       -10.6829 
 159   2.0000      -0.385123       -10.4797 
 160   2.0000      -0.374153       -10.1812 
 161   2.0000      -0.372791       -10.1442 
 162   2.0000      -0.367275        -9.9941 
 163   2.0000      -0.359478        -9.7819 
 164   2.0000      -0.350501        -9.5376 
 165   2.0000      -0.341449        -9.2913 
 166   2.0000      -0.338277        -9.2050 
 167   2.0000      -0.334924        -9.1137 
 168   2.0000      -0.322346        -8.7715 
 169   2.0000      -0.299855        -8.1595 
 170   2.0000      -0.294578        -8.0159 
 171   2.0000      -0.287287        -7.8175 
 172   2.0000      -0.285716        -7.7747 
 173   2.0000      -0.258487        -7.0338 
 174   2.0000      -0.241245        -6.5646 
 175   2.0000      -0.186122        -5.0646 
 176   2.0000      -0.175784        -4.7833 
 177   2.0000      -0.062958        -1.7132 
 178   2.0000      -0.052566        -1.4304 
 179   0.0000       0.032984         0.8975 
 180   0.0000       0.067078         1.8253 
 181   0.0000       0.092232         2.5098 
 182   0.0000       0.095885         2.6092 
 183   0.0000       0.120702         3.2845 
 184   0.0000       0.134631         3.6635 
 185   0.0000       0.144092         3.9210 
 186   0.0000       0.152144         4.1400 
 187   0.0000       0.154028         4.1913 
 188   0.0000       0.161958         4.4071 
 189   0.0000       0.162652         4.4260 
 190   0.0000       0.169526         4.6130 
 191   0.0000       0.176829         4.8118 
 192   0.0000       0.191461         5.2099 
 193   0.0000       0.195340         5.3155 
 194   0.0000       0.201820         5.4918 
 195   0.0000       0.206576         5.6212 
 196   0.0000       0.209453         5.6995 
 197   0.0000       0.213264         5.8032 
 198   0.0000       0.217203         5.9104 
 199   0.0000       0.220428         5.9981 
 200   0.0000       0.227289         6.1849 
 201   0.0000       0.237178         6.4539 
 202   0.0000       0.243588         6.6284 
 203   0.0000       0.244748         6.6599 
 204   0.0000       0.250441         6.8149 
 205   0.0000       0.252816         6.8795 
 206   0.0000       0.255157         6.9432 
 207   0.0000       0.261165         7.1067 
 208   0.0000       0.263457         7.1690 
 209   0.0000       0.264929         7.2091 
 210   0.0000       0.265813         7.2331 
 211   0.0000       0.268902         7.3172 
 212   0.0000       0.271316         7.3829 
 213   0.0000       0.273899         7.4532 
 214   0.0000       0.276165         7.5148 
 215   0.0000       0.279474         7.6049 
 216   0.0000       0.280736         7.6392 
 217   0.0000       0.283215         7.7067 
 218   0.0000       0.284069         7.7299 
 219   0.0000       0.287944         7.8353 
 220   0.0000       0.289591         7.8802 
 221   0.0000       0.292232         7.9520 
 222   0.0000       0.294261         8.0072 
 223   0.0000       0.295910         8.0521 
 224   0.0000       0.298688         8.1277 
 225   0.0000       0.301993         8.2177 
 226   0.0000       0.302999         8.2450 
 227   0.0000       0.305818         8.3217 
 228   0.0000       0.307946         8.3796 
 229   0.0000       0.310989         8.4624 
 230   0.0000       0.315241         8.5781 
 231   0.0000       0.318156         8.6575 
 232   0.0000       0.324855         8.8397 
 233   0.0000       0.327987         8.9250 
 234   0.0000       0.332515         9.0482 
 235   0.0000       0.341887         9.3032 
 236   0.0000       0.357871         9.7382 
 237   0.0000       0.378392        10.2966 
 238   0.0000       0.396791        10.7972 
 239   0.0000       0.399253        10.8642 
 240   0.0000       0.403541        10.9809 
 241   0.0000       0.412368        11.2211 
 242   0.0000       0.417150        11.3512 
 243   0.0000       0.422620        11.5001 
 244   0.0000       0.425047        11.5661 
 245   0.0000       0.431422        11.7396 
 246   0.0000       0.433620        11.7994 
 247   0.0000       0.437935        11.9168 
 248   0.0000       0.442549        12.0424 
 249   0.0000       0.446072        12.1382 
 250   0.0000       0.448233        12.1970 
 251   0.0000       0.454257        12.3610 
 252   0.0000       0.455828        12.4037 
 253   0.0000       0.459240        12.4965 
 254   0.0000       0.469782        12.7834 
 255   0.0000       0.477085        12.9822 
 256   0.0000       0.484071        13.1722 
 257   0.0000       0.486626        13.2418 
 258   0.0000       0.490855        13.3569 
 259   0.0000       0.492282        13.3957 
 260   0.0000       0.499127        13.5819 
 261   0.0000       0.503258        13.6943 
 262   0.0000       0.506577        13.7847 
 263   0.0000       0.510451        13.8901 
 264   0.0000       0.511809        13.9270 
 265   0.0000       0.516331        14.0501 
 266   0.0000       0.519486        14.1359 
 267   0.0000       0.523467        14.2443 
 268   0.0000       0.534933        14.5563 
 269   0.0000       0.538394        14.6504 
 270   0.0000       0.543253        14.7827 
 271   0.0000       0.543492        14.7892 
 272   0.0000       0.545532        14.8447 
 273   0.0000       0.552426        15.0323 
 274   0.0000       0.562901        15.3173 
 275   0.0000       0.564818        15.3695 
 276   0.0000       0.576160        15.6781 
 277   0.0000       0.576458        15.6862 
 278   0.0000       0.577154        15.7052 
 279   0.0000       0.580639        15.8000 
 280   0.0000       0.586608        15.9624 
 281   0.0000       0.590472        16.0675 
 282   0.0000       0.593149        16.1404 
 283   0.0000       0.597162        16.2496 
 284   0.0000       0.601056        16.3556 
 285   0.0000       0.601256        16.3610 
 286   0.0000       0.606619        16.5070 
 287   0.0000       0.610397        16.6097 
 288   0.0000       0.612655        16.6712 
 289   0.0000       0.616341        16.7715 
 290   0.0000       0.619235        16.8502 
 291   0.0000       0.628324        17.0976 
 292   0.0000       0.632814        17.2198 
 293   0.0000       0.638275        17.3684 
 294   0.0000       0.645624        17.5683 
 295   0.0000       0.650266        17.6946 
 296   0.0000       0.651219        17.7206 
 297   0.0000       0.660267        17.9668 
 298   0.0000       0.663941        18.0668 
 299   0.0000       0.666579        18.1385 
 300   0.0000       0.668327        18.1861 
 301   0.0000       0.674178        18.3453 
 302   0.0000       0.675219        18.3736 
 303   0.0000       0.682397        18.5690 
 304   0.0000       0.684087        18.6150 
 305   0.0000       0.684913        18.6374 
 306   0.0000       0.687471        18.7070 
 307   0.0000       0.689804        18.7705 
 308   0.0000       0.696282        18.9468 
 309   0.0000       0.699420        19.0322 
 310   0.0000       0.700198        19.0534 
 311   0.0000       0.704154        19.1610 
 312   0.0000       0.708486        19.2789 
 313   0.0000       0.709712        19.3123 
 314   0.0000       0.710285        19.3278 
 315   0.0000       0.713676        19.4201 
 316   0.0000       0.718323        19.5466 
 317   0.0000       0.719162        19.5694 
 318   0.0000       0.719846        19.5880 
 319   0.0000       0.722614        19.6633 
 320   0.0000       0.726016        19.7559 
 321   0.0000       0.727442        19.7947 
 322   0.0000       0.732810        19.9408 
 323   0.0000       0.733182        19.9509 
 324   0.0000       0.736675        20.0459 
 325   0.0000       0.739270        20.1166 
 326   0.0000       0.741699        20.1826 
 327   0.0000       0.742135        20.1945 
 328   0.0000       0.747130        20.3305 
 329   0.0000       0.750252        20.4154 
 330   0.0000       0.753742        20.5104 
 331   0.0000       0.755785        20.5660 
 332   0.0000       0.757355        20.6087 
 333   0.0000       0.759802        20.6753 
 334   0.0000       0.766467        20.8566 
 335   0.0000       0.769327        20.9345 
 336   0.0000       0.773593        21.0505 
 337   0.0000       0.778349        21.1799 
 338   0.0000       0.784065        21.3355 
 339   0.0000       0.786636        21.4054 
 340   0.0000       0.790307        21.5053 
 341   0.0000       0.792509        21.5653 
 342   0.0000       0.795515        21.6471 
 343   0.0000       0.798581        21.7305 
 344   0.0000       0.804212        21.8837 
 345   0.0000       0.807175        21.9643 
 346   0.0000       0.808146        21.9908 
 347   0.0000       0.811427        22.0801 
 348   0.0000       0.815016        22.1777 
 349   0.0000       0.816790        22.2260 
 350   0.0000       0.819868        22.3097 
 351   0.0000       0.820251        22.3202 
 352   0.0000       0.825963        22.4756 
 353   0.0000       0.826877        22.5005 
 354   0.0000       0.827457        22.5163 
 355   0.0000       0.829401        22.5692 
 356   0.0000       0.831658        22.6306 
 357   0.0000       0.834788        22.7157 
 358   0.0000       0.836036        22.7497 
 359   0.0000       0.838874        22.8269 
 360   0.0000       0.839848        22.8534 
 361   0.0000       0.841629        22.9019 
 362   0.0000       0.844512        22.9803 
 363   0.0000       0.846785        23.0422 
 364   0.0000       0.849609        23.1190 
 365   0.0000       0.851817        23.1791 
 366   0.0000       0.853632        23.2285 
 367   0.0000       0.854490        23.2518 
 368   0.0000       0.858125        23.3508 
 369   0.0000       0.860599        23.4181 
 370   0.0000       0.863842        23.5063 
 371   0.0000       0.866205        23.5706 
 372   0.0000       0.873783        23.7768 
 373   0.0000       0.876162        23.8416 
 374   0.0000       0.879732        23.9387 
 375   0.0000       0.883895        24.0520 
 376   0.0000       0.885727        24.1019 
 377   0.0000       0.888805        24.1856 
 378   0.0000       0.890230        24.2244 
 379   0.0000       0.894649        24.3446 
 380   0.0000       0.898056        24.4374 
 381   0.0000       0.901258        24.5245 
 382   0.0000       0.903174        24.5766 
 383   0.0000       0.903958        24.5980 
 384   0.0000       0.905777        24.6474 
 385   0.0000       0.907556        24.6959 
 386   0.0000       0.908555        24.7230 
 387   0.0000       0.909541        24.7499 
 388   0.0000       0.914746        24.8915 
 389   0.0000       0.915328        24.9074 
 390   0.0000       0.918669        24.9983 
 391   0.0000       0.920553        25.0495 
 392   0.0000       0.922859        25.1123 
 393   0.0000       0.926105        25.2006 
 394   0.0000       0.926913        25.2226 
 395   0.0000       0.930493        25.3200 
 396   0.0000       0.931616        25.3506 
 397   0.0000       0.934824        25.4379 
 398   0.0000       0.936829        25.4924 
 399   0.0000       0.941925        25.6311 
 400   0.0000       0.944635        25.7048 
 401   0.0000       0.946936        25.7674 
 402   0.0000       0.949676        25.8420 
 403   0.0000       0.952758        25.9259 
 404   0.0000       0.956276        26.0216 
 405   0.0000       0.956793        26.0356 
 406   0.0000       0.959321        26.1045 
 407   0.0000       0.962008        26.1776 
 408   0.0000       0.966548        26.3011 
 409   0.0000       0.969450        26.3801 
 410   0.0000       0.975512        26.5450 
 411   0.0000       0.978138        26.6165 
 412   0.0000       0.984191        26.7812 
 413   0.0000       0.985071        26.8051 
 414   0.0000       0.992432        27.0054 
 415   0.0000       0.993234        27.0273 
 416   0.0000       1.001056        27.2401 
 417   0.0000       1.003601        27.3094 
 418   0.0000       1.009039        27.4574 
 419   0.0000       1.014479        27.6054 
 420   0.0000       1.024118        27.8677 
 421   0.0000       1.029426        28.0121 
 422   0.0000       1.031826        28.0774 
 423   0.0000       1.038088        28.2478 
 424   0.0000       1.043431        28.3932 
 425   0.0000       1.047530        28.5047 
 426   0.0000       1.056566        28.7506 
 427   0.0000       1.061779        28.8925 
 428   0.0000       1.066961        29.0335 
 429   0.0000       1.069941        29.1146 
 430   0.0000       1.078829        29.3564 
 431   0.0000       1.082343        29.4521 
 432   0.0000       1.086966        29.5778 
 433   0.0000       1.090926        29.6856 
 434   0.0000       1.096452        29.8360 
 435   0.0000       1.103056        30.0157 
 436   0.0000       1.106898        30.1202 
 437   0.0000       1.110978        30.2312 
 438   0.0000       1.114766        30.3343 
 439   0.0000       1.117383        30.4055 
 440   0.0000       1.119801        30.4713 
 441   0.0000       1.125929        30.6381 
 442   0.0000       1.127985        30.6940 
 443   0.0000       1.131241        30.7826 
 444   0.0000       1.134599        30.8740 
 445   0.0000       1.135470        30.8977 
 446   0.0000       1.137769        30.9603 
 447   0.0000       1.141423        31.0597 
 448   0.0000       1.142564        31.0907 
 449   0.0000       1.149516        31.2799 
 450   0.0000       1.152466        31.3602 
 451   0.0000       1.153891        31.3990 
 452   0.0000       1.156592        31.4725 
 453   0.0000       1.159566        31.5534 
 454   0.0000       1.160048        31.5665 
 455   0.0000       1.167077        31.7578 
 456   0.0000       1.175162        31.9778 
 457   0.0000       1.178119        32.0582 
 458   0.0000       1.178457        32.0675 
 459   0.0000       1.185216        32.2514 
 460   0.0000       1.185957        32.2715 
 461   0.0000       1.191174        32.4135 
 462   0.0000       1.199430        32.6381 
 463   0.0000       1.207706        32.8634 
 464   0.0000       1.209724        32.9183 
 465   0.0000       1.211686        32.9717 
 466   0.0000       1.214078        33.0367 
 467   0.0000       1.221375        33.2353 
 468   0.0000       1.222080        33.2545 
 469   0.0000       1.227947        33.4141 
 470   0.0000       1.230386        33.4805 
 471   0.0000       1.231844        33.5202 
 472   0.0000       1.238108        33.6906 
 473   0.0000       1.240815        33.7643 
 474   0.0000       1.243527        33.8381 
 475   0.0000       1.249800        34.0088 
 476   0.0000       1.251384        34.0519 
 477   0.0000       1.253079        34.0980 
 478   0.0000       1.255077        34.1524 
 479   0.0000       1.257416        34.2160 
 480   0.0000       1.259477        34.2721 
 481   0.0000       1.263259        34.3750 
 482   0.0000       1.265072        34.4244 
 483   0.0000       1.268119        34.5073 
 484   0.0000       1.270653        34.5762 
 485   0.0000       1.277452        34.7612 
 486   0.0000       1.280901        34.8551 
 487   0.0000       1.283536        34.9268 
 488   0.0000       1.289449        35.0877 
 489   0.0000       1.290891        35.1269 
 490   0.0000       1.293133        35.1879 
 491   0.0000       1.298645        35.3379 
 492   0.0000       1.302680        35.4477 
 493   0.0000       1.307017        35.5658 
 494   0.0000       1.309829        35.6422 
 495   0.0000       1.316054        35.8117 
 496   0.0000       1.318237        35.8711 
 497   0.0000       1.321864        35.9698 
 498   0.0000       1.330982        36.2179 
 499   0.0000       1.331247        36.2251 
 500   0.0000       1.333634        36.2900 
 501   0.0000       1.337289        36.3895 
 502   0.0000       1.340096        36.4659 
 503   0.0000       1.343500        36.5585 
 504   0.0000       1.345159        36.6036 
 505   0.0000       1.351182        36.7675 
[...]
      pz      :     0.021868  p :     0.079421
      px      :     0.043079
      py      :     0.014474
 77 H s       :     0.892325  s :     0.892325
      pz      :     0.047377  p :     0.078613
      px      :     0.015007
      py      :     0.016229
 78 H s       :     0.892748  s :     0.892748
      pz      :     0.025575  p :     0.078535
      px      :     0.020631
      py      :     0.032329
 79 H s       :     0.907978  s :     0.907978
      pz      :     0.022326  p :     0.086982
      px      :     0.021838
      py      :     0.042818
 80 H s       :     0.875283  s :     0.875283
      pz      :     0.038511  p :     0.083646
      px      :     0.029703
      py      :     0.015432
 81 H s       :     0.887626  s :     0.887626
      pz      :     0.037682  p :     0.083601
      px      :     0.016096
      py      :     0.029822
 82 H s       :     0.914779  s :     0.914779
      pz      :     0.022298  p :     0.086987
      px      :     0.031136
      py      :     0.033554
 83 H s       :     0.872208  s :     0.872208
      pz      :     0.039229  p :     0.083856
      px      :     0.015243
      py      :     0.029384
 84 H s       :     0.887649  s :     0.887649
      pz      :     0.035810  p :     0.084022
      px      :     0.031756
      py      :     0.016456
 85 H s       :     0.894542  s :     0.894542
      pz      :     0.022507  p :     0.079677
      px      :     0.014110
      py      :     0.043060
 86 H s       :     0.890588  s :     0.890588
      pz      :     0.024718  p :     0.078888
      px      :     0.033006
      py      :     0.021164
 87 H s       :     0.890487  s :     0.890487
      pz      :     0.047911  p :     0.078667
      px      :     0.015630
      py      :     0.015126
 88 H s       :     0.916318  s :     0.916318
      pz      :     0.022359  p :     0.086905
      px      :     0.042220
      py      :     0.022327
 89 H s       :     0.873180  s :     0.873180
      pz      :     0.037885  p :     0.083988
      px      :     0.030513
      py      :     0.015589


                      *****************************
                      * MAYER POPULATION ANALYSIS *
                      *****************************

  NA   - Mulliken gross atomic population
  ZA   - Total nuclear charge
  QA   - Mulliken gross atomic charge
  VA   - Mayer's total valence
  BVA  - Mayer's bonded valence
  FA   - Mayer's free valence

  ATOM       NA         ZA         QA         VA         BVA        FA
  0 C      5.7838     6.0000     0.2162     3.8184     3.8184    -0.0000
  1 N      7.4321     7.0000    -0.4321     3.4091     3.4091     0.0000
  2 C      6.0671     6.0000    -0.0671     3.9173     3.9173     0.0000
  3 N      7.3406     7.0000    -0.3406     3.4347     3.4347    -0.0000
  4 C      6.0851     6.0000    -0.0851     3.9791     3.9791     0.0000
  5 N      7.5637     7.0000    -0.5637     3.0778     3.0778     0.0000
  6 C      6.0399     6.0000    -0.0399     3.9802     3.9802    -0.0000
  7 N      7.3375     7.0000    -0.3375     3.4430     3.4430    -0.0000
  8 C      5.7860     6.0000     0.2140     3.8183     3.8183     0.0000
  9 N      7.5642     7.0000    -0.5642     3.0880     3.0880     0.0000
 10 C      5.8896     6.0000     0.1104     3.8813     3.8813    -0.0000
 11 N      7.4376     7.0000    -0.4376     3.3841     3.3841     0.0000
 12 C      6.0622     6.0000    -0.0622     3.9140     3.9140    -0.0000
 13 N      7.4447     7.0000    -0.4447     3.3528     3.3528    -0.0000
 14 C      5.7721     6.0000     0.2279     3.8023     3.8023    -0.0000
 15 N      7.4408     7.0000    -0.4408     3.3700     3.3700    -0.0000
 16 C      5.7555     6.0000     0.2445     3.7979     3.7979    -0.0000
 17 C      6.0440     6.0000    -0.0440     3.9827     3.9827     0.0000
 18 C      6.1847     6.0000    -0.1847     3.7170     3.7170    -0.0000
 19 C      5.7740     6.0000     0.2260     3.8928     3.8928    -0.0000
 20 C      5.7985     6.0000     0.2015     3.8229     3.8229    -0.0000
 21 C      6.0686     6.0000    -0.0686     3.8995     3.8995     0.0000
 22 C      6.0857     6.0000    -0.0857     3.9844     3.9844     0.0000
 23 C      6.0565     6.0000    -0.0565     3.9885     3.9885    -0.0000
 24 C      5.7870     6.0000     0.2130     3.8257     3.8257    -0.0000
 25 C      5.8862     6.0000     0.1138     3.8901     3.8901    -0.0000
 26 C      6.0719     6.0000    -0.0719     3.9036     3.9036     0.0000
 27 C      5.7666     6.0000     0.2334     3.8935     3.8935    -0.0000
 28 C      6.0463     6.0000    -0.0463     3.9883     3.9883     0.0000
 29 C      6.1901     6.0000    -0.1901     3.7300     3.7300     0.0000
 30 C      5.7708     6.0000     0.2292     3.7873     3.7873    -0.0000
 31 C      5.7990     6.0000     0.2010     3.8304     3.8304    -0.0000
 32 C      6.0653     6.0000    -0.0653     3.9154     3.9154     0.0000
 33 C      6.0910     6.0000    -0.0910     3.9859     3.9859     0.0000
 34 C      6.0498     6.0000    -0.0498     3.9955     3.9955    -0.0000
 35 C      5.8075     6.0000     0.1925     3.8275     3.8275     0.0000
 36 C      5.8829     6.0000     0.1171     3.8999     3.8999    -0.0000
 37 C      6.0681     6.0000    -0.0681     3.9166     3.9166     0.0000
 38 C      5.7594     6.0000     0.2406     3.7980     3.7980     0.0000
 39 C      6.0635     6.0000    -0.0635     3.9947     3.9947     0.0000
 40 C      6.1952     6.0000    -0.1952     3.7465     3.7465     0.0000
 41 C      5.7820     6.0000     0.2180     3.8778     3.8778     0.0000
 42 C      5.7925     6.0000     0.2075     3.8293     3.8293     0.0000
 43 C      6.0752     6.0000    -0.0752     3.9045     3.9045    -0.0000
 44 C      6.0890     6.0000    -0.0890     3.9850     3.9850    -0.0000
 45 C      6.0466     6.0000    -0.0466     3.9936     3.9936     0.0000
 46 C      5.8037     6.0000     0.1963     3.8233     3.8233    -0.0000
 47 C      5.8841     6.0000     0.1159     3.8947     3.8947     0.0000
 48 C      6.0788     6.0000    -0.0788     3.9005     3.9005    -0.0000
 49 C      5.7819     6.0000     0.2181     3.8762     3.8762    -0.0000
 50 C      6.0584     6.0000    -0.0584     3.9899     3.9899     0.0000
 51 C      6.1902     6.0000    -0.1902     3.7378     3.7378    -0.0000
 52 H      0.9352     1.0000     0.0648     0.9842     0.9842     0.0000
 53 H      1.0119     1.0000    -0.0119     1.0004     1.0004     0.0000
 54 H      0.9469     1.0000     0.0531     1.0061     1.0061     0.0000
 55 H      0.9365     1.0000     0.0635     0.9848     0.9848     0.0000
 56 H      0.9309     1.0000     0.0691     0.9722     0.9722    -0.0000
 57 H      0.9358     1.0000     0.0642     0.9836     0.9836     0.0000
 58 H      0.9369     1.0000     0.0631     0.9866     0.9866    -0.0000
 59 H      1.0202     1.0000    -0.0202     0.9974     0.9974    -0.0000
 60 H      0.9486     1.0000     0.0514     1.0078     1.0078     0.0000
 61 H      0.8256     1.0000     0.1744     1.0430     1.0430    -0.0000
 62 H      0.8290     1.0000     0.1710     1.0434     1.0434    -0.0000
 63 H      0.9436     1.0000     0.0564     0.9857     0.9857     0.0000
 64 H      1.0270     1.0000    -0.0270     0.9941     0.9941     0.0000
 65 H      0.9549     1.0000     0.0451     1.0087     1.0087    -0.0000
 66 H      0.9423     1.0000     0.0577     0.9847     0.9847    -0.0000
 67 H      0.9379     1.0000     0.0621     0.9718     0.9718    -0.0000
 68 H      0.9420     1.0000     0.0580     0.9866     0.9866     0.0000
 69 H      0.9402     1.0000     0.0598     0.9831     0.9831     0.0000
 70 H      1.0208     1.0000    -0.0208     0.9956     0.9956    -0.0000
 71 H      0.9512     1.0000     0.0488     1.0071     1.0071     0.0000
 72 H      0.9519     1.0000     0.0481     0.9855     0.9855    -0.0000
 73 H      1.0169     1.0000    -0.0169     0.9975     0.9975     0.0000
 74 H      0.9608     1.0000     0.0392     1.0097     1.0097    -0.0000
 75 H      0.9530     1.0000     0.0470     0.9862     0.9862    -0.0000
 76 H      0.9449     1.0000     0.0551     0.9711     0.9711     0.0000
 77 H      0.9472     1.0000     0.0528     0.9847     0.9847     0.0000
 78 H      0.9480     1.0000     0.0520     0.9842     0.9842    -0.0000
 79 H      1.0126     1.0000    -0.0126     1.0006     1.0006     0.0000
 80 H      0.9608     1.0000     0.0392     1.0067     1.0067     0.0000
 81 H      0.9473     1.0000     0.0527     0.9853     0.9853    -0.0000
 82 H      1.0236     1.0000    -0.0236     0.9946     0.9946    -0.0000
 83 H      0.9567     1.0000     0.0433     1.0099     1.0099     0.0000
 84 H      0.9481     1.0000     0.0519     0.9859     0.9859    -0.0000
 85 H      0.9426     1.0000     0.0574     0.9715     0.9715     0.0000
 86 H      0.9434     1.0000     0.0566     0.9841     0.9841    -0.0000
 87 H      0.9439     1.0000     0.0561     0.9854     0.9854     0.0000
 88 H      1.0263     1.0000    -0.0263     0.9929     0.9929    -0.0000
 89 H      0.9568     1.0000     0.0432     1.0064     1.0064     0.0000

  Mayer bond orders larger than 0.100000
B(  0-C ,  1-N ) :   1.1458 B(  0-C , 17-C ) :   1.5924 B(  0-C , 52-H ) :   0.9685 
B(  1-N ,  8-C ) :   1.1407 B(  1-N , 10-C ) :   0.9491 B(  2-C , 12-C ) :   1.5513 
B(  2-C , 16-C ) :   1.3042 B(  2-C , 53-H ) :   0.9785 B(  3-N , 14-C ) :   1.1903 
B(  3-N , 16-C ) :   1.1991 B(  3-N , 61-H ) :   0.8974 B(  4-C ,  6-C ) :   1.2983 
B(  4-C , 17-C ) :   1.3025 B(  4-C , 18-C ) :   1.1790 B(  5-N , 19-C ) :   1.3959 
B(  5-N , 27-C ) :   1.4241 B(  6-C ,  8-C ) :   1.5966 B(  6-C , 54-H ) :   0.9713 
B(  7-N , 30-C ) :   1.1888 B(  7-N , 38-C ) :   1.2079 B(  7-N , 62-H ) :   0.8994 
B(  8-C , 55-H ) :   0.9696 B(  9-N , 41-C ) :   1.4179 B(  9-N , 49-C ) :   1.4082 
B( 10-C , 56-H ) :   0.9763 B( 10-C , 57-H ) :   0.9819 B( 10-C , 58-H ) :   0.9825 
B( 11-N , 20-C ) :   1.1167 B( 11-N , 24-C ) :   1.1318 B( 11-N , 25-C ) :   0.9581 
B( 12-C , 14-C ) :   1.3052 B( 12-C , 59-H ) :   0.9780 B( 13-N , 31-C ) :   1.1063 
B( 13-N , 35-C ) :   1.0970 B( 13-N , 36-C ) :   0.9693 B( 14-C , 18-C ) :   1.2254 
B( 15-N , 42-C ) :   1.1210 B( 15-N , 46-C ) :   1.1060 B( 15-N , 47-C ) :   0.9633 
B( 16-C , 51-C ) :   1.2183 B( 17-C , 60-H ) :   0.9713 B( 18-C , 19-C ) :   1.2536 
B( 19-C , 21-C ) :   1.1947 B( 20-C , 28-C ) :   1.6218 B( 20-C , 63-H ) :   0.9704 
B( 21-C , 26-C ) :   1.6553 B( 21-C , 64-H ) :   0.9737 B( 22-C , 23-C ) :   1.2747 
B( 22-C , 28-C ) :   1.2800 B( 22-C , 29-C ) :   1.2370 B( 23-C , 24-C ) :   1.6214 
B( 23-C , 65-H ) :   0.9714 B( 24-C , 66-H ) :   0.9690 B( 25-C , 67-H ) :   0.9763 
B( 25-C , 68-H ) :   0.9831 B( 25-C , 69-H ) :   0.9820 B( 26-C , 27-C ) :   1.1957 
B( 26-C , 70-H ) :   0.9741 B( 27-C , 29-C ) :   1.2322 B( 28-C , 71-H ) :   0.9711 
B( 29-C , 30-C ) :   1.1996 B( 30-C , 32-C ) :   1.3260 B( 31-C , 39-C ) :   1.6528 
B( 31-C , 72-H ) :   0.9702 B( 32-C , 37-C ) :   1.5325 B( 32-C , 73-H ) :   0.9774 
B( 33-C , 34-C ) :   1.2578 B( 33-C , 39-C ) :   1.2498 B( 33-C , 40-C ) :   1.2919 
B( 34-C , 35-C ) :   1.6502 B( 34-C , 74-H ) :   0.9707 B( 35-C , 75-H ) :   0.9702 
B( 36-C , 76-H ) :   0.9760 B( 36-C , 77-H ) :   0.9823 B( 36-C , 78-H ) :   0.9834 
B( 37-C , 38-C ) :   1.3249 B( 37-C , 79-H ) :   0.9784 B( 38-C , 40-C ) :   1.1974 
B( 39-C , 80-H ) :   0.9718 B( 40-C , 41-C ) :   1.1970 B( 41-C , 43-C ) :   1.2331 
B( 42-C , 50-C ) :   1.6357 B( 42-C , 81-H ) :   0.9696 B( 43-C , 48-C ) :   1.6181 
B( 43-C , 82-H ) :   0.9744 B( 44-C , 45-C ) :   1.2755 B( 44-C , 50-C ) :   1.2611 
B( 44-C , 51-C ) :   1.2531 B( 45-C , 46-C ) :   1.6316 B( 45-C , 83-H ) :   0.9708 
B( 46-C , 84-H ) :   0.9705 B( 47-C , 85-H ) :   0.9761 B( 47-C , 86-H ) :   0.9827 
B( 47-C , 87-H ) :   0.9827 B( 48-C , 49-C ) :   1.2303 B( 48-C , 88-H ) :   0.9732 
B( 49-C , 51-C ) :   1.2050 B( 50-C , 89-H ) :   0.9716 

-------
TIMINGS
-------

Total SCF time: 0 days 0 hours 24 min 25 sec 

Total time                  ....    1465.565 sec
Sum of individual times     ....    1461.756 sec  ( 99.7%)

Fock matrix formation       ....    1440.470 sec  ( 98.3%)
Diagonalization             ....       6.545 sec  (  0.4%)
Density matrix formation    ....       0.393 sec  (  0.0%)
Population analysis         ....       0.420 sec  (  0.0%)
Initial guess               ....       1.943 sec  (  0.1%)
Orbital Transformation      ....       0.000 sec  (  0.0%)
Orbital Orthonormalization  ....       0.000 sec  (  0.0%)
DIIS solution               ....       2.855 sec  (  0.2%)
SOSCF solution              ....       8.122 sec  (  0.6%)

Maximum memory used throughout the entire SCF-calculation: 302.6 MB


           ************************************************************
           *        Program running with 16 parallel MPI-processes    *
           *              working on a common directory               *
           ************************************************************

------------------------------------------------------------------------------
                                ORCA  MP2 
------------------------------------------------------------------------------

Freezing NCore=104 chemical core electrons

----------
MP2 ENERGY (disk based algorithm)
----------

Dimension of the basis                    ...  918
Memory devoted to MP2                     ... 2000 MB   
Data format for buffers                   ... DOUBLE
Compression type for matrix containers    ... UNCOMPRESSED

-------------------------------
PARTIAL EXCHANGE TRANSFORMATION
-------------------------------

Transformation type                        ... one-operator
Generation of integrals (i,mue|j,nue)      ... ON
Generation of integrals (mue,kappa|nue,tau)... OFF
Generation of integrals (i,mue|a,nue)      ... OFF
Dimension of the basis                     ...  918
Number of internal MOs                     ...  127 (  52- 178)
Pair cutoff                                ... 2.500e-12 Eh
Number of AO pairs in the trafo            ... 421821
Total Number of distinct AO pairs          ... 421821
Memory devoted for trafo                   ... 2000.0 MB 
Max. Number of MO pairs treated together   ...  311      
Number Format for Storage                  ... Double (8 Byte)
Integral package used                      ... LIBINT

Starting integral evaluation:
    ... done with AO integral generation
Closing buffer AOK     (38.07 GB; CompressionRatio= 1.33)
Collecting buffer AOK 
Number of MO pairs included in the trafo   ... 8128
------------------------
SORTING OF (i,mue|j,nue)
------------------------

IBATCH = 1 of  2
IBATCH = 2 of  2
Closing buffer KAO     (51.03 GB; CompressionRatio= 1.00)
Collecting buffer KAO 
N(AO-Batches) Done                         ...  85437692 
N(AO-Batches) Skipped                      ...  82173185 
N(IJ)-pairs Skipped                        ...         0 
TOTAL TIME for half transformation         ...  2503.701 sec
AO-integral generation                     ...   171.027 sec
Half transformation                        ...   308.774 sec
K-integral sorting                         ...  1864.512 sec

Finished integral transformation - now doing MP2 part

OPERATOR COMBINATION   0   0: ij=( 52..178, 52..178)
Process 10:   Internal MO 132
Process 13:   Internal MO 156
Process  1:   Internal MO  60
Process  4:   Internal MO  84
Process  7:   Internal MO 108
Process  0:   Internal MO  54
Process  0:   Internal MO  57
Process  1:   Internal MO  63
Process  3:   Internal MO  78
Process  2:   Internal MO  69
Process  6:   Internal MO 102
Process  1:   Internal MO  66
Process  4:   Internal MO  87
Process 11:   Internal MO 141
Process  5:   Internal MO  93
Process 14:   Internal MO 165
Process  2:   Internal MO  72
Process  9:   Internal MO 126
Process  3:   Internal MO  81
Process  7:   Internal MO 111
Process 12:   Internal MO 150
Process  8:   Internal MO 117
Process  4:   Internal MO  90
Process  2:   Internal MO  75
Process  6:   Internal MO 105
Process 10:   Internal MO 135
Process  5:   Internal MO  96
Process 15:   Internal MO 174
Process  7:   Internal MO 114
Process  9:   Internal MO 129
Process  5:   Internal MO  99
Process  8:   Internal MO 120
Process 12:   Internal MO 153
Process 11:   Internal MO 144
Process 13:   Internal MO 159
Process 10:   Internal MO 138
Process 14:   Internal MO 168
Process  8:   Internal MO 123
Process 15:   Internal MO 177
Process 11:   Internal MO 147
Process 13:   Internal MO 162
Process 14:   Internal MO 171
-----------------------------------------------
 MP2 CORRELATION ENERGY   :     -7.286610596 Eh
-----------------------------------------------


-------
TIMINGS
-------
Total time                : 2793.255 sec
Integral trafo            : 2505.586 sec ( 89.7%)
K(i,j)                    :    6.431 sec (  0.2%)
T(i,j)                    :    0.123 sec (  0.0%)

---------------------------------------
MP2 TOTAL ENERGY:    -2130.904583921 Eh
---------------------------------------

Maximum memory used throughout the entire MP2-calculation: 2275.2 MB

-------------------------   --------------------
FINAL SINGLE POINT ENERGY     -2130.904583921114
-------------------------   --------------------


                            ***************************************
                            *     ORCA property calculations      *
                            ***************************************


  WARNING: The energy has been calculated at the MP2 level but the densities
           used in the property calculations are still SCF densities
           MP2 response densities have not been calculated 
           use %mp2 Density relaxed end
           or  %mp2 Density unrelaxed end

                                    ---------------------
                                    Active property flags
                                    ---------------------
   (+) Dipole Moment


------------------------------------------------------------------------------
                       ORCA ELECTRIC PROPERTIES CALCULATION
------------------------------------------------------------------------------

Dipole Moment Calculation                       ... on
Quadrupole Moment Calculation                   ... off
Polarizability Calculation                      ... off
GBWName                                         ... /scratch/allen/tmpyp4_amber_gaff2/conf1/conf1/Conf110.orca.gbw
Electron density                                ... /scratch/allen/tmpyp4_amber_gaff2/conf1/conf1/Conf110.orca.scfp
The origin for moment calculation is the CENTER OF MASS  = ( 0.002413, -0.002440  0.003592)

-------------
DIPOLE MOMENT
-------------
                                X             Y             Z
Electronic contribution:     -2.00587       1.49665      -0.18695
Nuclear contribution   :     -0.00790       0.17825       0.22213
                        -----------------------------------------
Total Dipole Moment    :     -2.01376       1.67490       0.03519
                        -----------------------------------------
Magnitude (a.u.)       :      2.61950
Magnitude (Debye)      :      6.65823



--------------------
Rotational spectrum 
--------------------
 
Rotational constants in cm-1:     0.001498     0.001473     0.000763 
Rotational constants in MHz :    44.903196    44.165956    22.859988 

 Dipole components along the rotational axes: 
x,y,z [a.u.] :    -2.493315     0.802492     0.033923 
x,y,z [Debye]:    -6.337504     2.039771     0.086227 

 

Timings for individual modules:

Sum of individual times         ...     4279.632 sec (=  71.327 min)
GTO integral calculation        ...        2.656 sec (=   0.044 min)   0.1 %
SCF iterations                  ...     1466.523 sec (=  24.442 min)  34.3 %
MP2 module                      ...     2810.452 sec (=  46.841 min)  65.7 %
                             ****ORCA TERMINATED NORMALLY****
TOTAL RUN TIME: 0 days 1 hours 11 minutes 22 seconds 871 msec
# of primitive gaussian functions

