
                                 *****************
                                 * O   R   C   A *
                                 *****************

                                            #,                                       
                                            ###                                      
                                            ####                                     
                                            #####                                    
                                            ######                                   
                                           ########,                                 
                                     ,,################,,,,,                         
                               ,,#################################,,                 
                          ,,##########################################,,             
                       ,#########################################, ''#####,          
                    ,#############################################,,   '####,        
                  ,##################################################,,,,####,       
                ,###########''''           ''''###############################       
              ,#####''   ,,,,##########,,,,          '''####'''          '####       
            ,##' ,,,,###########################,,,                        '##       
           ' ,,###''''                  '''############,,,                           
         ,,##''                                '''############,,,,        ,,,,,,###''
      ,#''                                            '''#######################'''  
     '                                                          ''''####''''         
             ,#######,   #######,   ,#######,      ##                                
            ,#'     '#,  ##    ##  ,#'     '#,    #''#        ######   ,####,        
            ##       ##  ##   ,#'  ##            #'  '#       #        #'  '#        
            ##       ##  #######   ##           ,######,      #####,   #    #        
            '#,     ,#'  ##    ##  '#,     ,#' ,#      #,         ##   #,  ,#        
             '#######'   ##     ##  '#######'  #'      '#     #####' # '####'        



                  #######################################################
                  #                        -***-                        #
                  #          Department of theory and spectroscopy      #
                  #    Directorship and core code : Frank Neese         #
                  #        Max Planck Institute fuer Kohlenforschung    #
                  #                Kaiser Wilhelm Platz 1               #
                  #                 D-45470 Muelheim/Ruhr               #
                  #                      Germany                        #
                  #                                                     #
                  #                  All rights reserved                #
                  #                        -***-                        #
                  #######################################################


                         Program Version 5.0.4 -  RELEASE  -


 With contributions from (in alphabetic order):
   Daniel Aravena         : Magnetic Suceptibility
   Michael Atanasov       : Ab Initio Ligand Field Theory (pilot matlab implementation)
   Alexander A. Auer      : GIAO ZORA, VPT2 properties, NMR spectrum
   Ute Becker             : Parallelization
   Giovanni Bistoni       : ED, misc. LED, open-shell LED, HFLD
   Martin Brehm           : Molecular dynamics
   Dmytro Bykov           : SCF Hessian
   Vijay G. Chilkuri      : MRCI spin determinant printing, contributions to CSF-ICE
   Dipayan Datta          : RHF DLPNO-CCSD density
   Achintya Kumar Dutta   : EOM-CC, STEOM-CC
   Dmitry Ganyushin       : Spin-Orbit,Spin-Spin,Magnetic field MRCI
   Miquel Garcia          : C-PCM and meta-GGA Hessian, CC/C-PCM, Gaussian charge scheme
   Yang Guo               : DLPNO-NEVPT2, F12-NEVPT2, CIM, IAO-localization
   Andreas Hansen         : Spin unrestricted coupled pair/coupled cluster methods
   Benjamin Helmich-Paris : MC-RPA, TRAH-SCF, COSX integrals
   Lee Huntington         : MR-EOM, pCC
   Robert Izsak           : Overlap fitted RIJCOSX, COSX-SCS-MP3, EOM
   Marcus Kettner         : VPT2
   Christian Kollmar      : KDIIS, OOCD, Brueckner-CCSD(T), CCSD density, CASPT2, CASPT2-K
   Simone Kossmann        : Meta GGA functionals, TD-DFT gradient, OOMP2, MP2 Hessian
   Martin Krupicka        : Initial AUTO-CI
   Lucas Lang             : DCDCAS
   Marvin Lechner         : AUTO-CI (C++ implementation), FIC-MRCC
   Dagmar Lenk            : GEPOL surface, SMD
   Dimitrios Liakos       : Extrapolation schemes; Compound Job, initial MDCI parallelization
   Dimitrios Manganas     : Further ROCIS development; embedding schemes
   Dimitrios Pantazis     : SARC Basis sets
   Anastasios Papadopoulos: AUTO-CI, single reference methods and gradients
   Taras Petrenko         : DFT Hessian,TD-DFT gradient, ASA, ECA, R-Raman, ABS, FL, XAS/XES, NRVS
   Peter Pinski           : DLPNO-MP2, DLPNO-MP2 Gradient
   Christoph Reimann      : Effective Core Potentials
   Marius Retegan         : Local ZFS, SOC
   Christoph Riplinger    : Optimizer, TS searches, QM/MM, DLPNO-CCSD(T), (RO)-DLPNO pert. Triples
   Tobias Risthaus        : Range-separated hybrids, TD-DFT gradient, RPA, STAB
   Michael Roemelt        : Original ROCIS implementation
   Masaaki Saitow         : Open-shell DLPNO-CCSD energy and density
   Barbara Sandhoefer     : DKH picture change effects
   Avijit Sen             : IP-ROCIS
   Kantharuban Sivalingam : CASSCF convergence, NEVPT2, FIC-MRCI
   Bernardo de Souza      : ESD, SOC TD-DFT
   Georgi Stoychev        : AutoAux, RI-MP2 NMR, DLPNO-MP2 response
   Willem Van den Heuvel  : Paramagnetic NMR
   Boris Wezisla          : Elementary symmetry handling
   Frank Wennmohs         : Technical directorship


 We gratefully acknowledge several colleagues who have allowed us to
 interface, adapt or use parts of their codes:
   Stefan Grimme, W. Hujo, H. Kruse, P. Pracht,  : VdW corrections, initial TS optimization,
                  C. Bannwarth, S. Ehlert          DFT functionals, gCP, sTDA/sTD-DF
   Ed Valeev, F. Pavosevic, A. Kumar             : LibInt (2-el integral package), F12 methods
   Garnet Chan, S. Sharma, J. Yang, R. Olivares  : DMRG
   Ulf Ekstrom                                   : XCFun DFT Library
   Mihaly Kallay                                 : mrcc  (arbitrary order and MRCC methods)
   Jiri Pittner, Ondrej Demel                    : Mk-CCSD
   Frank Weinhold                                : gennbo (NPA and NBO analysis)
   Christopher J. Cramer and Donald G. Truhlar   : smd solvation model
   Lars Goerigk                                  : TD-DFT with DH, B97 family of functionals
   V. Asgeirsson, H. Jonsson                     : NEB implementation
   FAccTs GmbH                                   : IRC, NEB, NEB-TS, DLPNO-Multilevel, CI-OPT
                                                   MM, QMMM, 2- and 3-layer-ONIOM, Crystal-QMMM,
                                                   LR-CPCM, SF, NACMEs, symmetry and pop. for TD-DFT,
                                                   nearIR, NL-DFT gradient (VV10), updates on ESD,
                                                   ML-optimized integration grids
   S Lehtola, MJT Oliveira, MAL Marques          : LibXC Library
   Liviu Ungur et al                             : ANISO software


 Your calculation uses the libint2 library for the computation of 2-el integrals
 For citations please refer to: http://libint.valeyev.net

 Your ORCA version has been built with support for libXC version: 5.1.0
 For citations please refer to: https://tddft.org/programs/libxc/

 This ORCA versions uses:
   CBLAS   interface :  Fast vector & matrix operations
   LAPACKE interface :  Fast linear algebra routines
   SCALAPACK package :  Parallel linear algebra routines
   Shared memory     :  Shared parallel matrices
   BLAS/LAPACK       :  OpenBLAS 0.3.15  USE64BITINT DYNAMIC_ARCH NO_AFFINITY Sandybridge SINGLE_THREADED
        Core in use  :  Sandybridge
   Copyright (c) 2011-2014, The OpenBLAS Project


================================================================================

----- Orbital basis set information -----
Your calculation utilizes the basis: cc-pVDZ 
       H, B-Ne : Obtained from the ccRepo (grant-hill.group.shef.ac.uk/ccrepo) Feb. 2017
                 T. H. Dunning, Jr., J. Chem. Phys. 90, 1007 (1989)
            He : Obtained from the ccRepo (grant-hill.group.shef.ac.uk/ccrepo) Feb. 2017
                 D. E. Woon, T. H. Dunning, Jr., J. Chem. Phys. 100, 2975 (1994)
  Li-Be, Na-Mg : Obtained from the ccRepo (grant-hill.group.shef.ac.uk/ccrepo) Feb. 2017
                 B. P. Prascher, D. E. Woon, K. A. Peterson, T. H. Dunning, Jr., A. K. Wilson, Theor. Chem. Acc. 128, 69 (2011)
         Al-Ar : Obtained from the ccRepo (grant-hill.group.shef.ac.uk/ccrepo) Feb. 2017
                 D. E. Woon, T. H. Dunning, Jr., J. Chem. Phys. 98, 1358 (1993)
            Ca : Obtained from the Peterson Research Group Website (tyr0.chem.wsu.edu/~kipeters) Feb. 2017
                 J. Koput, K. A. Peterson, J. Phys. Chem. 106, 9595 (2002)
         Sc-Zn : Obtained from the ccRepo (grant-hill.group.shef.ac.uk/ccrepo) Feb. 2017
                 N. B. Balabanov, K. A. Peterson, J. Chem. Phys. 123, 064107 (2005)
                 N. B. Balabanov, K. A. Peterson, J. Chem. Phys. 125, 074110 (2006)
         Ga-Kr : Obtained from the ccRepo (grant-hill.group.shef.ac.uk/ccrepo) Feb. 2017
                 A. K. Wilson, D. E. Woon, K. A. Peterson, T. H. Dunning, Jr., J. Chem. Phys. 110, 7667 (1999)

================================================================================
                                        WARNINGS
                       Please study these warnings very carefully!
================================================================================


WARNING: No MP2 level density has been requested!
         To caclulate MP2 level properties use
         %mp2 Density relaxed end
         or
         %mp2 Density unrelaxed end

WARNING: Post HF methods need fully converged wavefunctions
  ===> : Setting SCFConvForced true
         You can overwrite this default with %scf ConvForced false 


INFO   : the flag for use of the SHARK integral package has been found!

================================================================================
                                       INPUT FILE
================================================================================
NAME = /scratch/allen/tmpyp4_amber_gaff2/2.Mdgx/conf11/conf11/Conf329.orca
|  1> ! PAL2
|  2> ! mp2 cc-pvdz TightSCF  NoKeepInts
|  3> 
|  4> %scf
|  5>   MaxCore 2000
|  6> end
|  7> %mp2
|  8>   MaxCore 2000
|  9> end
| 10> * xyz 0 1
| 11>    C       -3.18700         6.37700         0.72600
| 12>    C        1.47400         4.04100         0.05700
| 13>    C       -2.80200         4.09300         0.04900
| 14>    C       -4.05200         4.12500        -0.58900
| 15>    C       -4.82000         5.27200        -0.55100
| 16>    C       -5.21700         7.60000         0.09100
| 17>    C        0.13200         4.30700         0.06100
| 18>    C       -0.56900         3.05600         0.04700
| 19>    C        1.64900         2.61800         0.02300
| 20>    C       -2.38000         5.25600         0.71200
| 21>    N       -4.38700         6.37500         0.10200
| 22>    N        0.38800         2.06700         0.02500
| 23>    N       -2.01000         0.39500        -0.07500
| 24>    N       -0.38800        -2.07400        -0.02700
| 25>    N        2.01000        -0.40100         0.06500
| 26>    C       -1.96000         2.86100         0.02400
| 27>    C       -2.62300         1.61500        -0.01800
| 28>    C       -5.57300        -4.32900         1.06600
| 29>    C       -4.07300         1.47100         0.05600
| 30>    C       -4.10600        -2.75600        -0.02600
| 31>    C       -4.99500        -2.75700        -1.11100
| 32>    C       -6.13200        -3.54200        -1.07600
| 33>    C       -7.65100        -5.11300         0.04000
| 34>    C       -4.32400         0.14100         0.03700
| 35>    C       -3.02500        -0.52000        -0.04800
| 36>    C       -4.42200        -3.56600         1.07500
| 37>    N       -6.40700        -4.31300         0.00100
| 38>    C       -2.86700        -1.92200        -0.04000
| 39>    C       -1.65000        -2.62400        -0.02700
| 40>    C        3.56800        -6.14200        -1.04000
| 41>    C       -1.47600        -4.04900        -0.03400
| 42>    C        2.80300        -4.09900        -0.00800
| 43>    C        3.65700        -4.38400         1.06900
| 44>    C        4.42700        -5.53000         1.05900
| 45>    C        5.24500        -7.58800         0.01400
| 46>    C       -0.13400        -4.31500        -0.02200
| 47>    C        0.56800        -3.06400        -0.02700
| 48>    C        2.77500        -5.01200        -1.07400
| 49>    N        4.37600        -6.39100         0.01700
| 50>    C        1.95900        -2.86900        -0.00900
| 51>    C        2.62100        -1.62200         0.00900
| 52>    C        5.54300         4.33900        -1.13000
| 53>    C        4.07000        -1.47900        -0.09400
| 54>    C        4.10400         2.75100        -0.02100
| 55>    C        5.02700         2.72900         1.03600
| 56>    C        6.16600         3.50900         0.97800
| 57>    C        7.61900         5.15300        -0.11500
| 58>    C        4.32100        -0.14800        -0.09200
| 59>    C        3.02500         0.51400         0.01500
| 60>    C        4.38700         3.58200        -1.11500
| 61>    C        2.86600         1.91600         0.01300
| 62>    N        6.41300         4.29600        -0.09500
| 63>    H       -2.90700         7.29200         1.23500
| 64>    H        2.27400         4.76600         0.08100
| 65>    H       -4.42800         3.26200        -1.12500
| 66>    H       -5.78500         5.34700        -1.03500
| 67>    H       -4.99200         8.17400        -0.81100
| 68>    H       -6.26800         7.31200         0.10100
| 69>    H       -4.98300         8.19000         0.97800
| 70>    H       -0.33200         5.28200         0.06900
| 71>    H       -1.43100         5.28900         1.23500
| 72>    H        0.18200         1.07200         0.00500
| 73>    H       -0.18300        -1.08000        -0.02100
| 74>    H       -5.86400        -4.96200         1.89500
| 75>    H       -4.79400         2.27200         0.13900
| 76>    H       -4.80000        -2.16000        -1.99400
| 77>    H       -6.84100        -3.58200        -1.89300
| 78>    H       -8.42800        -4.53600         0.54600
| 79>    H       -7.95600        -5.33700        -0.98100
| 80>    H       -7.45600        -6.03700         0.58400
| 81>    H       -5.28700        -0.34400         0.10000
| 82>    H       -3.78000        -3.60100         1.94700
| 83>    H        3.58700        -6.86800        -1.84300
| 84>    H       -2.27600        -4.77400        -0.05000
| 85>    H        3.71400        -3.72400         1.92600
| 86>    H        5.09200        -5.79500         1.87100
| 87>    H        6.20500        -7.32900        -0.43900
| 88>    H        5.39300        -7.91700         1.04200
| 89>    H        4.75900        -8.37300        -0.56400
| 90>    H        0.32900        -5.29000        -0.00800
| 91>    H        2.14600        -4.84200        -1.94000
| 92>    H        5.80800         4.98600        -1.95600
| 93>    H        4.78800        -2.28100        -0.18500
| 94>    H        4.86000         2.11400         1.91200
| 95>    H        6.90100         3.53100         1.77200
| 96>    H        7.38300         6.10900         0.35600
| 97>    H        8.41400         4.65200         0.43500
| 98>    H        7.92100         5.31000        -1.15000
| 99>    H        5.28300         0.33600        -0.17900
|100>    H        3.72000         3.63200        -1.96700
|101> *
|102> 
|103>                          ****END OF INPUT****
================================================================================

                       ****************************
                       * Single Point Calculation *
                       ****************************

---------------------------------
CARTESIAN COORDINATES (ANGSTROEM)
---------------------------------
  C     -3.187000    6.377000    0.726000
  C      1.474000    4.041000    0.057000
  C     -2.802000    4.093000    0.049000
  C     -4.052000    4.125000   -0.589000
  C     -4.820000    5.272000   -0.551000
  C     -5.217000    7.600000    0.091000
  C      0.132000    4.307000    0.061000
  C     -0.569000    3.056000    0.047000
  C      1.649000    2.618000    0.023000
  C     -2.380000    5.256000    0.712000
  N     -4.387000    6.375000    0.102000
  N      0.388000    2.067000    0.025000
  N     -2.010000    0.395000   -0.075000
  N     -0.388000   -2.074000   -0.027000
  N      2.010000   -0.401000    0.065000
  C     -1.960000    2.861000    0.024000
  C     -2.623000    1.615000   -0.018000
  C     -5.573000   -4.329000    1.066000
  C     -4.073000    1.471000    0.056000
  C     -4.106000   -2.756000   -0.026000
  C     -4.995000   -2.757000   -1.111000
  C     -6.132000   -3.542000   -1.076000
  C     -7.651000   -5.113000    0.040000
  C     -4.324000    0.141000    0.037000
  C     -3.025000   -0.520000   -0.048000
  C     -4.422000   -3.566000    1.075000
  N     -6.407000   -4.313000    0.001000
  C     -2.867000   -1.922000   -0.040000
  C     -1.650000   -2.624000   -0.027000
  C      3.568000   -6.142000   -1.040000
  C     -1.476000   -4.049000   -0.034000
  C      2.803000   -4.099000   -0.008000
  C      3.657000   -4.384000    1.069000
  C      4.427000   -5.530000    1.059000
  C      5.245000   -7.588000    0.014000
  C     -0.134000   -4.315000   -0.022000
  C      0.568000   -3.064000   -0.027000
  C      2.775000   -5.012000   -1.074000
  N      4.376000   -6.391000    0.017000
  C      1.959000   -2.869000   -0.009000
  C      2.621000   -1.622000    0.009000
  C      5.543000    4.339000   -1.130000
  C      4.070000   -1.479000   -0.094000
  C      4.104000    2.751000   -0.021000
  C      5.027000    2.729000    1.036000
  C      6.166000    3.509000    0.978000
  C      7.619000    5.153000   -0.115000
  C      4.321000   -0.148000   -0.092000
  C      3.025000    0.514000    0.015000
  C      4.387000    3.582000   -1.115000
  C      2.866000    1.916000    0.013000
  N      6.413000    4.296000   -0.095000
  H     -2.907000    7.292000    1.235000
  H      2.274000    4.766000    0.081000
  H     -4.428000    3.262000   -1.125000
  H     -5.785000    5.347000   -1.035000
  H     -4.992000    8.174000   -0.811000
  H     -6.268000    7.312000    0.101000
  H     -4.983000    8.190000    0.978000
  H     -0.332000    5.282000    0.069000
  H     -1.431000    5.289000    1.235000
  H      0.182000    1.072000    0.005000
  H     -0.183000   -1.080000   -0.021000
  H     -5.864000   -4.962000    1.895000
  H     -4.794000    2.272000    0.139000
  H     -4.800000   -2.160000   -1.994000
  H     -6.841000   -3.582000   -1.893000
  H     -8.428000   -4.536000    0.546000
  H     -7.956000   -5.337000   -0.981000
  H     -7.456000   -6.037000    0.584000
  H     -5.287000   -0.344000    0.100000
  H     -3.780000   -3.601000    1.947000
  H      3.587000   -6.868000   -1.843000
  H     -2.276000   -4.774000   -0.050000
  H      3.714000   -3.724000    1.926000
  H      5.092000   -5.795000    1.871000
  H      6.205000   -7.329000   -0.439000
  H      5.393000   -7.917000    1.042000
  H      4.759000   -8.373000   -0.564000
  H      0.329000   -5.290000   -0.008000
  H      2.146000   -4.842000   -1.940000
  H      5.808000    4.986000   -1.956000
  H      4.788000   -2.281000   -0.185000
  H      4.860000    2.114000    1.912000
  H      6.901000    3.531000    1.772000
  H      7.383000    6.109000    0.356000
  H      8.414000    4.652000    0.435000
  H      7.921000    5.310000   -1.150000
  H      5.283000    0.336000   -0.179000
  H      3.720000    3.632000   -1.967000

----------------------------
CARTESIAN COORDINATES (A.U.)
----------------------------
  NO LB      ZA    FRAG     MASS         X           Y           Z
   0 C     6.0000    0    12.011   -6.022557   12.050784    1.371941
   1 C     6.0000    0    12.011    2.785456    7.636383    0.107714
   2 C     6.0000    0    12.011   -5.295013    7.734649    0.092597
   3 C     6.0000    0    12.011   -7.657170    7.795120   -1.113049
   4 C     6.0000    0    12.011   -9.108480    9.962636   -1.041239
   5 C     6.0000    0    12.011   -9.858701   14.361919    0.171965
   6 C     6.0000    0    12.011    0.249444    8.139050    0.115273
   7 C     6.0000    0    12.011   -1.075254    5.775003    0.088817
   8 C     6.0000    0    12.011    3.116158    4.947303    0.043464
   9 C     6.0000    0    12.011   -4.497548    9.932401    1.345485
  10 N     7.0000    0    14.007   -8.290229   12.047004    0.192752
  11 N     7.0000    0    14.007    0.733214    3.906064    0.047243
  12 N     7.0000    0    14.007   -3.798350    0.746442   -0.141729
  13 N     7.0000    0    14.007   -0.733214   -3.919292   -0.051023
  14 N     7.0000    0    14.007    3.798350   -0.757780    0.122832
  15 C     6.0000    0    12.011   -3.703863    5.406506    0.045353
  16 C     6.0000    0    12.011   -4.956752    3.051908   -0.034015
  17 C     6.0000    0    12.011  -10.531444   -8.180624    2.014448
  18 C     6.0000    0    12.011   -7.696855    2.779787    0.105825
  19 C     6.0000    0    12.011   -7.759216   -5.208085   -0.049133
  20 C     6.0000    0    12.011   -9.439182   -5.209975   -2.099486
  21 C     6.0000    0    12.011  -11.587801   -6.693410   -2.033345
  22 C     6.0000    0    12.011  -14.458295   -9.662170    0.075589
  23 C     6.0000    0    12.011   -8.171176    0.266451    0.069920
  24 C     6.0000    0    12.011   -5.716422   -0.982658   -0.090707
  25 C     6.0000    0    12.011   -8.356369   -6.738763    2.031456
  26 N     7.0000    0    14.007  -12.107475   -8.150389    0.001890
  27 C     6.0000    0    12.011   -5.417845   -3.632054   -0.075589
  28 C     6.0000    0    12.011   -3.118048   -4.958641   -0.051023
  29 C     6.0000    0    12.011    6.742543  -11.606698   -1.965315
  30 C     6.0000    0    12.011   -2.789236   -7.651501   -0.064251
  31 C     6.0000    0    12.011    5.296902   -7.745987   -0.015118
  32 C     6.0000    0    12.011    6.910728   -8.284559    2.020117
  33 C     6.0000    0    12.011    8.365818  -10.450186    2.001220
  34 C     6.0000    0    12.011    9.911614  -14.339242    0.026456
  35 C     6.0000    0    12.011   -0.253223   -8.154168   -0.041574
  36 C     6.0000    0    12.011    1.073364   -5.790121   -0.051023
  37 C     6.0000    0    12.011    5.243990   -9.471307   -2.029566
  38 N     7.0000    0    14.007    8.269442  -12.077240    0.032125
  39 C     6.0000    0    12.011    3.701973   -5.421624   -0.017008
  40 C     6.0000    0    12.011    4.952972   -3.065136    0.017008
  41 C     6.0000    0    12.011   10.474752    8.199522   -2.135391
  42 C     6.0000    0    12.011    7.691185   -2.794905   -0.177634
  43 C     6.0000    0    12.011    7.755436    5.198637   -0.039684
  44 C     6.0000    0    12.011    9.499653    5.157063    1.957756
  45 C     6.0000    0    12.011   11.652051    6.631049    1.848152
  46 C     6.0000    0    12.011   14.397823    9.737759   -0.217319
  47 C     6.0000    0    12.011    8.165507   -0.279679   -0.173855
  48 C     6.0000    0    12.011    5.716422    0.971319    0.028346
  49 C     6.0000    0    12.011    8.290229    6.768999   -2.107045
  50 C     6.0000    0    12.011    5.415955    3.620715    0.024566
  51 N     7.0000    0    14.007   12.118814    8.118263   -0.179524
  52 H     1.0000    0     1.008   -5.493434   13.779883    2.333812
  53 H     1.0000    0     1.008    4.297237    9.006435    0.153068
  54 H     1.0000    0     1.008   -8.367707    6.164287   -2.125942
  55 H     1.0000    0     1.008  -10.932066   10.104366   -1.955867
  56 H     1.0000    0     1.008   -9.433513   15.446621   -1.532568
  57 H     1.0000    0     1.008  -11.844803   13.817677    0.190862
  58 H     1.0000    0     1.008   -9.416505   15.476857    1.848152
  59 H     1.0000    0     1.008   -0.627389    9.981533    0.130391
  60 H     1.0000    0     1.008   -2.704198    9.994762    2.333812
  61 H     1.0000    0     1.008    0.343930    2.025786    0.009449
  62 H     1.0000    0     1.008   -0.345820   -2.040904   -0.039684
  63 H     1.0000    0     1.008  -11.081354   -9.376821    3.581031
  64 H     1.0000    0     1.008   -9.059347    4.293458    0.262672
  65 H     1.0000    0     1.008   -9.070685   -4.081808   -3.768114
  66 H     1.0000    0     1.008  -12.927616   -6.768999   -3.577252
  67 H     1.0000    0     1.008  -15.926612   -8.571798    1.031790
  68 H     1.0000    0     1.008  -15.034661  -10.085468   -1.853821
  69 H     1.0000    0     1.008  -14.089798  -11.408277    1.103600
  70 H     1.0000    0     1.008   -9.990982   -0.650066    0.188973
  71 H     1.0000    0     1.008   -7.143165   -6.804904    3.679297
  72 H     1.0000    0     1.008    6.778448  -12.978639   -3.482765
  73 H     1.0000    0     1.008   -4.301017   -9.021553   -0.094486
  74 H     1.0000    0     1.008    7.018443   -7.037340    3.639613
  75 H     1.0000    0     1.008    9.622485  -10.950963    3.535678
  76 H     1.0000    0     1.008   11.725751  -13.849803   -0.829590
  77 H     1.0000    0     1.008   10.191293  -14.960962    1.969095
  78 H     1.0000    0     1.008    8.993207  -15.822677   -1.065806
  79 H     1.0000    0     1.008    0.621720   -9.996651   -0.015118
  80 H     1.0000    0     1.008    4.055352   -9.150054   -3.666069
  81 H     1.0000    0     1.008   10.975529    9.422175   -3.696304
  82 H     1.0000    0     1.008    9.048009   -4.310465   -0.349599
  83 H     1.0000    0     1.008    9.184069    3.994881    3.613156
  84 H     1.0000    0     1.008   13.041000    6.672623    3.348595
  85 H     1.0000    0     1.008   13.951848   11.544337    0.672743
  86 H     1.0000    0     1.008   15.900156    8.791006    0.822031
  87 H     1.0000    0     1.008   14.968521   10.034446   -2.173185
  88 H     1.0000    0     1.008    9.983423    0.634948   -0.338261
  89 H     1.0000    0     1.008    7.029781    6.863485   -3.717091

--------------------------------
INTERNAL COORDINATES (ANGSTROEM)
--------------------------------
 C      0   0   0     0.000000000000     0.00000000     0.00000000
 C      1   0   0     5.256365474356     0.00000000     0.00000000
 C      1   2   0     2.413132818558    53.28669995     0.00000000
 C      3   1   2     1.403769211801    87.92907556   205.95945309
 C      4   3   1     1.380897172131   120.11028495     0.12189253
 C      5   4   3     2.447316285240   152.56844032     1.68435518
 C      2   1   3     1.368114030335    16.94452280     9.37012645
 C      7   2   1     1.434084376876   108.05010202   204.64109758
 C      2   1   3     1.434123425651   123.51727592   341.87066407
 C      1   2   3     1.381334861647    28.35856312    27.38778205
 N      1   2   3     1.352545747840   136.66464027   320.43449593
 N      9   2   1     1.376127174356   106.58526707     7.38238621
 N     12   9   2     2.925062050624   168.53581413   171.12065651
 N     13  12   9     2.954513327098    91.55032014    11.12112580
 N     14  13  12     2.925371258490    88.43092389   359.84326247
 C      8   7   2     1.404790019896   127.24786865   181.11170171
 C     13  12   9     1.366535034311    81.72106996   188.00453233
 C     14  13  12     5.758810554272    80.56209567   166.76250791
 C     17  13  12     1.459010623676   111.08861209   183.82872609
 C     18  14  13     2.412235892279    27.27532823    36.33507194
 C     20  18  14     1.402692767501    87.95206320   148.94598259
 C     21  20  18     1.382106725257   120.14573887   359.70382047
 C     18  14  13     2.446510985056   144.15733107    82.80075377
 C     19  17  13     1.353610726908   106.29293361   359.75308708
 C     13  12   9     1.366813447402   172.21332906    33.46711076
 C     18  14  13     1.380960173213    15.08449437   309.23336894
 N     22  21  20     1.352773077792   120.73759875     0.27865223
 C     25  13  17     1.410897586645   125.60330303   182.37774668
 C     14  13  12     1.376642291955    80.24689249   177.85461986
 C     14  13  12     5.764089607215   164.51507311   312.20821879
 C     29  14  13     1.435600919476   106.58649366   178.76395472
 C     30  14  13     2.413316804732    27.10625047    82.12560436
 C     32  30  14     1.403734305344    87.90059683   149.76154742
 C     33  32  30     1.380694028378   120.14881443   359.74174632
 C     34  33  32     2.448777858443   152.49203239     2.45173620
 C     31  29  14     1.368160809262   108.16950133     0.70383075
 C     14  13  12     1.376239804685   169.26375223   353.09862627
 C     30  14  13     1.380907310430    14.68948582   353.70041132
 N     34  33  32     1.352658863128   120.85575621     0.19603406
 C     37  14  29     1.404717053360   126.01551127   180.90772073
 C     15  14  13     1.366491126938    81.61824056   183.09049352
 C      2   1   3     4.249062720177   148.59924015   145.80889184
 C     41  15  14     1.459677704153   111.05201287   175.08990246
 C     42   2   1     2.412953791518    41.78584867   169.71188727
 C     44  42   2     1.403446472082    87.95153797   233.97558675
 C     45  44  42     1.381696421071   120.11137308     0.19721020
 C     42   2   1     2.450019795838   135.97209175    80.02673638
 C     43  41  15     1.354461516618   106.26758155     0.30894352
 C     15  14  13     1.367461151185   171.87382904   332.35056460
 C     42   2   1     1.381886391857    32.59078432   218.56716647
 C      9   2   1     1.404988612053   126.98745415   188.38672374
 N     42   2   1     1.352765315936   113.57249190   107.76332557
 H      1   2   3     1.083838548862   101.88073082   167.71703239
 H      2   1   3     1.079907866440   110.83691266   169.27468537
 H      4   3   1     1.083254817668   121.05120747   179.53796135
 H      5   4   3     1.082176510556   122.76525283   179.43660912
 H      6   5   4     1.092568075682   104.46419177    99.99679800
 H      6   5   4     1.089791264417    84.69053413   209.50113349
 H      6   5   4     1.090699316952   133.87581790   322.31158792
 H      7   2   1     1.079807853278   126.66122480    24.87951136
 H     10   1   2     1.084075181895   118.80506149    48.22047935
 H     12   9   2     1.016297692608   125.29023241   180.00180175
 H     14  13  12     1.014936943854    44.97226959   359.42596618
 H     18  14  13     1.082871645210   128.03556573   234.20482432
 H     19  17  13     1.080893611786   126.41830519   178.11313280
 H     21  20  18     1.083569563987   121.05669627   180.67006309
 H     22  21  20     1.082483256222   122.73097286   180.59748951
 H     23  18  14     1.092105306278   103.92715769   234.93429879
 H     23  18  14     1.088871893291   134.19244188    12.25587044
 H     23  18  14     1.089833473518    84.85857450   125.45241208
 H     24  19  17     1.080075460327   127.28078426   178.44613241
 H     26  18  14     1.083408048706   118.76995697   244.94906660
 H     30  14  13     1.082703098730   127.99711412   279.66882698
 H     31  29  14     1.079759695488   125.22293469   180.92530585
 H     33  32  30     1.083188810873   121.01964473   180.74284758
 H     34  33  32     1.082494341787   122.70821597   180.59516895
 H     35  34  33     1.092652735319   105.73575241    97.19771933
 H     35  34  33     1.089462711615    84.05943581   206.43036958
 H     35  34  33     1.089268102902   133.08365142   318.50306270
 H     36  31  29     1.079439669458   126.61599965   178.98859863
 H     38  30  73     1.083742127999   118.77264435   359.90091293
 H     42   2   1     1.082178358682   119.31790784   324.39485602
 H     43  41  15     1.080281907652   126.36969097   182.06329380
 H     45  44  42     1.083277434455   121.10105945   179.58025624
 H     46  45  44     1.082194529648   122.72144639   179.46906377
 H     47  42   2     1.091546151109   106.65128841   315.16475048
 H     47  42   2     1.088818625851   132.46019523    94.52397119
 H     47  42   2     1.089531091801    83.63838232   206.04504406
 H     48  43  41     1.080402239909   127.23657387   181.62955349
 H     50  42   2     1.083186502870   118.77001737    94.71359229

---------------------------
INTERNAL COORDINATES (A.U.)
---------------------------
 C      0   0   0     0.000000000000     0.00000000     0.00000000
 C      1   0   0     9.933091206332     0.00000000     0.00000000
 C      1   2   0     4.560160151851    53.28669995     0.00000000
 C      3   1   2     2.652739365534    87.92907556   205.95945309
 C      4   3   1     2.609517474434   120.11028495     0.12189253
 C      5   4   3     4.624757542189   152.56844032     1.68435518
 C      2   1   3     2.585360837309    16.94452280     9.37012645
 C      7   2   1     2.710026725231   108.05010202   204.64109758
 C      2   1   3     2.710100516721   123.51727592   341.87066407
 C      1   2   3     2.610344587750    28.35856312    27.38778205
 N      1   2   3     2.555941047017   136.66464027   320.43449593
 N      9   2   1     2.600503484979   106.58526707     7.38238621
 N     12   9   2     5.527566200405   168.53581413   171.12065651
 N     13  12   9     5.583221047236    91.55032014    11.12112580
 N     14  13  12     5.528150518591    88.43092389   359.84326247
 C      8   7   2     2.654668413270   127.24786865   181.11170171
 C     13  12   9     2.582376967257    81.72106996   188.00453233
 C     14  13  12    10.882574804710    80.56209567   166.76250791
 C     17  13  12     2.757130505230   111.08861209   183.82872609
 C     18  14  13     4.558465206823    27.27532823    36.33507194
 C     20  18  14     2.650705180609    87.95206320   148.94598259
 C     21  20  18     2.611803198586   120.14573887   359.70382047
 C     18  14  13     4.623235745386   144.15733107    82.80075377
 C     19  17  13     2.557953565794   106.29293361   359.75308708
 C     13  12   9     2.582903091751   172.21332906    33.46711076
 C     18  14  13     2.609636529225    15.08449437   309.23336894
 N     22  21  20     2.556370638369   120.73759875     0.27865223
 C     25  13  17     2.666210041769   125.60330303   182.37774668
 C     14  13  12     2.601476916169    80.24689249   177.85461986
 C     14  13  12    10.892550769017   164.51507311   312.20821879
 C     29  14  13     2.712892575415   106.58649366   178.76395472
 C     30  14  13     4.560507835333    27.10625047    82.12560436
 C     32  30  14     2.652673401891    87.90059683   149.76154742
 C     33  32  30     2.609133588376   120.14881443   359.74174632
 C     34  33  32     4.627519515267   152.49203239     2.45173620
 C     31  29  14     2.585449236669   108.16950133     0.70383075
 C     14  13  12     2.600716325456   169.26375223   353.09862627
 C     30  14  13     2.609536633043    14.68948582   353.70041132
 N     34  33  32     2.556154803934   120.85575621     0.19603406
 C     37  14  29     2.654530526499   126.01551127   180.90772073
 C     15  14  13     2.582293994346    81.61824056   183.09049352
 C      2   1   3     8.029564866989   148.59924015   145.80889184
 C     41  15  14     2.758391104639   111.05201287   175.08990246
 C     42   2   1     4.559821839776    41.78584867   169.71188727
 C     44  42   2     2.652129475853    87.95153797   233.97558675
 C     45  44  42     2.611027836043   120.11137308     0.19721020
 C     42   2   1     4.629866436820   135.97209175    80.02673638
 C     43  41  15     2.559561325344   106.26758155     0.30894352
 C     15  14  13     2.584127074516   171.87382904   332.35056460
 C     42   2   1     2.611386828803    32.59078432   218.56716647
 C      9   2   1     2.655043698059   126.98745415   188.38672374
 N     42   2   1     2.556355970587   113.57249190   107.76332557
 H      1   2   3     2.048158030736   101.88073082   167.71703239
 H      2   1   3     2.040730117440   110.83691266   169.27468537
 H      4   3   1     2.047054938643   121.05120747   179.53796135
 H      5   4   3     2.045017233514   122.76525283   179.43660912
 H      6   5   4     2.064654445705   104.46419177    99.99679800
 H      6   5   4     2.059407032888    84.69053413   209.50113349
 H      6   5   4     2.061123003495   133.87581790   322.31158792
 H      7   2   1     2.040541119952   126.66122480    24.87951136
 H     10   1   2     2.048605202362   118.80506149    48.22047935
 H     12   9   2     1.920524309565   125.29023241   180.00180175
 H     14  13  12     1.917952867083    44.97226959   359.42596618
 H     18  14  13     2.046330847636   128.03556573   234.20482432
 H     19  17  13     2.042592906181   126.41830519   178.11313280
 H     21  20  18     2.047649722989   121.05669627   180.67006309
 H     22  21  20     2.045596898814   122.73097286   180.59748951
 H     23  18  14     2.063779938267   103.92715769   234.93429879
 H     23  18  14     2.057669673245   134.19244188    12.25587044
 H     23  18  14     2.059486796529    84.85857450   125.45241208
 H     24  19  17     2.041046823986   127.28078426   178.44613241
 H     26  18  14     2.047344503340   118.76995697   244.94906660
 H     30  14  13     2.046012340948   127.99711412   279.66882698
 H     31  29  14     2.040450114918   125.22293469   180.92530585
 H     33  32  30     2.046930203877   121.01964473   180.74284758
 H     34  33  32     2.045617847496   122.70821597   180.59516895
 H     35  34  33     2.064814429233   105.73575241    97.19771933
 H     35  34  33     2.058786158072    84.05943581   206.43036958
 H     35  34  33     2.058418400901   133.08365142   318.50306270
 H     36  31  29     2.039845353366   126.61599965   178.98859863
 H     38  30  73     2.047975821711   118.77264435   359.90091293
 H     42   2   1     2.045020725966   119.31790784   324.39485602
 H     43  41  15     2.041436952892   126.36969097   182.06329380
 H     45  44  42     2.047097678177   121.10105945   179.58025624
 H     46  45  44     2.045051284662   122.72144639   179.46906377
 H     47  42   2     2.062723288131   106.65128841   315.16475048
 H     47  42   2     2.057569012371   132.46019523    94.52397119
 H     47  42   2     2.058915377895    83.63838232   206.04504406
 H     48  43  41     2.041664347903   127.23657387   181.62955349
 H     50  42   2     2.046925842384   118.77001737    94.71359229

---------------------
BASIS SET INFORMATION
---------------------
There are 3 groups of distinct atoms

 Group   1 Type C   : 17s4p1d contracted to 3s2p1d pattern {881/31/1}
 Group   2 Type N   : 17s4p1d contracted to 3s2p1d pattern {881/31/1}
 Group   3 Type H   : 4s1p contracted to 2s1p pattern {31/1}

Atom   0C    basis set group =>   1
Atom   1N    basis set group =>   2
Atom   2C    basis set group =>   1
Atom   3N    basis set group =>   2
Atom   4C    basis set group =>   1
Atom   5N    basis set group =>   2
Atom   6C    basis set group =>   1
Atom   7N    basis set group =>   2
Atom   8C    basis set group =>   1
Atom   9N    basis set group =>   2
Atom  10C    basis set group =>   1
Atom  11N    basis set group =>   2
Atom  12C    basis set group =>   1
Atom  13N    basis set group =>   2
Atom  14C    basis set group =>   1
Atom  15N    basis set group =>   2
Atom  16C    basis set group =>   1
Atom  17C    basis set group =>   1
Atom  18C    basis set group =>   1
Atom  19C    basis set group =>   1
Atom  20C    basis set group =>   1
Atom  21C    basis set group =>   1
Atom  22C    basis set group =>   1
Atom  23C    basis set group =>   1
Atom  24C    basis set group =>   1
Atom  25C    basis set group =>   1
Atom  26C    basis set group =>   1
Atom  27C    basis set group =>   1
Atom  28C    basis set group =>   1
Atom  29C    basis set group =>   1
Atom  30C    basis set group =>   1
Atom  31C    basis set group =>   1
Atom  32C    basis set group =>   1
Atom  33C    basis set group =>   1
Atom  34C    basis set group =>   1
Atom  35C    basis set group =>   1
Atom  36C    basis set group =>   1
Atom  37C    basis set group =>   1
Atom  38C    basis set group =>   1
Atom  39C    basis set group =>   1
Atom  40C    basis set group =>   1
Atom  41C    basis set group =>   1
Atom  42C    basis set group =>   1
Atom  43C    basis set group =>   1
Atom  44C    basis set group =>   1
Atom  45C    basis set group =>   1
Atom  46C    basis set group =>   1
Atom  47C    basis set group =>   1
Atom  48C    basis set group =>   1
Atom  49C    basis set group =>   1
Atom  50C    basis set group =>   1
Atom  51C    basis set group =>   1
Atom  52H    basis set group =>   3
Atom  53H    basis set group =>   3
Atom  54H    basis set group =>   3
Atom  55H    basis set group =>   3
Atom  56H    basis set group =>   3
Atom  57H    basis set group =>   3
Atom  58H    basis set group =>   3
Atom  59H    basis set group =>   3
Atom  60H    basis set group =>   3
Atom  61H    basis set group =>   3
Atom  62H    basis set group =>   3
Atom  63H    basis set group =>   3
Atom  64H    basis set group =>   3
Atom  65H    basis set group =>   3
Atom  66H    basis set group =>   3
Atom  67H    basis set group =>   3
Atom  68H    basis set group =>   3
Atom  69H    basis set group =>   3
Atom  70H    basis set group =>   3
Atom  71H    basis set group =>   3
Atom  72H    basis set group =>   3
Atom  73H    basis set group =>   3
Atom  74H    basis set group =>   3
Atom  75H    basis set group =>   3
Atom  76H    basis set group =>   3
Atom  77H    basis set group =>   3
Atom  78H    basis set group =>   3
Atom  79H    basis set group =>   3
Atom  80H    basis set group =>   3
Atom  81H    basis set group =>   3
Atom  82H    basis set group =>   3
Atom  83H    basis set group =>   3
Atom  84H    basis set group =>   3
Atom  85H    basis set group =>   3
Atom  86H    basis set group =>   3
Atom  87H    basis set group =>   3
Atom  88H    basis set group =>   3
Atom  89H    basis set group =>   3


           ************************************************************
           *        Program running with 8 parallel MPI-processes     *
           *              working on a common directory               *
           ************************************************************
------------------------------------------------------------------------------
                           ORCA GTO INTEGRAL CALCULATION
------------------------------------------------------------------------------
------------------------------------------------------------------------------
                   ___                                                        
                  /   \      - P O W E R E D   B Y -                         
                 /     \                                                     
                 |  |  |   _    _      __       _____    __    __             
                 |  |  |  | |  | |    /  \     |  _  \  |  |  /  |          
                  \  \/   | |  | |   /    \    | | | |  |  | /  /          
                 / \  \   | |__| |  /  /\  \   | |_| |  |  |/  /          
                |  |  |   |  __  | /  /__\  \  |    /   |      \           
                |  |  |   | |  | | |   __   |  |    \   |  |\   \          
                \     /   | |  | | |  |  |  |  | |\  \  |  | \   \       
                 \___/    |_|  |_| |__|  |__|  |_| \__\ |__|  \__/        
                                                                              
                      - O R C A' S   B I G   F R I E N D -                    
                                      &                                       
                       - I N T E G R A L  F E E D E R -                       
                                                                              
 v1 FN, 2020, v2 2021                                                         
------------------------------------------------------------------------------


Reading SHARK input file /scratch/chu_02/allen/tmpyp4_amber_gaff2/conf1/conf1/Conf329.orca.SHARKINP.tmp ... ok
----------------------
SHARK INTEGRAL PACKAGE
----------------------

Number of atoms                             ...     90
Number of basis functions                   ...   1230
Number of shells                            ...    738
Maximum angular momentum                    ...      2
Integral batch strategy                     ... SHARK/LIBINT Hybrid
RI-J (if used) integral strategy            ... SPLIT-RIJ (Revised 2003 algorithm where possible)
Printlevel                                  ...      1
Contraction scheme used                     ... PARTIAL GENERAL contraction
Coulomb Range Separation                    ... NOT USED
Exchange Range Separation                   ... NOT USED
Finite Nucleus Model                        ... NOT USED
Auxiliary Coulomb fitting basis             ... NOT available
Auxiliary J/K fitting basis                 ... NOT available
Auxiliary Correlation fitting basis         ... NOT available
Auxiliary 'external' fitting basis          ... NOT available
Integral threshold                          ...     2.500000e-11
Primitive cut-off                           ...     2.500000e-12
Primitive pair pre-selection threshold      ...     2.500000e-12

Calculating pre-screening integrals         ... done (  0.1 sec) Dimension = 738
Calculating pre-screening integrals (ORCA)  ... done (  0.3 sec) Dimension = 426
Organizing shell pair data                  ... done (  0.5 sec)
Shell pair information
Total number of shell pairs                 ...    272691
Shell pairs after pre-screening             ...     71650
Total number of primitive shell pairs       ...    422091
Primitive shell pairs kept                  ...     92490
          la=0 lb=0:  29407 shell pairs
          la=1 lb=0:  26000 shell pairs
          la=1 lb=1:   4707 shell pairs
          la=2 lb=0:   7885 shell pairs
          la=2 lb=1:   3122 shell pairs
          la=2 lb=2:    529 shell pairs

Calculating one electron integrals          ... done (  0.2 sec)
Calculating Nuclear repulsion               ... done (  0.0 sec) ENN=   6230.792337611404 Eh

SHARK setup successfully completed in   1.6 seconds

Maximum memory used throughout the entire GTOINT-calculation: 99.0 MB


           ************************************************************
           *        Program running with 8 parallel MPI-processes     *
           *              working on a common directory               *
           ************************************************************
-------------------------------------------------------------------------------
                                 ORCA SCF
-------------------------------------------------------------------------------

------------
SCF SETTINGS
------------
Hamiltonian:
 Ab initio Hamiltonian  Method          .... Hartree-Fock(GTOs)


General Settings:
 Integral files         IntName         .... /scratch/chu_02/allen/tmpyp4_amber_gaff2/conf1/conf1/Conf329.orca
 Hartree-Fock type      HFTyp           .... RHF
 Total Charge           Charge          ....    0
 Multiplicity           Mult            ....    1
 Number of Electrons    NEL             ....  358
 Basis Dimension        Dim             ....  918
 Nuclear Repulsion      ENuc            ....   6230.7923376114 Eh

Convergence Acceleration:
 DIIS                   CNVDIIS         .... on
   Start iteration      DIISMaxIt       ....    12
   Startup error        DIISStart       ....  0.200000
   # of expansion vecs  DIISMaxEq       ....     5
   Bias factor          DIISBfac        ....   1.050
   Max. coefficient     DIISMaxC        ....  10.000
 Trust-Rad. Augm. Hess. CNVTRAH         .... auto
   Auto Start mean grad. ratio tolernc. ....  1.125000
   Auto Start start iteration           ....    20
   Auto Start num. interpolation iter.  ....    10
   Max. Number of Micro iterations      ....    16
   Max. Number of Macro iterations      .... Maxiter - #DIIS iter
   Number of Davidson start vectors     ....     2
   Converg. threshold I  (grad. norm)   ....   1.000e-05
   Converg. threshold II (energy diff.) ....   1.000e-08
   Grad. Scal. Fac. for Micro threshold ....   0.100
   Minimum threshold for Micro iter.    ....   0.010
   NR start threshold (gradient norm)   ....   0.001
   Initial trust radius                 ....   0.400
   Minimum AH scaling param. (alpha)    ....   1.000
   Maximum AH scaling param. (alpha)    .... 1000.000
   Orbital update algorithm             .... Taylor
   White noise on init. David. guess    .... on
   Maximum white noise                  ....   0.010
   Quad. conv. algorithm                .... NR
 SOSCF                  CNVSOSCF        .... on
   Start iteration      SOSCFMaxIt      ....   150
   Startup grad/error   SOSCFStart      ....  0.003300
 Level Shifting         CNVShift        .... on
   Level shift para.    LevelShift      ....    0.2500
   Turn off err/grad.   ShiftErr        ....    0.0010
 Zerner damping         CNVZerner       .... off
 Static damping         CNVDamp         .... on
   Fraction old density DampFac         ....    0.7000
   Max. Damping (<1)    DampMax         ....    0.9800
   Min. Damping (>=0)   DampMin         ....    0.0000
   Turn off err/grad.   DampErr         ....    0.1000
 Fernandez-Rico         CNVRico         .... off

SCF Procedure:
 Maximum # iterations   MaxIter         ....   125
 SCF integral mode      SCFMode         .... Direct
   Integral package                     .... SHARK and LIBINT hybrid scheme
 Reset frequency        DirectResetFreq ....    20
 Integral Threshold     Thresh          ....  2.500e-11 Eh
 Primitive CutOff       TCut            ....  2.500e-12 Eh

Convergence Tolerance:
 Convergence Check Mode ConvCheckMode   .... Total+1el-Energy
 Convergence forced     ConvForced      .... 1
 Energy Change          TolE            ....  1.000e-08 Eh
 1-El. energy change                    ....  1.000e-05 Eh
 Orbital Gradient       TolG            ....  1.000e-05
 Orbital Rotation angle TolX            ....  1.000e-05
 DIIS Error             TolErr          ....  5.000e-07


Diagonalization of the overlap matrix:
Smallest eigenvalue                        ... 2.204e-04
Time for diagonalization                   ...    0.221 sec
Threshold for overlap eigenvalues          ... 1.000e-08
Number of eigenvalues below threshold      ... 0
Time for construction of square roots      ...    0.131 sec
Total time needed                          ...    0.357 sec

Time for model grid setup =    1.380 sec

------------------------------
INITIAL GUESS: MODEL POTENTIAL
------------------------------
Loading Hartree-Fock densities                     ... done
Calculating cut-offs                               ... done
Initializing the effective Hamiltonian             ... done
Setting up the integral package (SHARK)            ... done
Starting the Coulomb interaction                   ... done (   1.6 sec)
Reading the grid                                   ... done
Mapping shells                                     ... done
Starting the XC term evaluation                    ... done (   0.3 sec)
Transforming the Hamiltonian                       ... done (   0.1 sec)
Diagonalizing the Hamiltonian                      ... done (   0.2 sec)
Back transforming the eigenvectors                 ... done (   0.0 sec)
Now organizing SCF variables                       ... done
                      ------------------
                      INITIAL GUESS DONE (   3.7 sec)
                      ------------------
--------------
SCF ITERATIONS
--------------
ITER       Energy         Delta-E        Max-DP      RMS-DP      [F,P]     Damp
               ***  Starting incremental Fock matrix formation  ***
  0  -2121.6936992889   0.000000000000 0.07764273  0.00121494  0.2320326 0.7000
  1  -2122.3473445049  -0.653645216045 0.05832586  0.00098764  0.1437750 0.7000
                               ***Turning on DIIS***
  2  -2122.7539082264  -0.406563721421 0.13559840  0.00224376  0.0802545 0.0000
  3  -2117.9525037676   4.801404458738 0.03130069  0.00066778  0.0438459 0.0000
  4  -2123.4321814637  -5.479677696110 0.01019048  0.00022454  0.0080517 0.0000
  5  -2123.5874445940  -0.155263130275 0.00523310  0.00013199  0.0049797 0.0000
  6  -2123.5710102596   0.016434334377 0.00362515  0.00008487  0.0019958 0.0000
  7  -2123.6683521106  -0.097341850989 0.00308209  0.00006682  0.0015801 0.0000
  8  -2123.6789956903  -0.010643579702 0.00325797  0.00006309  0.0014698 0.0000
  9  -2123.6487175988   0.030278091506 0.00259966  0.00004417  0.0011754 0.0000
 10  -2123.6581287686  -0.009411169787 0.00523696  0.00009203  0.0009092 0.0000
                      *** Initiating the SOSCF procedure ***
                           *** Shutting down DIIS ***
                      *** Re-Reading the Fockian *** 
                      *** Removing any level shift *** 
ITER      Energy       Delta-E        Grad      Rot      Max-DP    RMS-DP
 11  -2123.54914676   0.1089820106  0.000185  0.000185  0.000243  0.000005
               *** Restarting incremental Fock matrix formation ***
 12  -2123.61519711  -0.0660503528  0.000847  0.006070  0.001378  0.000034
 13  -2123.61529936  -0.0001022541  0.001052  0.030947  0.006507  0.000134
 14  -2123.61547684  -0.0001774798  0.000340  0.001978  0.000639  0.000012
 15  -2123.61549247  -0.0000156239  0.000163  0.002690  0.000724  0.000017
 16  -2123.61550165  -0.0000091858  0.000159  0.002848  0.000465  0.000010
 17  -2123.61550455  -0.0000028976  0.000128  0.001911  0.000312  0.000007
 18  -2123.61550609  -0.0000015385  0.000069  0.000721  0.000285  0.000004
 19  -2123.61550677  -0.0000006817  0.000042  0.000578  0.000142  0.000003
 20  -2123.61550701  -0.0000002357  0.000021  0.000376  0.000093  0.000002
 21  -2123.61550712  -0.0000001135  0.000022  0.000400  0.000105  0.000002
 22  -2123.61550720  -0.0000000797  0.000016  0.000375  0.000083  0.000001
 23  -2123.61550725  -0.0000000491  0.000008  0.000267  0.000055  0.000001
 24  -2123.61550728  -0.0000000283  0.000005  0.000209  0.000038  0.000001
 25  -2123.61550730  -0.0000000168  0.000005  0.000154  0.000024  0.000001
 26  -2123.61550731  -0.0000000106  0.000004  0.000167  0.000025  0.000001
 27  -2123.61550731  -0.0000000073  0.000003  0.000144  0.000022  0.000000
                  ***Gradient check signals convergence***
              ***Rediagonalizing the Fockian in SOSCF/NRSCF***

               *****************************************************
               *                     SUCCESS                       *
               *           SCF CONVERGED AFTER  28 CYCLES          *
               *****************************************************


----------------
TOTAL SCF ENERGY
----------------

Total Energy       :        -2123.61550732 Eh          -57786.51576 eV

Components:
Nuclear Repulsion  :         6230.79233761 Eh          169548.47918 eV
Electronic Energy  :        -8354.40784493 Eh         -227334.99495 eV
One Electron Energy:       -15302.38477535 Eh         -416399.05906 eV
Two Electron Energy:         6947.97693042 Eh          189064.06411 eV

Virial components:
Potential Energy   :        -4245.76288262 Eh         -115533.08162 eV
Kinetic Energy     :         2122.14737530 Eh           57746.56586 eV
Virial Ratio       :            2.00069181


---------------
SCF CONVERGENCE
---------------

  Last Energy change         ...   -3.5143e-09  Tolerance :   1.0000e-08
  Last MAX-Density change    ...    1.3334e-05  Tolerance :   1.0000e-07
  Last RMS-Density change    ...    3.1164e-07  Tolerance :   5.0000e-09
  Last Orbital Gradient      ...    2.0304e-06  Tolerance :   1.0000e-05
  Last Orbital Rotation      ...    9.6300e-05  Tolerance :   1.0000e-05

             **** THE GBW FILE WAS UPDATED (/scratch/chu_02/allen/tmpyp4_amber_gaff2/conf1/conf1/Conf329.orca.gbw) ****
             **** DENSITY /scratch/chu_02/allen/tmpyp4_amber_gaff2/conf1/conf1/Conf329.orca.scfp WAS UPDATED ****
             **** ENERGY FILE WAS UPDATED (/scratch/chu_02/allen/tmpyp4_amber_gaff2/conf1/conf1/Conf329.orca.en.tmp) ****
             **** THE GBW FILE WAS UPDATED (/scratch/chu_02/allen/tmpyp4_amber_gaff2/conf1/conf1/Conf329.orca.gbw) ****
             **** DENSITY /scratch/chu_02/allen/tmpyp4_amber_gaff2/conf1/conf1/Conf329.orca.scfp WAS UPDATED ****
----------------
ORBITAL ENERGIES
----------------

  NO   OCC          E(Eh)            E(eV) 
   0   2.0000     -15.672193      -426.4620 
   1   2.0000     -15.637302      -425.5126 
   2   2.0000     -15.628867      -425.2831 
   3   2.0000     -15.590810      -424.2475 
   4   2.0000     -15.525099      -422.4594 
   5   2.0000     -15.515801      -422.2064 
   6   2.0000     -15.451682      -420.4616 
   7   2.0000     -15.442878      -420.2221 
   8   2.0000     -11.323560      -308.1297 
   9   2.0000     -11.323241      -308.1211 
  10   2.0000     -11.321484      -308.0732 
  11   2.0000     -11.301411      -307.5270 
  12   2.0000     -11.296442      -307.3918 
  13   2.0000     -11.295373      -307.3627 
  14   2.0000     -11.290012      -307.2168 
  15   2.0000     -11.288234      -307.1685 
  16   2.0000     -11.284341      -307.0625 
  17   2.0000     -11.274939      -306.8067 
  18   2.0000     -11.273370      -306.7640 
  19   2.0000     -11.258075      -306.3478 
  20   2.0000     -11.257132      -306.3221 
  21   2.0000     -11.257077      -306.3206 
  22   2.0000     -11.254053      -306.2384 
  23   2.0000     -11.240964      -305.8822 
  24   2.0000     -11.233706      -305.6847 
  25   2.0000     -11.233672      -305.6838 
  26   2.0000     -11.233134      -305.6691 
  27   2.0000     -11.227487      -305.5155 
  28   2.0000     -11.227181      -305.5071 
  29   2.0000     -11.210500      -305.0532 
  30   2.0000     -11.209055      -305.0139 
  31   2.0000     -11.200540      -304.7822 
  32   2.0000     -11.193843      -304.6000 
  33   2.0000     -11.193381      -304.5874 
  34   2.0000     -11.189451      -304.4804 
  35   2.0000     -11.188948      -304.4667 
  36   2.0000     -11.188242      -304.4476 
  37   2.0000     -11.184323      -304.3409 
  38   2.0000     -11.183304      -304.3132 
  39   2.0000     -11.174508      -304.0738 
  40   2.0000     -11.172884      -304.0296 
  41   2.0000     -11.168613      -303.9134 
  42   2.0000     -11.168400      -303.9076 
  43   2.0000     -11.162041      -303.7346 
  44   2.0000     -11.160468      -303.6918 
  45   2.0000     -11.158558      -303.6398 
  46   2.0000     -11.157621      -303.6143 
  47   2.0000     -11.152679      -303.4798 
  48   2.0000     -11.147457      -303.3377 
  49   2.0000     -11.140377      -303.1451 
  50   2.0000     -11.133987      -302.9712 
  51   2.0000     -11.125723      -302.7463 
  52   2.0000      -1.353919       -36.8420 
  53   2.0000      -1.324113       -36.0310 
  54   2.0000      -1.317026       -35.8381 
  55   2.0000      -1.285031       -34.9675 
  56   2.0000      -1.225757       -33.3545 
  57   2.0000      -1.210187       -32.9309 
  58   2.0000      -1.170359       -31.8471 
  59   2.0000      -1.153330       -31.3837 
  60   2.0000      -1.138208       -30.9722 
  61   2.0000      -1.112648       -30.2767 
  62   2.0000      -1.106782       -30.1171 
  63   2.0000      -1.080939       -29.4138 
  64   2.0000      -1.076087       -29.2818 
  65   2.0000      -1.048195       -28.5228 
  66   2.0000      -1.041793       -28.3486 
  67   2.0000      -1.037628       -28.2353 
  68   2.0000      -1.015019       -27.6201 
  69   2.0000      -1.013379       -27.5754 
  70   2.0000      -1.009402       -27.4672 
  71   2.0000      -0.993165       -27.0254 
  72   2.0000      -0.986923       -26.8555 
  73   2.0000      -0.979663       -26.6580 
  74   2.0000      -0.971939       -26.4478 
  75   2.0000      -0.960030       -26.1237 
  76   2.0000      -0.952445       -25.9174 
  77   2.0000      -0.946491       -25.7553 
  78   2.0000      -0.935372       -25.4528 
  79   2.0000      -0.919468       -25.0200 
  80   2.0000      -0.905247       -24.6330 
  81   2.0000      -0.893323       -24.3086 
  82   2.0000      -0.875557       -23.8251 
  83   2.0000      -0.872072       -23.7303 
  84   2.0000      -0.867439       -23.6042 
  85   2.0000      -0.855944       -23.2914 
  86   2.0000      -0.839841       -22.8532 
  87   2.0000      -0.837018       -22.7764 
  88   2.0000      -0.823310       -22.4034 
  89   2.0000      -0.798116       -21.7178 
  90   2.0000      -0.791951       -21.5501 
  91   2.0000      -0.749398       -20.3922 
  92   2.0000      -0.740345       -20.1458 
  93   2.0000      -0.733161       -19.9503 
  94   2.0000      -0.724261       -19.7081 
  95   2.0000      -0.720685       -19.6108 
  96   2.0000      -0.715238       -19.4626 
  97   2.0000      -0.709535       -19.3074 
  98   2.0000      -0.705082       -19.1863 
  99   2.0000      -0.696556       -18.9542 
 100   2.0000      -0.696077       -18.9412 
 101   2.0000      -0.683512       -18.5993 
 102   2.0000      -0.679789       -18.4980 
 103   2.0000      -0.679192       -18.4818 
 104   2.0000      -0.675978       -18.3943 
 105   2.0000      -0.671470       -18.2716 
 106   2.0000      -0.668132       -18.1808 
 107   2.0000      -0.661798       -18.0084 
 108   2.0000      -0.655488       -17.8367 
 109   2.0000      -0.653832       -17.7917 
 110   2.0000      -0.649147       -17.6642 
 111   2.0000      -0.642979       -17.4963 
 112   2.0000      -0.641117       -17.4457 
 113   2.0000      -0.640499       -17.4289 
 114   2.0000      -0.636867       -17.3300 
 115   2.0000      -0.626151       -17.0384 
 116   2.0000      -0.624395       -16.9907 
 117   2.0000      -0.616986       -16.7890 
 118   2.0000      -0.614940       -16.7334 
 119   2.0000      -0.613081       -16.6828 
 120   2.0000      -0.609175       -16.5765 
 121   2.0000      -0.606554       -16.5052 
 122   2.0000      -0.599498       -16.3132 
 123   2.0000      -0.586373       -15.9560 
 124   2.0000      -0.583331       -15.8732 
 125   2.0000      -0.581097       -15.8125 
 126   2.0000      -0.578728       -15.7480 
 127   2.0000      -0.577478       -15.7140 
 128   2.0000      -0.566298       -15.4098 
 129   2.0000      -0.558675       -15.2023 
 130   2.0000      -0.550834       -14.9890 
 131   2.0000      -0.547779       -14.9058 
 132   2.0000      -0.543502       -14.7894 
 133   2.0000      -0.540060       -14.6958 
 134   2.0000      -0.539502       -14.6806 
 135   2.0000      -0.534278       -14.5384 
 136   2.0000      -0.526448       -14.3254 
 137   2.0000      -0.523236       -14.2380 
 138   2.0000      -0.518224       -14.1016 
 139   2.0000      -0.513053       -13.9609 
 140   2.0000      -0.512390       -13.9428 
 141   2.0000      -0.510317       -13.8864 
 142   2.0000      -0.510155       -13.8820 
 143   2.0000      -0.503405       -13.6984 
 144   2.0000      -0.500650       -13.6234 
 145   2.0000      -0.496412       -13.5080 
 146   2.0000      -0.494134       -13.4461 
 147   2.0000      -0.483991       -13.1701 
 148   2.0000      -0.479766       -13.0551 
 149   2.0000      -0.466939       -12.7061 
 150   2.0000      -0.465692       -12.6721 
 151   2.0000      -0.457274       -12.4430 
 152   2.0000      -0.449765       -12.2387 
 153   2.0000      -0.446279       -12.1439 
 154   2.0000      -0.442396       -12.0382 
 155   2.0000      -0.435894       -11.8613 
 156   2.0000      -0.429502       -11.6873 
 157   2.0000      -0.423172       -11.5151 
 158   2.0000      -0.404800       -11.0152 
 159   2.0000      -0.386752       -10.5240 
 160   2.0000      -0.382658       -10.4127 
 161   2.0000      -0.378434       -10.2977 
 162   2.0000      -0.371069       -10.0973 
 163   2.0000      -0.358978        -9.7683 
 164   2.0000      -0.353731        -9.6255 
 165   2.0000      -0.339499        -9.2382 
 166   2.0000      -0.337688        -9.1890 
 167   2.0000      -0.327388        -8.9087 
 168   2.0000      -0.325286        -8.8515 
 169   2.0000      -0.304665        -8.2903 
 170   2.0000      -0.299517        -8.1503 
 171   2.0000      -0.285907        -7.7799 
 172   2.0000      -0.282190        -7.6788 
 173   2.0000      -0.261628        -7.1193 
 174   2.0000      -0.243844        -6.6353 
 175   2.0000      -0.189928        -5.1682 
 176   2.0000      -0.180283        -4.9057 
 177   2.0000      -0.075428        -2.0525 
 178   2.0000      -0.058275        -1.5857 
 179   0.0000       0.028462         0.7745 
 180   0.0000       0.066395         1.8067 
 181   0.0000       0.091518         2.4903 
 182   0.0000       0.109276         2.9735 
 183   0.0000       0.111264         3.0276 
 184   0.0000       0.134898         3.6708 
 185   0.0000       0.141225         3.8429 
 186   0.0000       0.144881         3.9424 
 187   0.0000       0.163201         4.4409 
 188   0.0000       0.164355         4.4723 
 189   0.0000       0.167327         4.5532 
 190   0.0000       0.169435         4.6106 
 191   0.0000       0.184348         5.0164 
 192   0.0000       0.186637         5.0787 
 193   0.0000       0.187773         5.1096 
 194   0.0000       0.202983         5.5235 
 195   0.0000       0.206332         5.6146 
 196   0.0000       0.207332         5.6418 
 197   0.0000       0.210401         5.7253 
 198   0.0000       0.220204         5.9920 
 199   0.0000       0.225896         6.1469 
 200   0.0000       0.232212         6.3188 
 201   0.0000       0.236841         6.4448 
 202   0.0000       0.238373         6.4864 
 203   0.0000       0.241153         6.5621 
 204   0.0000       0.248396         6.7592 
 205   0.0000       0.255231         6.9452 
 206   0.0000       0.257766         7.0142 
 207   0.0000       0.258860         7.0439 
 208   0.0000       0.260650         7.0927 
 209   0.0000       0.261711         7.1215 
 210   0.0000       0.262525         7.1437 
 211   0.0000       0.268826         7.3151 
 212   0.0000       0.269988         7.3468 
 213   0.0000       0.271843         7.3972 
 214   0.0000       0.273189         7.4339 
 215   0.0000       0.277233         7.5439 
 216   0.0000       0.279124         7.5953 
 217   0.0000       0.280506         7.6330 
 218   0.0000       0.285628         7.7723 
 219   0.0000       0.288256         7.8438 
 220   0.0000       0.289415         7.8754 
 221   0.0000       0.292808         7.9677 
 222   0.0000       0.294444         8.0122 
 223   0.0000       0.295535         8.0419 
 224   0.0000       0.298205         8.1146 
 225   0.0000       0.299629         8.1533 
 226   0.0000       0.306180         8.3316 
 227   0.0000       0.308404         8.3921 
 228   0.0000       0.309804         8.4302 
 229   0.0000       0.323460         8.8018 
 230   0.0000       0.326259         8.8780 
 231   0.0000       0.331012         9.0073 
 232   0.0000       0.331810         9.0290 
 233   0.0000       0.336913         9.1679 
 234   0.0000       0.349756         9.5173 
 235   0.0000       0.353120         9.6089 
 236   0.0000       0.363379         9.8880 
 237   0.0000       0.377983        10.2854 
 238   0.0000       0.393669        10.7123 
 239   0.0000       0.396546        10.7906 
 240   0.0000       0.400770        10.9055 
 241   0.0000       0.411135        11.1876 
 242   0.0000       0.415867        11.3163 
 243   0.0000       0.419509        11.4154 
 244   0.0000       0.427441        11.6313 
 245   0.0000       0.434583        11.8256 
 246   0.0000       0.437262        11.8985 
 247   0.0000       0.438722        11.9382 
 248   0.0000       0.443264        12.0618 
 249   0.0000       0.449316        12.2265 
 250   0.0000       0.454442        12.3660 
 251   0.0000       0.459338        12.4992 
 252   0.0000       0.465728        12.6731 
 253   0.0000       0.469641        12.7796 
 254   0.0000       0.471523        12.8308 
 255   0.0000       0.474115        12.9013 
 256   0.0000       0.478397        13.0178 
 257   0.0000       0.481924        13.1138 
 258   0.0000       0.486248        13.2315 
 259   0.0000       0.498334        13.5603 
 260   0.0000       0.502737        13.6802 
 261   0.0000       0.504183        13.7195 
 262   0.0000       0.507129        13.7997 
 263   0.0000       0.509466        13.8633 
 264   0.0000       0.514309        13.9950 
 265   0.0000       0.517232        14.0746 
 266   0.0000       0.524247        14.2655 
 267   0.0000       0.528012        14.3679 
 268   0.0000       0.532291        14.4844 
 269   0.0000       0.537818        14.6348 
 270   0.0000       0.540189        14.6993 
 271   0.0000       0.547026        14.8853 
 272   0.0000       0.552574        15.0363 
 273   0.0000       0.558209        15.1896 
 274   0.0000       0.561691        15.2844 
 275   0.0000       0.565234        15.3808 
 276   0.0000       0.569349        15.4928 
 277   0.0000       0.572034        15.5658 
 278   0.0000       0.577285        15.7087 
 279   0.0000       0.586835        15.9686 
 280   0.0000       0.589261        16.0346 
 281   0.0000       0.589948        16.0533 
 282   0.0000       0.594052        16.1650 
 283   0.0000       0.596781        16.2392 
 284   0.0000       0.597923        16.2703 
 285   0.0000       0.599937        16.3251 
 286   0.0000       0.608292        16.5525 
 287   0.0000       0.612429        16.6650 
 288   0.0000       0.613614        16.6973 
 289   0.0000       0.625651        17.0248 
 290   0.0000       0.627079        17.0637 
 291   0.0000       0.628699        17.1078 
 292   0.0000       0.634929        17.2773 
 293   0.0000       0.635567        17.2946 
 294   0.0000       0.646260        17.5856 
 295   0.0000       0.649443        17.6723 
 296   0.0000       0.653682        17.7876 
 297   0.0000       0.656594        17.8668 
 298   0.0000       0.664219        18.0743 
 299   0.0000       0.667782        18.1713 
 300   0.0000       0.668743        18.1974 
 301   0.0000       0.673841        18.3362 
 302   0.0000       0.676696        18.4138 
 303   0.0000       0.678457        18.4618 
 304   0.0000       0.682126        18.5616 
 305   0.0000       0.686958        18.6931 
 306   0.0000       0.689003        18.7487 
 307   0.0000       0.691225        18.8092 
 308   0.0000       0.695637        18.9292 
 309   0.0000       0.697854        18.9896 
 310   0.0000       0.701996        19.1023 
 311   0.0000       0.704206        19.1624 
 312   0.0000       0.708173        19.2704 
 313   0.0000       0.709183        19.2978 
 314   0.0000       0.711423        19.3588 
 315   0.0000       0.713980        19.4284 
 316   0.0000       0.716946        19.5091 
 317   0.0000       0.718788        19.5592 
 318   0.0000       0.722505        19.6604 
 319   0.0000       0.722882        19.6706 
 320   0.0000       0.726708        19.7747 
 321   0.0000       0.730299        19.8724 
 322   0.0000       0.732260        19.9258 
 323   0.0000       0.734837        19.9959 
 324   0.0000       0.736971        20.0540 
 325   0.0000       0.741791        20.1852 
 326   0.0000       0.744855        20.2685 
 327   0.0000       0.745791        20.2940 
 328   0.0000       0.750061        20.4102 
 329   0.0000       0.751037        20.4368 
 330   0.0000       0.752853        20.4862 
 331   0.0000       0.756104        20.5746 
 332   0.0000       0.761036        20.7089 
 333   0.0000       0.761536        20.7225 
 334   0.0000       0.769230        20.9318 
 335   0.0000       0.772832        21.0298 
 336   0.0000       0.773912        21.0592 
 337   0.0000       0.783038        21.3076 
 338   0.0000       0.785388        21.3715 
 339   0.0000       0.786567        21.4036 
 340   0.0000       0.789726        21.4895 
 341   0.0000       0.795814        21.6552 
 342   0.0000       0.796431        21.6720 
 343   0.0000       0.802252        21.8304 
 344   0.0000       0.804073        21.8799 
 345   0.0000       0.807099        21.9623 
 346   0.0000       0.807701        21.9787 
 347   0.0000       0.812006        22.0958 
 348   0.0000       0.816014        22.2049 
 349   0.0000       0.818725        22.2786 
 350   0.0000       0.819028        22.2869 
 351   0.0000       0.819791        22.3076 
 352   0.0000       0.823118        22.3982 
 353   0.0000       0.825552        22.4644 
 354   0.0000       0.829164        22.5627 
 355   0.0000       0.830678        22.6039 
 356   0.0000       0.832706        22.6591 
 357   0.0000       0.835649        22.7392 
 358   0.0000       0.836462        22.7613 
 359   0.0000       0.839401        22.8413 
 360   0.0000       0.841754        22.9053 
 361   0.0000       0.843166        22.9437 
 362   0.0000       0.844209        22.9721 
 363   0.0000       0.846534        23.0354 
 364   0.0000       0.848871        23.0990 
 365   0.0000       0.854040        23.2396 
 366   0.0000       0.857185        23.3252 
 367   0.0000       0.860713        23.4212 
 368   0.0000       0.864231        23.5169 
 369   0.0000       0.865489        23.5512 
 370   0.0000       0.870708        23.6932 
 371   0.0000       0.871561        23.7164 
 372   0.0000       0.873600        23.7719 
 373   0.0000       0.877735        23.8844 
 374   0.0000       0.880664        23.9641 
 375   0.0000       0.881902        23.9978 
 376   0.0000       0.885625        24.0991 
 377   0.0000       0.887915        24.1614 
 378   0.0000       0.892519        24.2867 
 379   0.0000       0.893452        24.3121 
 380   0.0000       0.896607        24.3979 
 381   0.0000       0.899439        24.4750 
 382   0.0000       0.901373        24.5276 
 383   0.0000       0.902756        24.5652 
 384   0.0000       0.903588        24.5879 
 385   0.0000       0.905639        24.6437 
 386   0.0000       0.906084        24.6558 
 387   0.0000       0.909044        24.7363 
 388   0.0000       0.911394        24.8003 
 389   0.0000       0.915322        24.9072 
 390   0.0000       0.921454        25.0740 
 391   0.0000       0.921804        25.0836 
 392   0.0000       0.924794        25.1649 
 393   0.0000       0.927811        25.2470 
 394   0.0000       0.928692        25.2710 
 395   0.0000       0.930024        25.3072 
 396   0.0000       0.931802        25.3556 
 397   0.0000       0.937971        25.5235 
 398   0.0000       0.941260        25.6130 
 399   0.0000       0.942351        25.6427 
 400   0.0000       0.944083        25.6898 
 401   0.0000       0.950144        25.8547 
 402   0.0000       0.953068        25.9343 
 403   0.0000       0.953986        25.9593 
 404   0.0000       0.960791        26.1445 
 405   0.0000       0.963447        26.2167 
 406   0.0000       0.965280        26.2666 
 407   0.0000       0.967849        26.3365 
 408   0.0000       0.969303        26.3761 
 409   0.0000       0.976894        26.5826 
 410   0.0000       0.980773        26.6882 
 411   0.0000       0.984404        26.7870 
 412   0.0000       0.990331        26.9483 
 413   0.0000       0.995118        27.0785 
 414   0.0000       0.997679        27.1482 
 415   0.0000       1.005291        27.3554 
 416   0.0000       1.005775        27.3685 
 417   0.0000       1.009461        27.4688 
 418   0.0000       1.012525        27.5522 
 419   0.0000       1.021246        27.7895 
 420   0.0000       1.026361        27.9287 
 421   0.0000       1.029122        28.0038 
 422   0.0000       1.041216        28.3329 
 423   0.0000       1.043735        28.4015 
 424   0.0000       1.048400        28.5284 
 425   0.0000       1.056804        28.7571 
 426   0.0000       1.060444        28.8562 
 427   0.0000       1.063330        28.9347 
 428   0.0000       1.071342        29.1527 
 429   0.0000       1.075711        29.2716 
 430   0.0000       1.079568        29.3765 
 431   0.0000       1.083568        29.4854 
 432   0.0000       1.086745        29.5718 
 433   0.0000       1.091084        29.6899 
 434   0.0000       1.096887        29.8478 
 435   0.0000       1.104075        30.0434 
 436   0.0000       1.107956        30.1490 
 437   0.0000       1.112547        30.2739 
 438   0.0000       1.113707        30.3055 
 439   0.0000       1.117511        30.4090 
 440   0.0000       1.120648        30.4944 
 441   0.0000       1.122833        30.5538 
 442   0.0000       1.126384        30.6505 
 443   0.0000       1.129339        30.7309 
 444   0.0000       1.131203        30.7816 
 445   0.0000       1.134395        30.8685 
 446   0.0000       1.141926        31.0734 
 447   0.0000       1.146543        31.1990 
 448   0.0000       1.148218        31.2446 
 449   0.0000       1.150681        31.3116 
 450   0.0000       1.152455        31.3599 
 451   0.0000       1.154701        31.4210 
 452   0.0000       1.159373        31.5481 
 453   0.0000       1.163162        31.6513 
 454   0.0000       1.165079        31.7034 
 455   0.0000       1.169357        31.8198 
 456   0.0000       1.174555        31.9613 
 457   0.0000       1.177454        32.0401 
 458   0.0000       1.181899        32.1611 
 459   0.0000       1.186110        32.2757 
 460   0.0000       1.187782        32.3212 
 461   0.0000       1.197165        32.5765 
 462   0.0000       1.201783        32.7022 
 463   0.0000       1.203904        32.7599 
 464   0.0000       1.205288        32.7975 
 465   0.0000       1.208152        32.8755 
 466   0.0000       1.211277        32.9605 
 467   0.0000       1.216304        33.0973 
 468   0.0000       1.219801        33.1925 
 469   0.0000       1.226633        33.3784 
 470   0.0000       1.228673        33.4339 
 471   0.0000       1.233077        33.5537 
 472   0.0000       1.234216        33.5847 
 473   0.0000       1.236288        33.6411 
 474   0.0000       1.242262        33.8037 
 475   0.0000       1.243855        33.8470 
 476   0.0000       1.248546        33.9747 
 477   0.0000       1.251712        34.0608 
 478   0.0000       1.253790        34.1174 
 479   0.0000       1.254333        34.1321 
 480   0.0000       1.257960        34.2308 
 481   0.0000       1.262015        34.3412 
 482   0.0000       1.269074        34.5333 
 483   0.0000       1.272683        34.6315 
 484   0.0000       1.274836        34.6900 
 485   0.0000       1.276850        34.7448 
 486   0.0000       1.280046        34.8318 
 487   0.0000       1.284572        34.9550 
 488   0.0000       1.288712        35.0676 
 489   0.0000       1.291823        35.1523 
 490   0.0000       1.293544        35.1991 
 491   0.0000       1.296398        35.2768 
 492   0.0000       1.300512        35.3887 
 493   0.0000       1.303397        35.4672 
 494   0.0000       1.310976        35.6735 
 495   0.0000       1.313827        35.7511 
 496   0.0000       1.318534        35.8791 
 497   0.0000       1.321746        35.9665 
 498   0.0000       1.326013        36.0826 
 499   0.0000       1.328393        36.1474 
 500   0.0000       1.331879        36.2423 
 501   0.0000       1.335428        36.3389 
 502   0.0000       1.336645        36.3720 
 503   0.0000       1.344815        36.5943 
 504   0.0000       1.347329        36.6627 
 505   0.0000       1.349843        36.7311 
 506   0.0000       1.350741        36.7555 
 507   0.0000       1.356518        36.9127 
 508   0.0000       1.360412        37.0187 
[...]
 76 H s       :     0.886515  s :     0.886515
      pz      :     0.022090  p :     0.079749
      px      :     0.043565
      py      :     0.014094
 77 H s       :     0.885347  s :     0.885347
      pz      :     0.047921  p :     0.079221
      px      :     0.015021
      py      :     0.016279
 78 H s       :     0.885760  s :     0.885760
      pz      :     0.025850  p :     0.079175
      px      :     0.020472
      py      :     0.032854
 79 H s       :     0.910155  s :     0.910155
      pz      :     0.021858  p :     0.086410
      px      :     0.021680
      py      :     0.042873
 80 H s       :     0.865673  s :     0.865673
      pz      :     0.039296  p :     0.084712
      px      :     0.030230
      py      :     0.015186
 81 H s       :     0.887124  s :     0.887124
      pz      :     0.037796  p :     0.084078
      px      :     0.016191
      py      :     0.030090
 82 H s       :     0.916094  s :     0.916094
      pz      :     0.022001  p :     0.086738
      px      :     0.031590
      py      :     0.033147
 83 H s       :     0.873746  s :     0.873746
      pz      :     0.039230  p :     0.084034
      px      :     0.015282
      py      :     0.029523
 84 H s       :     0.887167  s :     0.887167
      pz      :     0.035745  p :     0.083485
      px      :     0.031686
      py      :     0.016054
 85 H s       :     0.893339  s :     0.893339
      pz      :     0.022482  p :     0.079762
      px      :     0.014086
      py      :     0.043193
 86 H s       :     0.891230  s :     0.891230
      pz      :     0.024720  p :     0.078810
      px      :     0.032964
      py      :     0.021127
 87 H s       :     0.890112  s :     0.890112
      pz      :     0.047992  p :     0.078715
      px      :     0.015588
      py      :     0.015135
 88 H s       :     0.911090  s :     0.911090
      pz      :     0.021735  p :     0.087033
      px      :     0.042852
      py      :     0.022446
 89 H s       :     0.871455  s :     0.871455
      pz      :     0.037938  p :     0.083831
      px      :     0.030469
      py      :     0.015424


                      *****************************
                      * MAYER POPULATION ANALYSIS *
                      *****************************

  NA   - Mulliken gross atomic population
  ZA   - Total nuclear charge
  QA   - Mulliken gross atomic charge
  VA   - Mayer's total valence
  BVA  - Mayer's bonded valence
  FA   - Mayer's free valence

  ATOM       NA         ZA         QA         VA         BVA        FA
  0 C      5.7894     6.0000     0.2106     3.8439     3.8439    -0.0000
  1 N      7.4550     7.0000    -0.4550     3.3295     3.3295    -0.0000
  2 C      6.0668     6.0000    -0.0668     3.9211     3.9211     0.0000
  3 N      7.3369     7.0000    -0.3369     3.4594     3.4594    -0.0000
  4 C      6.0551     6.0000    -0.0551     4.0240     4.0240     0.0000
  5 N      7.5616     7.0000    -0.5616     3.0960     3.0960    -0.0000
  6 C      6.1131     6.0000    -0.1131     3.9995     3.9995     0.0000
  7 N      7.3403     7.0000    -0.3403     3.4342     3.4342     0.0000
  8 C      5.7951     6.0000     0.2049     3.8391     3.8391    -0.0000
  9 N      7.5627     7.0000    -0.5627     3.0787     3.0787     0.0000
 10 C      5.8816     6.0000     0.1184     3.9088     3.9088     0.0000
 11 N      7.4378     7.0000    -0.4378     3.3816     3.3816    -0.0000
 12 C      6.0801     6.0000    -0.0801     3.8992     3.8992     0.0000
 13 N      7.4312     7.0000    -0.4312     3.4200     3.4200    -0.0000
 14 C      5.7775     6.0000     0.2225     3.7841     3.7841     0.0000
 15 N      7.4415     7.0000    -0.4415     3.3696     3.3696     0.0000
 16 C      5.7698     6.0000     0.2302     3.7792     3.7792    -0.0000
 17 C      6.1219     6.0000    -0.1219     4.0005     4.0005    -0.0000
 18 C      6.1642     6.0000    -0.1642     3.7572     3.7572     0.0000
 19 C      5.7918     6.0000     0.2082     3.8637     3.8637    -0.0000
 20 C      5.7861     6.0000     0.2139     3.8282     3.8282    -0.0000
 21 C      6.0929     6.0000    -0.0929     3.8940     3.8940     0.0000
 22 C      6.0889     6.0000    -0.0889     3.9818     3.9818    -0.0000
 23 C      6.0412     6.0000    -0.0412     3.9922     3.9922     0.0000
 24 C      5.8035     6.0000     0.1965     3.8215     3.8215    -0.0000
 25 C      5.8858     6.0000     0.1142     3.8903     3.8903     0.0000
 26 C      6.0769     6.0000    -0.0769     3.9055     3.9055    -0.0000
 27 C      5.7877     6.0000     0.2123     3.8644     3.8644    -0.0000
 28 C      6.0600     6.0000    -0.0600     3.9887     3.9887     0.0000
 29 C      6.1809     6.0000    -0.1809     3.7451     3.7451    -0.0000
 30 C      5.7558     6.0000     0.2442     3.7977     3.7977    -0.0000
 31 C      5.7719     6.0000     0.2281     3.8193     3.8193    -0.0000
 32 C      6.0616     6.0000    -0.0616     3.9230     3.9230    -0.0000
 33 C      6.0641     6.0000    -0.0641     3.9741     3.9741     0.0000
 34 C      6.0498     6.0000    -0.0498     3.9853     3.9853     0.0000
 35 C      5.7769     6.0000     0.2231     3.8179     3.8179     0.0000
 36 C      5.8908     6.0000     0.1092     3.8776     3.8776     0.0000
 37 C      6.0647     6.0000    -0.0647     3.9175     3.9175     0.0000
 38 C      5.7668     6.0000     0.2332     3.8018     3.8018     0.0000
 39 C      6.0593     6.0000    -0.0593     3.9844     3.9844     0.0000
 40 C      6.1818     6.0000    -0.1818     3.7291     3.7291     0.0000
 41 C      5.7762     6.0000     0.2238     3.8855     3.8855     0.0000
 42 C      5.8025     6.0000     0.1975     3.8264     3.8264    -0.0000
 43 C      6.0728     6.0000    -0.0728     3.9002     3.9002     0.0000
 44 C      6.0911     6.0000    -0.0911     3.9858     3.9858    -0.0000
 45 C      6.0603     6.0000    -0.0603     3.9922     3.9922    -0.0000
 46 C      5.7909     6.0000     0.2091     3.8286     3.8286     0.0000
 47 C      5.8843     6.0000     0.1157     3.8939     3.8939     0.0000
 48 C      6.0685     6.0000    -0.0685     3.9086     3.9086     0.0000
 49 C      5.7635     6.0000     0.2365     3.8936     3.8936     0.0000
 50 C      6.0474     6.0000    -0.0474     3.9906     3.9906     0.0000
 51 C      6.1936     6.0000    -0.1936     3.7367     3.7367    -0.0000
 52 H      0.9592     1.0000     0.0408     0.9858     0.9858    -0.0000
 53 H      1.0166     1.0000    -0.0166     0.9985     0.9985     0.0000
 54 H      0.9471     1.0000     0.0529     1.0162     1.0162     0.0000
 55 H      0.9617     1.0000     0.0383     0.9868     0.9868    -0.0000
 56 H      0.9508     1.0000     0.0492     0.9697     0.9697    -0.0000
 57 H      0.9511     1.0000     0.0489     0.9824     0.9824    -0.0000
 58 H      0.9525     1.0000     0.0475     0.9851     0.9851     0.0000
 59 H      0.9987     1.0000     0.0013     1.0043     1.0043    -0.0000
 60 H      0.9495     1.0000     0.0505     1.0128     1.0128     0.0000
 61 H      0.8290     1.0000     0.1710     1.0419     1.0419    -0.0000
 62 H      0.8247     1.0000     0.1753     1.0436     1.0436     0.0000
 63 H      0.9435     1.0000     0.0565     0.9852     0.9852    -0.0000
 64 H      1.0040     1.0000    -0.0040     0.9972     0.9972     0.0000
 65 H      0.9530     1.0000     0.0470     1.0097     1.0097     0.0000
 66 H      0.9434     1.0000     0.0566     0.9854     0.9854    -0.0000
 67 H      0.9367     1.0000     0.0633     0.9720     0.9720    -0.0000
 68 H      0.9422     1.0000     0.0578     0.9868     0.9868     0.0000
 69 H      0.9427     1.0000     0.0573     0.9829     0.9829     0.0000
 70 H      1.0282     1.0000    -0.0282     0.9931     0.9931    -0.0000
 71 H      0.9538     1.0000     0.0462     1.0060     1.0060     0.0000
 72 H      0.9310     1.0000     0.0690     0.9838     0.9838     0.0000
 73 H      1.0087     1.0000    -0.0087     1.0005     1.0005    -0.0000
 74 H      0.9417     1.0000     0.0583     1.0102     1.0102     0.0000
 75 H      0.9318     1.0000     0.0682     0.9842     0.9842     0.0000
 76 H      0.9271     1.0000     0.0729     0.9721     0.9721    -0.0000
 77 H      0.9336     1.0000     0.0664     0.9854     0.9854    -0.0000
 78 H      0.9344     1.0000     0.0656     0.9853     0.9853    -0.0000
 79 H      1.0156     1.0000    -0.0156     0.9980     0.9980     0.0000
 80 H      0.9411     1.0000     0.0589     1.0071     1.0071     0.0000
 81 H      0.9463     1.0000     0.0537     0.9857     0.9857     0.0000
 82 H      1.0251     1.0000    -0.0251     0.9933     0.9933    -0.0000
 83 H      0.9589     1.0000     0.0411     1.0084     1.0084     0.0000
 84 H      0.9469     1.0000     0.0531     0.9853     0.9853     0.0000
 85 H      0.9401     1.0000     0.0599     0.9715     0.9715     0.0000
 86 H      0.9449     1.0000     0.0551     0.9839     0.9839    -0.0000
 87 H      0.9433     1.0000     0.0567     0.9856     0.9856    -0.0000
 88 H      1.0156     1.0000    -0.0156     0.9965     0.9965     0.0000
 89 H      0.9537     1.0000     0.0463     1.0071     1.0071     0.0000

  Mayer bond orders larger than 0.100000
B(  0-C ,  1-N ) :   1.0946 B(  0-C , 17-C ) :   1.7038 B(  0-C , 52-H ) :   0.9666 
B(  1-N ,  8-C ) :   1.0844 B(  1-N , 10-C ) :   0.9776 B(  2-C , 12-C ) :   1.5091 
B(  2-C , 16-C ) :   1.3539 B(  2-C , 53-H ) :   0.9759 B(  3-N , 14-C ) :   1.2175 
B(  3-N , 16-C ) :   1.1916 B(  3-N , 61-H ) :   0.8994 B(  4-C ,  6-C ) :   1.2131 
B(  4-C , 17-C ) :   1.2119 B(  4-C , 18-C ) :   1.4279 B(  5-N , 19-C ) :   1.4516 
B(  5-N , 27-C ) :   1.3805 B(  6-C ,  8-C ) :   1.7073 B(  6-C , 54-H ) :   0.9583 
B(  7-N , 30-C ) :   1.1939 B(  7-N , 38-C ) :   1.1929 B(  7-N , 62-H ) :   0.8968 
B(  8-C , 55-H ) :   0.9681 B(  9-N , 41-C ) :   1.3935 B(  9-N , 49-C ) :   1.4272 
B( 10-C , 56-H ) :   0.9768 B( 10-C , 57-H ) :   0.9831 B( 10-C , 58-H ) :   0.9835 
B( 11-N , 20-C ) :   1.1317 B( 11-N , 24-C ) :   1.1111 B( 11-N , 25-C ) :   0.9589 
B( 12-C , 14-C ) :   1.3548 B( 12-C , 59-H ) :   0.9742 B( 13-N , 31-C ) :   1.1564 
B( 13-N , 35-C ) :   1.1511 B( 13-N , 36-C ) :   0.9444 B( 14-C , 18-C ) :   1.1335 
B( 15-N , 42-C ) :   1.1072 B( 15-N , 46-C ) :   1.1208 B( 15-N , 47-C ) :   0.9624 
B( 16-C , 51-C ) :   1.1733 B( 17-C , 60-H ) :   0.9584 B( 18-C , 19-C ) :   1.1362 
B( 19-C , 21-C ) :   1.2424 B( 20-C , 28-C ) :   1.6257 B( 20-C , 63-H ) :   0.9702 
B( 21-C , 26-C ) :   1.6135 B( 21-C , 64-H ) :   0.9715 B( 22-C , 23-C ) :   1.2906 
B( 22-C , 28-C ) :   1.2676 B( 22-C , 29-C ) :   1.2207 B( 23-C , 24-C ) :   1.6174 
B( 23-C , 65-H ) :   0.9705 B( 24-C , 66-H ) :   0.9694 B( 25-C , 67-H ) :   0.9760 
B( 25-C , 68-H ) :   0.9828 B( 25-C , 69-H ) :   0.9823 B( 26-C , 27-C ) :   1.2370 
B( 26-C , 70-H ) :   0.9704 B( 27-C , 29-C ) :   1.2148 B( 28-C , 71-H ) :   0.9718 
B( 29-C , 30-C ) :   1.2411 B( 30-C , 32-C ) :   1.2832 B( 31-C , 39-C ) :   1.5953 
B( 31-C , 72-H ) :   0.9684 B( 32-C , 37-C ) :   1.5762 B( 32-C , 73-H ) :   0.9784 
B( 33-C , 34-C ) :   1.3032 B( 33-C , 39-C ) :   1.2969 B( 33-C , 40-C ) :   1.1864 
B( 34-C , 35-C ) :   1.5918 B( 34-C , 74-H ) :   0.9697 B( 35-C , 75-H ) :   0.9684 
B( 36-C , 76-H ) :   0.9767 B( 36-C , 77-H ) :   0.9816 B( 36-C , 78-H ) :   0.9825 
B( 37-C , 38-C ) :   1.2873 B( 37-C , 79-H ) :   0.9768 B( 38-C , 40-C ) :   1.2311 
B( 39-C , 80-H ) :   0.9707 B( 40-C , 41-C ) :   1.2453 B( 41-C , 43-C ) :   1.1912 
B( 42-C , 50-C ) :   1.6358 B( 42-C , 81-H ) :   0.9697 B( 43-C , 48-C ) :   1.6607 
B( 43-C , 82-H ) :   0.9723 B( 44-C , 45-C ) :   1.2625 B( 44-C , 50-C ) :   1.2692 
B( 44-C , 51-C ) :   1.2647 B( 45-C , 46-C ) :   1.6368 B( 45-C , 83-H ) :   0.9718 
B( 46-C , 84-H ) :   0.9701 B( 47-C , 85-H ) :   0.9762 B( 47-C , 86-H ) :   0.9829 
B( 47-C , 87-H ) :   0.9825 B( 48-C , 49-C ) :   1.1946 B( 48-C , 88-H ) :   0.9748 
B( 49-C , 51-C ) :   1.2358 B( 50-C , 89-H ) :   0.9710 

-------
TIMINGS
-------

Total SCF time: 0 days 0 hours 44 min 16 sec 

Total time                  ....    2656.166 sec
Sum of individual times     ....    2651.138 sec  ( 99.8%)

Fock matrix formation       ....    2632.738 sec  ( 99.1%)
Diagonalization             ....       4.850 sec  (  0.2%)
Density matrix formation    ....       0.507 sec  (  0.0%)
Population analysis         ....       0.297 sec  (  0.0%)
Initial guess               ....       2.298 sec  (  0.1%)
Orbital Transformation      ....       0.000 sec  (  0.0%)
Orbital Orthonormalization  ....       0.000 sec  (  0.0%)
DIIS solution               ....       2.632 sec  (  0.1%)
SOSCF solution              ....       6.435 sec  (  0.2%)

Maximum memory used throughout the entire SCF-calculation: 304.2 MB


           ************************************************************
           *        Program running with 8 parallel MPI-processes     *
           *              working on a common directory               *
           ************************************************************

------------------------------------------------------------------------------
                                ORCA  MP2 
------------------------------------------------------------------------------

Freezing NCore=104 chemical core electrons

----------
MP2 ENERGY (disk based algorithm)
----------

Dimension of the basis                    ...  918
Memory devoted to MP2                     ... 7000 MB   
Data format for buffers                   ... DOUBLE
Compression type for matrix containers    ... UNCOMPRESSED

-------------------------------
PARTIAL EXCHANGE TRANSFORMATION
-------------------------------

Transformation type                        ... one-operator
Generation of integrals (i,mue|j,nue)      ... ON
Generation of integrals (mue,kappa|nue,tau)... OFF
Generation of integrals (i,mue|a,nue)      ... OFF
Dimension of the basis                     ...  918
Number of internal MOs                     ...  127 (  52- 178)
Pair cutoff                                ... 2.500e-12 Eh
Number of AO pairs in the trafo            ... 421821
Total Number of distinct AO pairs          ... 421821
Memory devoted for trafo                   ... 7000.0 MB 
Max. Number of MO pairs treated together   ... 1088      
Number Format for Storage                  ... Double (8 Byte)
Integral package used                      ... LIBINT

Starting integral evaluation:
    ... done with AO integral generation
Closing buffer AOK     (38.25 GB; CompressionRatio= 1.33)
Collecting buffer AOK 
Number of MO pairs included in the trafo   ... 8128
------------------------
SORTING OF (i,mue|j,nue)
------------------------

IBATCH = 1 of  1
Closing buffer KAO     (51.03 GB; CompressionRatio= 1.00)
Collecting buffer KAO 
N(AO-Batches) Done                         ... 174705534 
N(AO-Batches) Skipped                      ... 167218758 
N(IJ)-pairs Skipped                        ...         0 
TOTAL TIME for half transformation         ...  1018.221 sec
AO-integral generation                     ...   250.345 sec
Half transformation                        ...   463.580 sec
K-integral sorting                         ...    88.502 sec

Finished integral transformation - now doing MP2 part

OPERATOR COMBINATION   0   0: ij=( 52..178, 52..178)
Process 5:   Internal MO 132
Process 2:   Internal MO  84
Process 0:   Internal MO  54
Process 0:   Internal MO  57
Process 1:   Internal MO  69
Process 0:   Internal MO  60
Process 4:   Internal MO 117
Process 0:   Internal MO  63
Process 1:   Internal MO  72
Process 3:   Internal MO 102
Process 2:   Internal MO  87
Process 0:   Internal MO  66
Process 7:   Internal MO 165
Process 1:   Internal MO  75
Process 6:   Internal MO 150
Process 2:   Internal MO  90
Process 1:   Internal MO  78
Process 5:   Internal MO 135
Process 3:   Internal MO 105
Process 4:   Internal MO 120
Process 1:   Internal MO  81
Process 2:   Internal MO  93
Process 3:   Internal MO 108
Process 2:   Internal MO  96
Process 7:   Internal MO 168
Process 4:   Internal MO 123
Process 6:   Internal MO 153
Process 5:   Internal MO 138
Process 3:   Internal MO 111
Process 2:   Internal MO  99
Process 4:   Internal MO 126
Process 5:   Internal MO 141
Process 3:   Internal MO 114
Process 6:   Internal MO 156
Process 7:   Internal MO 171
Process 4:   Internal MO 129
Process 5:   Internal MO 144
Process 6:   Internal MO 159
Process 7:   Internal MO 174
Process 5:   Internal MO 147
Process 6:   Internal MO 162
Process 7:   Internal MO 177
-----------------------------------------------
 MP2 CORRELATION ENERGY   :     -7.281887498 Eh
-----------------------------------------------


-------
TIMINGS
-------
Total time                : 1172.086 sec
Integral trafo            : 1025.837 sec ( 87.5%)
K(i,j)                    :    9.357 sec (  0.8%)
T(i,j)                    :    0.133 sec (  0.0%)

---------------------------------------
MP2 TOTAL ENERGY:    -2130.897394815 Eh
---------------------------------------

Maximum memory used throughout the entire MP2-calculation: 6735.8 MB

-------------------------   --------------------
FINAL SINGLE POINT ENERGY     -2130.897394814976
-------------------------   --------------------


                            ***************************************
                            *     ORCA property calculations      *
                            ***************************************


  WARNING: The energy has been calculated at the MP2 level but the densities
           used in the property calculations are still SCF densities
           MP2 response densities have not been calculated 
           use %mp2 Density relaxed end
           or  %mp2 Density unrelaxed end

                                    ---------------------
                                    Active property flags
                                    ---------------------
   (+) Dipole Moment


------------------------------------------------------------------------------
                       ORCA ELECTRIC PROPERTIES CALCULATION
------------------------------------------------------------------------------

Dipole Moment Calculation                       ... on
Quadrupole Moment Calculation                   ... off
Polarizability Calculation                      ... off
GBWName                                         ... /scratch/chu_02/allen/tmpyp4_amber_gaff2/conf1/conf1/Conf329.orca.gbw
Electron density                                ... /scratch/chu_02/allen/tmpyp4_amber_gaff2/conf1/conf1/Conf329.orca.scfp
The origin for moment calculation is the CENTER OF MASS  = (-0.001355, -0.005002  0.000419)

-------------
DIPOLE MOMENT
-------------
                                X             Y             Z
Electronic contribution:      2.10590      -3.93491      -0.06533
Nuclear contribution   :     -0.00446       0.18429       0.07471
                        -----------------------------------------
Total Dipole Moment    :      2.10144      -3.75063       0.00938
                        -----------------------------------------
Magnitude (a.u.)       :      4.29922
Magnitude (Debye)      :     10.92776



--------------------
Rotational spectrum 
--------------------
 
Rotational constants in cm-1:     0.001502     0.001476     0.000761 
Rotational constants in MHz :    45.028499    44.248237    22.805970 

 Dipole components along the rotational axes: 
x,y,z [a.u.] :     2.920217    -3.155238     0.011658 
x,y,z [Debye]:     7.422601    -8.019978     0.029633 

 

Timings for individual modules:

Sum of individual times         ...     3833.664 sec (=  63.894 min)
GTO integral calculation        ...        2.938 sec (=   0.049 min)   0.1 %
SCF iterations                  ...     2657.423 sec (=  44.290 min)  69.3 %
MP2 module                      ...     1173.304 sec (=  19.555 min)  30.6 %
                             ****ORCA TERMINATED NORMALLY****
TOTAL RUN TIME: 0 days 1 hours 3 minutes 55 seconds 748 msec
# of primitive gaussian functions

