
                                 *****************
                                 * O   R   C   A *
                                 *****************

                                            #,                                       
                                            ###                                      
                                            ####                                     
                                            #####                                    
                                            ######                                   
                                           ########,                                 
                                     ,,################,,,,,                         
                               ,,#################################,,                 
                          ,,##########################################,,             
                       ,#########################################, ''#####,          
                    ,#############################################,,   '####,        
                  ,##################################################,,,,####,       
                ,###########''''           ''''###############################       
              ,#####''   ,,,,##########,,,,          '''####'''          '####       
            ,##' ,,,,###########################,,,                        '##       
           ' ,,###''''                  '''############,,,                           
         ,,##''                                '''############,,,,        ,,,,,,###''
      ,#''                                            '''#######################'''  
     '                                                          ''''####''''         
             ,#######,   #######,   ,#######,      ##                                
            ,#'     '#,  ##    ##  ,#'     '#,    #''#        ######   ,####,        
            ##       ##  ##   ,#'  ##            #'  '#       #        #'  '#        
            ##       ##  #######   ##           ,######,      #####,   #    #        
            '#,     ,#'  ##    ##  '#,     ,#' ,#      #,         ##   #,  ,#        
             '#######'   ##     ##  '#######'  #'      '#     #####' # '####'        



                  #######################################################
                  #                        -***-                        #
                  #          Department of theory and spectroscopy      #
                  #    Directorship and core code : Frank Neese         #
                  #        Max Planck Institute fuer Kohlenforschung    #
                  #                Kaiser Wilhelm Platz 1               #
                  #                 D-45470 Muelheim/Ruhr               #
                  #                      Germany                        #
                  #                                                     #
                  #                  All rights reserved                #
                  #                        -***-                        #
                  #######################################################


                         Program Version 5.0.4 -  RELEASE  -


 With contributions from (in alphabetic order):
   Daniel Aravena         : Magnetic Suceptibility
   Michael Atanasov       : Ab Initio Ligand Field Theory (pilot matlab implementation)
   Alexander A. Auer      : GIAO ZORA, VPT2 properties, NMR spectrum
   Ute Becker             : Parallelization
   Giovanni Bistoni       : ED, misc. LED, open-shell LED, HFLD
   Martin Brehm           : Molecular dynamics
   Dmytro Bykov           : SCF Hessian
   Vijay G. Chilkuri      : MRCI spin determinant printing, contributions to CSF-ICE
   Dipayan Datta          : RHF DLPNO-CCSD density
   Achintya Kumar Dutta   : EOM-CC, STEOM-CC
   Dmitry Ganyushin       : Spin-Orbit,Spin-Spin,Magnetic field MRCI
   Miquel Garcia          : C-PCM and meta-GGA Hessian, CC/C-PCM, Gaussian charge scheme
   Yang Guo               : DLPNO-NEVPT2, F12-NEVPT2, CIM, IAO-localization
   Andreas Hansen         : Spin unrestricted coupled pair/coupled cluster methods
   Benjamin Helmich-Paris : MC-RPA, TRAH-SCF, COSX integrals
   Lee Huntington         : MR-EOM, pCC
   Robert Izsak           : Overlap fitted RIJCOSX, COSX-SCS-MP3, EOM
   Marcus Kettner         : VPT2
   Christian Kollmar      : KDIIS, OOCD, Brueckner-CCSD(T), CCSD density, CASPT2, CASPT2-K
   Simone Kossmann        : Meta GGA functionals, TD-DFT gradient, OOMP2, MP2 Hessian
   Martin Krupicka        : Initial AUTO-CI
   Lucas Lang             : DCDCAS
   Marvin Lechner         : AUTO-CI (C++ implementation), FIC-MRCC
   Dagmar Lenk            : GEPOL surface, SMD
   Dimitrios Liakos       : Extrapolation schemes; Compound Job, initial MDCI parallelization
   Dimitrios Manganas     : Further ROCIS development; embedding schemes
   Dimitrios Pantazis     : SARC Basis sets
   Anastasios Papadopoulos: AUTO-CI, single reference methods and gradients
   Taras Petrenko         : DFT Hessian,TD-DFT gradient, ASA, ECA, R-Raman, ABS, FL, XAS/XES, NRVS
   Peter Pinski           : DLPNO-MP2, DLPNO-MP2 Gradient
   Christoph Reimann      : Effective Core Potentials
   Marius Retegan         : Local ZFS, SOC
   Christoph Riplinger    : Optimizer, TS searches, QM/MM, DLPNO-CCSD(T), (RO)-DLPNO pert. Triples
   Tobias Risthaus        : Range-separated hybrids, TD-DFT gradient, RPA, STAB
   Michael Roemelt        : Original ROCIS implementation
   Masaaki Saitow         : Open-shell DLPNO-CCSD energy and density
   Barbara Sandhoefer     : DKH picture change effects
   Avijit Sen             : IP-ROCIS
   Kantharuban Sivalingam : CASSCF convergence, NEVPT2, FIC-MRCI
   Bernardo de Souza      : ESD, SOC TD-DFT
   Georgi Stoychev        : AutoAux, RI-MP2 NMR, DLPNO-MP2 response
   Willem Van den Heuvel  : Paramagnetic NMR
   Boris Wezisla          : Elementary symmetry handling
   Frank Wennmohs         : Technical directorship


 We gratefully acknowledge several colleagues who have allowed us to
 interface, adapt or use parts of their codes:
   Stefan Grimme, W. Hujo, H. Kruse, P. Pracht,  : VdW corrections, initial TS optimization,
                  C. Bannwarth, S. Ehlert          DFT functionals, gCP, sTDA/sTD-DF
   Ed Valeev, F. Pavosevic, A. Kumar             : LibInt (2-el integral package), F12 methods
   Garnet Chan, S. Sharma, J. Yang, R. Olivares  : DMRG
   Ulf Ekstrom                                   : XCFun DFT Library
   Mihaly Kallay                                 : mrcc  (arbitrary order and MRCC methods)
   Jiri Pittner, Ondrej Demel                    : Mk-CCSD
   Frank Weinhold                                : gennbo (NPA and NBO analysis)
   Christopher J. Cramer and Donald G. Truhlar   : smd solvation model
   Lars Goerigk                                  : TD-DFT with DH, B97 family of functionals
   V. Asgeirsson, H. Jonsson                     : NEB implementation
   FAccTs GmbH                                   : IRC, NEB, NEB-TS, DLPNO-Multilevel, CI-OPT
                                                   MM, QMMM, 2- and 3-layer-ONIOM, Crystal-QMMM,
                                                   LR-CPCM, SF, NACMEs, symmetry and pop. for TD-DFT,
                                                   nearIR, NL-DFT gradient (VV10), updates on ESD,
                                                   ML-optimized integration grids
   S Lehtola, MJT Oliveira, MAL Marques          : LibXC Library
   Liviu Ungur et al                             : ANISO software


 Your calculation uses the libint2 library for the computation of 2-el integrals
 For citations please refer to: http://libint.valeyev.net

 Your ORCA version has been built with support for libXC version: 5.1.0
 For citations please refer to: https://tddft.org/programs/libxc/

 This ORCA versions uses:
   CBLAS   interface :  Fast vector & matrix operations
   LAPACKE interface :  Fast linear algebra routines
   SCALAPACK package :  Parallel linear algebra routines
   Shared memory     :  Shared parallel matrices
   BLAS/LAPACK       :  OpenBLAS 0.3.15  USE64BITINT DYNAMIC_ARCH NO_AFFINITY Sandybridge SINGLE_THREADED
        Core in use  :  Sandybridge
   Copyright (c) 2011-2014, The OpenBLAS Project


================================================================================

----- Orbital basis set information -----
Your calculation utilizes the basis: cc-pVDZ 
       H, B-Ne : Obtained from the ccRepo (grant-hill.group.shef.ac.uk/ccrepo) Feb. 2017
                 T. H. Dunning, Jr., J. Chem. Phys. 90, 1007 (1989)
            He : Obtained from the ccRepo (grant-hill.group.shef.ac.uk/ccrepo) Feb. 2017
                 D. E. Woon, T. H. Dunning, Jr., J. Chem. Phys. 100, 2975 (1994)
  Li-Be, Na-Mg : Obtained from the ccRepo (grant-hill.group.shef.ac.uk/ccrepo) Feb. 2017
                 B. P. Prascher, D. E. Woon, K. A. Peterson, T. H. Dunning, Jr., A. K. Wilson, Theor. Chem. Acc. 128, 69 (2011)
         Al-Ar : Obtained from the ccRepo (grant-hill.group.shef.ac.uk/ccrepo) Feb. 2017
                 D. E. Woon, T. H. Dunning, Jr., J. Chem. Phys. 98, 1358 (1993)
            Ca : Obtained from the Peterson Research Group Website (tyr0.chem.wsu.edu/~kipeters) Feb. 2017
                 J. Koput, K. A. Peterson, J. Phys. Chem. 106, 9595 (2002)
         Sc-Zn : Obtained from the ccRepo (grant-hill.group.shef.ac.uk/ccrepo) Feb. 2017
                 N. B. Balabanov, K. A. Peterson, J. Chem. Phys. 123, 064107 (2005)
                 N. B. Balabanov, K. A. Peterson, J. Chem. Phys. 125, 074110 (2006)
         Ga-Kr : Obtained from the ccRepo (grant-hill.group.shef.ac.uk/ccrepo) Feb. 2017
                 A. K. Wilson, D. E. Woon, K. A. Peterson, T. H. Dunning, Jr., J. Chem. Phys. 110, 7667 (1999)

================================================================================
                                        WARNINGS
                       Please study these warnings very carefully!
================================================================================


WARNING: No MP2 level density has been requested!
         To caclulate MP2 level properties use
         %mp2 Density relaxed end
         or
         %mp2 Density unrelaxed end

WARNING: Post HF methods need fully converged wavefunctions
  ===> : Setting SCFConvForced true
         You can overwrite this default with %scf ConvForced false 


INFO   : the flag for use of the SHARK integral package has been found!

================================================================================
                                       INPUT FILE
================================================================================
NAME = /scratch/allen/tmpyp4_amber_gaff2/2.Mdgx/conf11/conf11/Conf272.orca
|  1> ! PAL2
|  2> ! mp2 cc-pvdz TightSCF  NoKeepInts
|  3> 
|  4> %scf
|  5>   MaxCore 2000
|  6> end
|  7> %mp2
|  8>   MaxCore 2000
|  9> end
| 10> * xyz 0 1
| 11>    C       -4.00000         5.81100         1.24800
| 12>    C        1.47400         4.04100         0.05700
| 13>    C       -2.80200         4.09300         0.04900
| 14>    C       -3.21700         4.70700        -1.14300
| 15>    C       -4.00000         5.84400        -1.10100
| 16>    C       -5.19100         7.61800         0.09200
| 17>    C        0.13200         4.30700         0.06100
| 18>    C       -0.56900         3.05600         0.04700
| 19>    C        1.64900         2.61800         0.02300
| 20>    C       -3.21200         4.67600         1.25800
| 21>    N       -4.38300         6.37800         0.08200
| 22>    N        0.38800         2.06700         0.02500
| 23>    N       -2.01000         0.39500        -0.07500
| 24>    N       -0.38800        -2.07400        -0.02700
| 25>    N        2.01000        -0.40100         0.06500
| 26>    C       -1.96000         2.86100         0.02400
| 27>    C       -2.62300         1.61500        -0.01800
| 28>    C       -5.57300        -4.32900         1.06600
| 29>    C       -4.07300         1.47100         0.05600
| 30>    C       -4.10600        -2.75600        -0.02600
| 31>    C       -4.99500        -2.75700        -1.11100
| 32>    C       -6.13200        -3.54200        -1.07600
| 33>    C       -7.65100        -5.11300         0.04000
| 34>    C       -4.32400         0.14100         0.03700
| 35>    C       -3.02500        -0.52000        -0.04800
| 36>    C       -4.42200        -3.56600         1.07500
| 37>    N       -6.40700        -4.31300         0.00100
| 38>    C       -2.86700        -1.92200        -0.04000
| 39>    C       -1.65000        -2.62400        -0.02700
| 40>    C        3.56800        -6.14200        -1.04000
| 41>    C       -1.47600        -4.04900        -0.03400
| 42>    C        2.80300        -4.09900        -0.00800
| 43>    C        3.65700        -4.38400         1.06900
| 44>    C        4.42700        -5.53000         1.05900
| 45>    C        5.24500        -7.58800         0.01400
| 46>    C       -0.13400        -4.31500        -0.02200
| 47>    C        0.56800        -3.06400        -0.02700
| 48>    C        2.77500        -5.01200        -1.07400
| 49>    N        4.37600        -6.39100         0.01700
| 50>    C        1.95900        -2.86900        -0.00900
| 51>    C        2.62100        -1.62200         0.00900
| 52>    C        5.54300         4.33900        -1.13000
| 53>    C        4.07000        -1.47900        -0.09400
| 54>    C        4.10400         2.75100        -0.02100
| 55>    C        5.02700         2.72900         1.03600
| 56>    C        6.16600         3.50900         0.97800
| 57>    C        7.61900         5.15300        -0.11500
| 58>    C        4.32100        -0.14800        -0.09200
| 59>    C        3.02500         0.51400         0.01500
| 60>    C        4.38700         3.58200        -1.11500
| 61>    C        2.86600         1.91600         0.01300
| 62>    N        6.41300         4.29600        -0.09500
| 63>    H       -4.35000         6.28700         2.15600
| 64>    H        2.27400         4.76600         0.08100
| 65>    H       -2.92500         4.31000        -2.10700
| 66>    H       -4.33600         6.35700        -1.99300
| 67>    H       -4.52100         8.47900         0.04000
| 68>    H       -5.85900         7.60900        -0.76900
| 69>    H       -5.77100         7.65000         1.01500
| 70>    H       -0.33200         5.28200         0.06900
| 71>    H       -2.93600         4.24100         2.21200
| 72>    H        0.18200         1.07200         0.00500
| 73>    H       -0.18300        -1.08000        -0.02100
| 74>    H       -5.86400        -4.96200         1.89500
| 75>    H       -4.79400         2.27200         0.13900
| 76>    H       -4.80000        -2.16000        -1.99400
| 77>    H       -6.84100        -3.58200        -1.89300
| 78>    H       -8.42800        -4.53600         0.54600
| 79>    H       -7.95600        -5.33700        -0.98100
| 80>    H       -7.45600        -6.03700         0.58400
| 81>    H       -5.28700        -0.34400         0.10000
| 82>    H       -3.78000        -3.60100         1.94700
| 83>    H        3.58700        -6.86800        -1.84300
| 84>    H       -2.27600        -4.77400        -0.05000
| 85>    H        3.71400        -3.72400         1.92600
| 86>    H        5.09200        -5.79500         1.87100
| 87>    H        6.20500        -7.32900        -0.43900
| 88>    H        5.39300        -7.91700         1.04200
| 89>    H        4.75900        -8.37300        -0.56400
| 90>    H        0.32900        -5.29000        -0.00800
| 91>    H        2.14600        -4.84200        -1.94000
| 92>    H        5.80800         4.98600        -1.95600
| 93>    H        4.78800        -2.28100        -0.18500
| 94>    H        4.86000         2.11400         1.91200
| 95>    H        6.90100         3.53100         1.77200
| 96>    H        7.38300         6.10900         0.35600
| 97>    H        8.41400         4.65200         0.43500
| 98>    H        7.92100         5.31000        -1.15000
| 99>    H        5.28300         0.33600        -0.17900
|100>    H        3.72000         3.63200        -1.96700
|101> *
|102> 
|103>                          ****END OF INPUT****
================================================================================

                       ****************************
                       * Single Point Calculation *
                       ****************************

---------------------------------
CARTESIAN COORDINATES (ANGSTROEM)
---------------------------------
  C     -4.000000    5.811000    1.248000
  C      1.474000    4.041000    0.057000
  C     -2.802000    4.093000    0.049000
  C     -3.217000    4.707000   -1.143000
  C     -4.000000    5.844000   -1.101000
  C     -5.191000    7.618000    0.092000
  C      0.132000    4.307000    0.061000
  C     -0.569000    3.056000    0.047000
  C      1.649000    2.618000    0.023000
  C     -3.212000    4.676000    1.258000
  N     -4.383000    6.378000    0.082000
  N      0.388000    2.067000    0.025000
  N     -2.010000    0.395000   -0.075000
  N     -0.388000   -2.074000   -0.027000
  N      2.010000   -0.401000    0.065000
  C     -1.960000    2.861000    0.024000
  C     -2.623000    1.615000   -0.018000
  C     -5.573000   -4.329000    1.066000
  C     -4.073000    1.471000    0.056000
  C     -4.106000   -2.756000   -0.026000
  C     -4.995000   -2.757000   -1.111000
  C     -6.132000   -3.542000   -1.076000
  C     -7.651000   -5.113000    0.040000
  C     -4.324000    0.141000    0.037000
  C     -3.025000   -0.520000   -0.048000
  C     -4.422000   -3.566000    1.075000
  N     -6.407000   -4.313000    0.001000
  C     -2.867000   -1.922000   -0.040000
  C     -1.650000   -2.624000   -0.027000
  C      3.568000   -6.142000   -1.040000
  C     -1.476000   -4.049000   -0.034000
  C      2.803000   -4.099000   -0.008000
  C      3.657000   -4.384000    1.069000
  C      4.427000   -5.530000    1.059000
  C      5.245000   -7.588000    0.014000
  C     -0.134000   -4.315000   -0.022000
  C      0.568000   -3.064000   -0.027000
  C      2.775000   -5.012000   -1.074000
  N      4.376000   -6.391000    0.017000
  C      1.959000   -2.869000   -0.009000
  C      2.621000   -1.622000    0.009000
  C      5.543000    4.339000   -1.130000
  C      4.070000   -1.479000   -0.094000
  C      4.104000    2.751000   -0.021000
  C      5.027000    2.729000    1.036000
  C      6.166000    3.509000    0.978000
  C      7.619000    5.153000   -0.115000
  C      4.321000   -0.148000   -0.092000
  C      3.025000    0.514000    0.015000
  C      4.387000    3.582000   -1.115000
  C      2.866000    1.916000    0.013000
  N      6.413000    4.296000   -0.095000
  H     -4.350000    6.287000    2.156000
  H      2.274000    4.766000    0.081000
  H     -2.925000    4.310000   -2.107000
  H     -4.336000    6.357000   -1.993000
  H     -4.521000    8.479000    0.040000
  H     -5.859000    7.609000   -0.769000
  H     -5.771000    7.650000    1.015000
  H     -0.332000    5.282000    0.069000
  H     -2.936000    4.241000    2.212000
  H      0.182000    1.072000    0.005000
  H     -0.183000   -1.080000   -0.021000
  H     -5.864000   -4.962000    1.895000
  H     -4.794000    2.272000    0.139000
  H     -4.800000   -2.160000   -1.994000
  H     -6.841000   -3.582000   -1.893000
  H     -8.428000   -4.536000    0.546000
  H     -7.956000   -5.337000   -0.981000
  H     -7.456000   -6.037000    0.584000
  H     -5.287000   -0.344000    0.100000
  H     -3.780000   -3.601000    1.947000
  H      3.587000   -6.868000   -1.843000
  H     -2.276000   -4.774000   -0.050000
  H      3.714000   -3.724000    1.926000
  H      5.092000   -5.795000    1.871000
  H      6.205000   -7.329000   -0.439000
  H      5.393000   -7.917000    1.042000
  H      4.759000   -8.373000   -0.564000
  H      0.329000   -5.290000   -0.008000
  H      2.146000   -4.842000   -1.940000
  H      5.808000    4.986000   -1.956000
  H      4.788000   -2.281000   -0.185000
  H      4.860000    2.114000    1.912000
  H      6.901000    3.531000    1.772000
  H      7.383000    6.109000    0.356000
  H      8.414000    4.652000    0.435000
  H      7.921000    5.310000   -1.150000
  H      5.283000    0.336000   -0.179000
  H      3.720000    3.632000   -1.967000

----------------------------
CARTESIAN COORDINATES (A.U.)
----------------------------
  NO LB      ZA    FRAG     MASS         X           Y           Z
   0 C     6.0000    0    12.011   -7.558905   10.981199    2.358378
   1 C     6.0000    0    12.011    2.785456    7.636383    0.107714
   2 C     6.0000    0    12.011   -5.295013    7.734649    0.092597
   3 C     6.0000    0    12.011   -6.079249    8.894941   -2.159957
   4 C     6.0000    0    12.011   -7.558905   11.043560   -2.080588
   5 C     6.0000    0    12.011   -9.809568   14.395934    0.173855
   6 C     6.0000    0    12.011    0.249444    8.139050    0.115273
   7 C     6.0000    0    12.011   -1.075254    5.775003    0.088817
   8 C     6.0000    0    12.011    3.116158    4.947303    0.043464
   9 C     6.0000    0    12.011   -6.069800    8.836359    2.377275
  10 N     7.0000    0    14.007   -8.282670   12.052673    0.154958
  11 N     7.0000    0    14.007    0.733214    3.906064    0.047243
  12 N     7.0000    0    14.007   -3.798350    0.746442   -0.141729
  13 N     7.0000    0    14.007   -0.733214   -3.919292   -0.051023
  14 N     7.0000    0    14.007    3.798350   -0.757780    0.122832
  15 C     6.0000    0    12.011   -3.703863    5.406506    0.045353
  16 C     6.0000    0    12.011   -4.956752    3.051908   -0.034015
  17 C     6.0000    0    12.011  -10.531444   -8.180624    2.014448
  18 C     6.0000    0    12.011   -7.696855    2.779787    0.105825
  19 C     6.0000    0    12.011   -7.759216   -5.208085   -0.049133
  20 C     6.0000    0    12.011   -9.439182   -5.209975   -2.099486
  21 C     6.0000    0    12.011  -11.587801   -6.693410   -2.033345
  22 C     6.0000    0    12.011  -14.458295   -9.662170    0.075589
  23 C     6.0000    0    12.011   -8.171176    0.266451    0.069920
  24 C     6.0000    0    12.011   -5.716422   -0.982658   -0.090707
  25 C     6.0000    0    12.011   -8.356369   -6.738763    2.031456
  26 N     7.0000    0    14.007  -12.107475   -8.150389    0.001890
  27 C     6.0000    0    12.011   -5.417845   -3.632054   -0.075589
  28 C     6.0000    0    12.011   -3.118048   -4.958641   -0.051023
  29 C     6.0000    0    12.011    6.742543  -11.606698   -1.965315
  30 C     6.0000    0    12.011   -2.789236   -7.651501   -0.064251
  31 C     6.0000    0    12.011    5.296902   -7.745987   -0.015118
  32 C     6.0000    0    12.011    6.910728   -8.284559    2.020117
  33 C     6.0000    0    12.011    8.365818  -10.450186    2.001220
  34 C     6.0000    0    12.011    9.911614  -14.339242    0.026456
  35 C     6.0000    0    12.011   -0.253223   -8.154168   -0.041574
  36 C     6.0000    0    12.011    1.073364   -5.790121   -0.051023
  37 C     6.0000    0    12.011    5.243990   -9.471307   -2.029566
  38 N     7.0000    0    14.007    8.269442  -12.077240    0.032125
  39 C     6.0000    0    12.011    3.701973   -5.421624   -0.017008
  40 C     6.0000    0    12.011    4.952972   -3.065136    0.017008
  41 C     6.0000    0    12.011   10.474752    8.199522   -2.135391
  42 C     6.0000    0    12.011    7.691185   -2.794905   -0.177634
  43 C     6.0000    0    12.011    7.755436    5.198637   -0.039684
  44 C     6.0000    0    12.011    9.499653    5.157063    1.957756
  45 C     6.0000    0    12.011   11.652051    6.631049    1.848152
  46 C     6.0000    0    12.011   14.397823    9.737759   -0.217319
  47 C     6.0000    0    12.011    8.165507   -0.279679   -0.173855
  48 C     6.0000    0    12.011    5.716422    0.971319    0.028346
  49 C     6.0000    0    12.011    8.290229    6.768999   -2.107045
  50 C     6.0000    0    12.011    5.415955    3.620715    0.024566
  51 N     7.0000    0    14.007   12.118814    8.118263   -0.179524
  52 H     1.0000    0     1.008   -8.220309   11.880708    4.074250
  53 H     1.0000    0     1.008    4.297237    9.006435    0.153068
  54 H     1.0000    0     1.008   -5.527449    8.144720   -3.981653
  55 H     1.0000    0     1.008   -8.193853   12.012989   -3.766224
  56 H     1.0000    0     1.008   -8.543452   16.022988    0.075589
  57 H     1.0000    0     1.008  -11.071905   14.378926   -1.453199
  58 H     1.0000    0     1.008  -10.905610   14.456405    1.918072
  59 H     1.0000    0     1.008   -0.627389    9.981533    0.130391
  60 H     1.0000    0     1.008   -5.548236    8.014329    4.180074
  61 H     1.0000    0     1.008    0.343930    2.025786    0.009449
  62 H     1.0000    0     1.008   -0.345820   -2.040904   -0.039684
  63 H     1.0000    0     1.008  -11.081354   -9.376821    3.581031
  64 H     1.0000    0     1.008   -9.059347    4.293458    0.262672
  65 H     1.0000    0     1.008   -9.070685   -4.081808   -3.768114
  66 H     1.0000    0     1.008  -12.927616   -6.768999   -3.577252
  67 H     1.0000    0     1.008  -15.926612   -8.571798    1.031790
  68 H     1.0000    0     1.008  -15.034661  -10.085468   -1.853821
  69 H     1.0000    0     1.008  -14.089798  -11.408277    1.103600
  70 H     1.0000    0     1.008   -9.990982   -0.650066    0.188973
  71 H     1.0000    0     1.008   -7.143165   -6.804904    3.679297
  72 H     1.0000    0     1.008    6.778448  -12.978639   -3.482765
  73 H     1.0000    0     1.008   -4.301017   -9.021553   -0.094486
  74 H     1.0000    0     1.008    7.018443   -7.037340    3.639613
  75 H     1.0000    0     1.008    9.622485  -10.950963    3.535678
  76 H     1.0000    0     1.008   11.725751  -13.849803   -0.829590
  77 H     1.0000    0     1.008   10.191293  -14.960962    1.969095
  78 H     1.0000    0     1.008    8.993207  -15.822677   -1.065806
  79 H     1.0000    0     1.008    0.621720   -9.996651   -0.015118
  80 H     1.0000    0     1.008    4.055352   -9.150054   -3.666069
  81 H     1.0000    0     1.008   10.975529    9.422175   -3.696304
  82 H     1.0000    0     1.008    9.048009   -4.310465   -0.349599
  83 H     1.0000    0     1.008    9.184069    3.994881    3.613156
  84 H     1.0000    0     1.008   13.041000    6.672623    3.348595
  85 H     1.0000    0     1.008   13.951848   11.544337    0.672743
  86 H     1.0000    0     1.008   15.900156    8.791006    0.822031
  87 H     1.0000    0     1.008   14.968521   10.034446   -2.173185
  88 H     1.0000    0     1.008    9.983423    0.634948   -0.338261
  89 H     1.0000    0     1.008    7.029781    6.863485   -3.717091

--------------------------------
INTERNAL COORDINATES (ANGSTROEM)
--------------------------------
 C      0   0   0     0.000000000000     0.00000000     0.00000000
 C      1   0   0     5.875036765842     0.00000000     0.00000000
 C      1   2   0     2.413364663701    38.94940849     0.00000000
 C      3   1   2     1.403597164431    87.92221661   250.76912672
 C      4   3   1     1.381166897953   120.12628462     0.14809845
 C      5   4   3     2.447203710360   152.55891610     1.58804824
 C      2   1   3     1.368114030335    13.31385957    26.09198205
 C      7   2   3     1.434084376876   108.05010202     0.84668783
 C      2   1   3     1.434123425651   114.67308154   322.64179689
 C      1   2   3     1.381763004281    38.98034423    48.95292832
 N      1   2   3     1.351937128716   102.44322575   284.80624537
 N      9   2   1     1.376127174356   106.58526707    11.76311229
 N     12   9   2     2.925062050624   168.53581413   171.12065651
 N     13  12   9     2.954513327098    91.55032014    11.12112580
 N     14  13  12     2.925371258490    88.43092389   359.84326247
 C      8   7   2     1.404790019896   127.24786865   181.11170171
 C     13  12   9     1.366535034311    81.72106996   188.00453233
 C     14  13  12     5.758810554272    80.56209567   166.76250791
 C     17  13  12     1.459010623676   111.08861209   183.82872609
 C     18  14  13     2.412235892279    27.27532823    36.33507194
 C     20  18  14     1.402692767501    87.95206320   148.94598259
 C     21  20  18     1.382106725257   120.14573887   359.70382047
 C     18  14  13     2.446510985056   144.15733107    82.80075377
 C     19  17  13     1.353610726908   106.29293361   359.75308708
 C     13  12   9     1.366813447402   172.21332906    33.46711076
 C     18  14  13     1.380960173213    15.08449437   309.23336894
 N     22  21  20     1.352773077792   120.73759875     0.27865223
 C     25  13  17     1.410897586645   125.60330303   182.37774668
 C     14  13  12     1.376642291955    80.24689249   177.85461986
 C     14  13  12     5.764089607215   164.51507311   312.20821879
 C     29  14  13     1.435600919476   106.58649366   178.76395472
 C     30  14  13     2.413316804732    27.10625047    82.12560436
 C     32  30  14     1.403734305344    87.90059683   149.76154742
 C     33  32  30     1.380694028378   120.14881443   359.74174632
 C     34  33  32     2.448777858443   152.49203239     2.45173620
 C     31  29  14     1.368160809262   108.16950133     0.70383075
 C     14  13  12     1.376239804685   169.26375223   353.09862627
 C     30  14  13     1.380907310430    14.68948582   353.70041132
 N     34  33  32     1.352658863128   120.85575621     0.19603406
 C     37  14  29     1.404717053360   126.01551127   180.90772073
 C     15  14  13     1.366491126938    81.61824056   183.09049352
 C      2   1   3     4.249062720177   158.08779301   132.10271654
 C     41  15  14     1.459677704153   111.05201287   175.08990246
 C     42   2   1     2.412953791518    41.78584867   165.93716041
 C     44  42   2     1.403446472082    87.95153797   233.97558675
 C     45  44  42     1.381696421071   120.11137308     0.19721020
 C     42   2   1     2.450019795838   135.97209175    76.25200951
 C     43  41  15     1.354461516618   106.26758155     0.30894352
 C     15  14  13     1.367461151185   171.87382904   332.35056460
 C     42   2   1     1.381886391857    32.59078432   214.79243960
 C      9   2   1     1.404988612053   126.98745415   192.76744982
 N     42   2   1     1.352765315936   113.57249190   103.98859871
 H      1   2   3     1.083300512323   127.10872306   146.98637640
 H      2   1   3     1.079907866440   118.91219027   154.63045738
 H      4   3   1     1.082667538998   121.06526137   179.51291303
 H      5   4   3     1.082464318119   122.75517677   179.40875317
 H      6   5   4     1.092211060189   104.45963026   100.08432591
 H      6   5   4     1.089782547117    84.67397772   209.57769455
 H      6   5   4     1.090574619180   133.84329301   322.40660322
 H      7   2  54     1.079807853278   126.66122480     1.30600390
 H     10   1   2     1.084212617525   118.75749271   110.63064534
 H     12   9   2     1.016297692608   125.29023241   180.00180175
 H     14  13  12     1.014936943854    44.97226959   359.42596618
 H     18  14  13     1.082871645210   128.03556573   234.20482432
 H     19  17  13     1.080893611786   126.41830519   178.11313280
 H     21  20  18     1.083569563987   121.05669627   180.67006309
 H     22  21  20     1.082483256222   122.73097286   180.59748951
 H     23  18  14     1.092105306278   103.92715769   234.93429879
 H     23  18  14     1.088871893291   134.19244188    12.25587044
 H     23  18  14     1.089833473518    84.85857450   125.45241208
 H     24  19  17     1.080075460327   127.28078426   178.44613241
 H     26  18  14     1.083408048706   118.76995697   244.94906660
 H     30  14  13     1.082703098730   127.99711412   279.66882698
 H     31  29  14     1.079759695488   125.22293469   180.92530585
 H     33  32  30     1.083188810873   121.01964473   180.74284758
 H     34  33  32     1.082494341787   122.70821597   180.59516895
 H     35  34  33     1.092652735319   105.73575241    97.19771933
 H     35  34  33     1.089462711615    84.05943581   206.43036958
 H     35  34  33     1.089268102902   133.08365142   318.50306270
 H     36  31  29     1.079439669458   126.61599965   178.98859863
 H     38  30  73     1.083742127999   118.77264435   359.90091293
 H     42   2   1     1.082178358682   119.31790784   320.62012916
 H     43  41  15     1.080281907652   126.36969097   182.06329380
 H     45  44  42     1.083277434455   121.10105945   179.58025624
 H     46  45  44     1.082194529648   122.72144639   179.46906377
 H     47  42   2     1.091546151109   106.65128841   315.16475048
 H     47  42   2     1.088818625851   132.46019523    94.52397119
 H     47  42   2     1.089531091801    83.63838232   206.04504406
 H     48  43  41     1.080402239909   127.23657387   181.62955349
 H     50  42   2     1.083186502870   118.77001737    94.71359229

---------------------------
INTERNAL COORDINATES (A.U.)
---------------------------
 C      0   0   0     0.000000000000     0.00000000     0.00000000
 C      1   0   0    11.102210514161     0.00000000     0.00000000
 C      1   2   0     4.560598275678    38.94940849     0.00000000
 C      3   1   2     2.652414243124    87.92221661   250.76912672
 C      4   3   1     2.610027182368   120.12628462     0.14809845
 C      5   4   3     4.624544806496   152.55891610     1.58804824
 C      2   1   3     2.585360837309    13.31385957    26.09198205
 C      7   2   3     2.710026725231   108.05010202     0.84668783
 C      2   1   3     2.710100516721   114.67308154   322.64179689
 C      1   2   3     2.611153660076    38.98034423    48.95292832
 N      1   2   3     2.554790923552   102.44322575   284.80624537
 N      9   2   1     2.600503484979   106.58526707    11.76311229
 N     12   9   2     5.527566200405   168.53581413   171.12065651
 N     13  12   9     5.583221047236    91.55032014    11.12112580
 N     14  13  12     5.528150518591    88.43092389   359.84326247
 C      8   7   2     2.654668413270   127.24786865   181.11170171
 C     13  12   9     2.582376967257    81.72106996   188.00453233
 C     14  13  12    10.882574804710    80.56209567   166.76250791
 C     17  13  12     2.757130505230   111.08861209   183.82872609
 C     18  14  13     4.558465206823    27.27532823    36.33507194
 C     20  18  14     2.650705180609    87.95206320   148.94598259
 C     21  20  18     2.611803198586   120.14573887   359.70382047
 C     18  14  13     4.623235745386   144.15733107    82.80075377
 C     19  17  13     2.557953565794   106.29293361   359.75308708
 C     13  12   9     2.582903091751   172.21332906    33.46711076
 C     18  14  13     2.609636529225    15.08449437   309.23336894
 N     22  21  20     2.556370638369   120.73759875     0.27865223
 C     25  13  17     2.666210041769   125.60330303   182.37774668
 C     14  13  12     2.601476916169    80.24689249   177.85461986
 C     14  13  12    10.892550769017   164.51507311   312.20821879
 C     29  14  13     2.712892575415   106.58649366   178.76395472
 C     30  14  13     4.560507835333    27.10625047    82.12560436
 C     32  30  14     2.652673401891    87.90059683   149.76154742
 C     33  32  30     2.609133588376   120.14881443   359.74174632
 C     34  33  32     4.627519515267   152.49203239     2.45173620
 C     31  29  14     2.585449236669   108.16950133     0.70383075
 C     14  13  12     2.600716325456   169.26375223   353.09862627
 C     30  14  13     2.609536633043    14.68948582   353.70041132
 N     34  33  32     2.556154803934   120.85575621     0.19603406
 C     37  14  29     2.654530526499   126.01551127   180.90772073
 C     15  14  13     2.582293994346    81.61824056   183.09049352
 C      2   1   3     8.029564866989   158.08779301   132.10271654
 C     41  15  14     2.758391104639   111.05201287   175.08990246
 C     42   2   1     4.559821839776    41.78584867   165.93716041
 C     44  42   2     2.652129475853    87.95153797   233.97558675
 C     45  44  42     2.611027836043   120.11137308     0.19721020
 C     42   2   1     4.629866436820   135.97209175    76.25200951
 C     43  41  15     2.559561325344   106.26758155     0.30894352
 C     15  14  13     2.584127074516   171.87382904   332.35056460
 C     42   2   1     2.611386828803    32.59078432   214.79243960
 C      9   2   1     2.655043698059   126.98745415   192.76744982
 N     42   2   1     2.556355970587   113.57249190   103.98859871
 H      1   2   3     2.047141289028   127.10872306   146.98637640
 H      2   1   3     2.040730117440   118.91219027   154.63045738
 H      4   3   1     2.045945142793   121.06526137   179.51291303
 H      5   4   3     2.045561110986   122.75517677   179.40875317
 H      6   5   4     2.063979784198   104.45963026   100.08432591
 H      6   5   4     2.059390559578    84.67397772   209.57769455
 H      6   5   4     2.060887358856   133.84329301   322.40660322
 H      7   2  54     2.040541119952   126.66122480     1.30600390
 H     10   1   2     2.048864918064   118.75749271   110.63064534
 H     12   9   2     1.920524309565   125.29023241   180.00180175
 H     14  13  12     1.917952867083    44.97226959   359.42596618
 H     18  14  13     2.046330847636   128.03556573   234.20482432
 H     19  17  13     2.042592906181   126.41830519   178.11313280
 H     21  20  18     2.047649722989   121.05669627   180.67006309
 H     22  21  20     2.045596898814   122.73097286   180.59748951
 H     23  18  14     2.063779938267   103.92715769   234.93429879
 H     23  18  14     2.057669673245   134.19244188    12.25587044
 H     23  18  14     2.059486796529    84.85857450   125.45241208
 H     24  19  17     2.041046823986   127.28078426   178.44613241
 H     26  18  14     2.047344503340   118.76995697   244.94906660
 H     30  14  13     2.046012340948   127.99711412   279.66882698
 H     31  29  14     2.040450114918   125.22293469   180.92530585
 H     33  32  30     2.046930203877   121.01964473   180.74284758
 H     34  33  32     2.045617847496   122.70821597   180.59516895
 H     35  34  33     2.064814429233   105.73575241    97.19771933
 H     35  34  33     2.058786158072    84.05943581   206.43036958
 H     35  34  33     2.058418400901   133.08365142   318.50306270
 H     36  31  29     2.039845353366   126.61599965   178.98859863
 H     38  30  73     2.047975821711   118.77264435   359.90091293
 H     42   2   1     2.045020725966   119.31790784   320.62012916
 H     43  41  15     2.041436952892   126.36969097   182.06329380
 H     45  44  42     2.047097678177   121.10105945   179.58025624
 H     46  45  44     2.045051284662   122.72144639   179.46906377
 H     47  42   2     2.062723288131   106.65128841   315.16475048
 H     47  42   2     2.057569012371   132.46019523    94.52397119
 H     47  42   2     2.058915377895    83.63838232   206.04504406
 H     48  43  41     2.041664347903   127.23657387   181.62955349
 H     50  42   2     2.046925842384   118.77001737    94.71359229

---------------------
BASIS SET INFORMATION
---------------------
There are 3 groups of distinct atoms

 Group   1 Type C   : 17s4p1d contracted to 3s2p1d pattern {881/31/1}
 Group   2 Type N   : 17s4p1d contracted to 3s2p1d pattern {881/31/1}
 Group   3 Type H   : 4s1p contracted to 2s1p pattern {31/1}

Atom   0C    basis set group =>   1
Atom   1N    basis set group =>   2
Atom   2C    basis set group =>   1
Atom   3N    basis set group =>   2
Atom   4C    basis set group =>   1
Atom   5N    basis set group =>   2
Atom   6C    basis set group =>   1
Atom   7N    basis set group =>   2
Atom   8C    basis set group =>   1
Atom   9N    basis set group =>   2
Atom  10C    basis set group =>   1
Atom  11N    basis set group =>   2
Atom  12C    basis set group =>   1
Atom  13N    basis set group =>   2
Atom  14C    basis set group =>   1
Atom  15N    basis set group =>   2
Atom  16C    basis set group =>   1
Atom  17C    basis set group =>   1
Atom  18C    basis set group =>   1
Atom  19C    basis set group =>   1
Atom  20C    basis set group =>   1
Atom  21C    basis set group =>   1
Atom  22C    basis set group =>   1
Atom  23C    basis set group =>   1
Atom  24C    basis set group =>   1
Atom  25C    basis set group =>   1
Atom  26C    basis set group =>   1
Atom  27C    basis set group =>   1
Atom  28C    basis set group =>   1
Atom  29C    basis set group =>   1
Atom  30C    basis set group =>   1
Atom  31C    basis set group =>   1
Atom  32C    basis set group =>   1
Atom  33C    basis set group =>   1
Atom  34C    basis set group =>   1
Atom  35C    basis set group =>   1
Atom  36C    basis set group =>   1
Atom  37C    basis set group =>   1
Atom  38C    basis set group =>   1
Atom  39C    basis set group =>   1
Atom  40C    basis set group =>   1
Atom  41C    basis set group =>   1
Atom  42C    basis set group =>   1
Atom  43C    basis set group =>   1
Atom  44C    basis set group =>   1
Atom  45C    basis set group =>   1
Atom  46C    basis set group =>   1
Atom  47C    basis set group =>   1
Atom  48C    basis set group =>   1
Atom  49C    basis set group =>   1
Atom  50C    basis set group =>   1
Atom  51C    basis set group =>   1
Atom  52H    basis set group =>   3
Atom  53H    basis set group =>   3
Atom  54H    basis set group =>   3
Atom  55H    basis set group =>   3
Atom  56H    basis set group =>   3
Atom  57H    basis set group =>   3
Atom  58H    basis set group =>   3
Atom  59H    basis set group =>   3
Atom  60H    basis set group =>   3
Atom  61H    basis set group =>   3
Atom  62H    basis set group =>   3
Atom  63H    basis set group =>   3
Atom  64H    basis set group =>   3
Atom  65H    basis set group =>   3
Atom  66H    basis set group =>   3
Atom  67H    basis set group =>   3
Atom  68H    basis set group =>   3
Atom  69H    basis set group =>   3
Atom  70H    basis set group =>   3
Atom  71H    basis set group =>   3
Atom  72H    basis set group =>   3
Atom  73H    basis set group =>   3
Atom  74H    basis set group =>   3
Atom  75H    basis set group =>   3
Atom  76H    basis set group =>   3
Atom  77H    basis set group =>   3
Atom  78H    basis set group =>   3
Atom  79H    basis set group =>   3
Atom  80H    basis set group =>   3
Atom  81H    basis set group =>   3
Atom  82H    basis set group =>   3
Atom  83H    basis set group =>   3
Atom  84H    basis set group =>   3
Atom  85H    basis set group =>   3
Atom  86H    basis set group =>   3
Atom  87H    basis set group =>   3
Atom  88H    basis set group =>   3
Atom  89H    basis set group =>   3


           ************************************************************
           *        Program running with 16 parallel MPI-processes    *
           *              working on a common directory               *
           ************************************************************
------------------------------------------------------------------------------
                           ORCA GTO INTEGRAL CALCULATION
------------------------------------------------------------------------------
------------------------------------------------------------------------------
                   ___                                                        
                  /   \      - P O W E R E D   B Y -                         
                 /     \                                                     
                 |  |  |   _    _      __       _____    __    __             
                 |  |  |  | |  | |    /  \     |  _  \  |  |  /  |          
                  \  \/   | |  | |   /    \    | | | |  |  | /  /          
                 / \  \   | |__| |  /  /\  \   | |_| |  |  |/  /          
                |  |  |   |  __  | /  /__\  \  |    /   |      \           
                |  |  |   | |  | | |   __   |  |    \   |  |\   \          
                \     /   | |  | | |  |  |  |  | |\  \  |  | \   \       
                 \___/    |_|  |_| |__|  |__|  |_| \__\ |__|  \__/        
                                                                              
                      - O R C A' S   B I G   F R I E N D -                    
                                      &                                       
                       - I N T E G R A L  F E E D E R -                       
                                                                              
 v1 FN, 2020, v2 2021                                                         
------------------------------------------------------------------------------


Reading SHARK input file /scratch/allen/tmpyp4_amber_gaff2/conf1/conf1/Conf272.orca.SHARKINP.tmp ... ok
----------------------
SHARK INTEGRAL PACKAGE
----------------------

Number of atoms                             ...     90
Number of basis functions                   ...   1230
Number of shells                            ...    738
Maximum angular momentum                    ...      2
Integral batch strategy                     ... SHARK/LIBINT Hybrid
RI-J (if used) integral strategy            ... SPLIT-RIJ (Revised 2003 algorithm where possible)
Printlevel                                  ...      1
Contraction scheme used                     ... PARTIAL GENERAL contraction
Coulomb Range Separation                    ... NOT USED
Exchange Range Separation                   ... NOT USED
Finite Nucleus Model                        ... NOT USED
Auxiliary Coulomb fitting basis             ... NOT available
Auxiliary J/K fitting basis                 ... NOT available
Auxiliary Correlation fitting basis         ... NOT available
Auxiliary 'external' fitting basis          ... NOT available
Integral threshold                          ...     2.500000e-11
Primitive cut-off                           ...     2.500000e-12
Primitive pair pre-selection threshold      ...     2.500000e-12

Calculating pre-screening integrals         ... done (  0.1 sec) Dimension = 738
Calculating pre-screening integrals (ORCA)  ... done (  0.3 sec) Dimension = 426
Organizing shell pair data                  ... done (  0.7 sec)
Shell pair information
Total number of shell pairs                 ...    272691
Shell pairs after pre-screening             ...     71624
Total number of primitive shell pairs       ...    422091
Primitive shell pairs kept                  ...     92363
          la=0 lb=0:  29421 shell pairs
          la=1 lb=0:  25973 shell pairs
          la=1 lb=1:   4685 shell pairs
          la=2 lb=0:   7899 shell pairs
          la=2 lb=1:   3115 shell pairs
          la=2 lb=2:    531 shell pairs

Calculating one electron integrals          ... done (  0.2 sec)
Calculating Nuclear repulsion               ... done (  0.0 sec) ENN=   6221.808422350696 Eh

SHARK setup successfully completed in   2.2 seconds

Maximum memory used throughout the entire GTOINT-calculation: 98.9 MB


           ************************************************************
           *        Program running with 16 parallel MPI-processes    *
           *              working on a common directory               *
           ************************************************************
-------------------------------------------------------------------------------
                                 ORCA SCF
-------------------------------------------------------------------------------

------------
SCF SETTINGS
------------
Hamiltonian:
 Ab initio Hamiltonian  Method          .... Hartree-Fock(GTOs)


General Settings:
 Integral files         IntName         .... /scratch/allen/tmpyp4_amber_gaff2/conf1/conf1/Conf272.orca
 Hartree-Fock type      HFTyp           .... RHF
 Total Charge           Charge          ....    0
 Multiplicity           Mult            ....    1
 Number of Electrons    NEL             ....  358
 Basis Dimension        Dim             ....  918
 Nuclear Repulsion      ENuc            ....   6221.8084223507 Eh

Convergence Acceleration:
 DIIS                   CNVDIIS         .... on
   Start iteration      DIISMaxIt       ....    12
   Startup error        DIISStart       ....  0.200000
   # of expansion vecs  DIISMaxEq       ....     5
   Bias factor          DIISBfac        ....   1.050
   Max. coefficient     DIISMaxC        ....  10.000
 Trust-Rad. Augm. Hess. CNVTRAH         .... auto
   Auto Start mean grad. ratio tolernc. ....  1.125000
   Auto Start start iteration           ....    20
   Auto Start num. interpolation iter.  ....    10
   Max. Number of Micro iterations      ....    16
   Max. Number of Macro iterations      .... Maxiter - #DIIS iter
   Number of Davidson start vectors     ....     2
   Converg. threshold I  (grad. norm)   ....   1.000e-05
   Converg. threshold II (energy diff.) ....   1.000e-08
   Grad. Scal. Fac. for Micro threshold ....   0.100
   Minimum threshold for Micro iter.    ....   0.010
   NR start threshold (gradient norm)   ....   0.001
   Initial trust radius                 ....   0.400
   Minimum AH scaling param. (alpha)    ....   1.000
   Maximum AH scaling param. (alpha)    .... 1000.000
   Orbital update algorithm             .... Taylor
   White noise on init. David. guess    .... on
   Maximum white noise                  ....   0.010
   Quad. conv. algorithm                .... NR
 SOSCF                  CNVSOSCF        .... on
   Start iteration      SOSCFMaxIt      ....   150
   Startup grad/error   SOSCFStart      ....  0.003300
 Level Shifting         CNVShift        .... on
   Level shift para.    LevelShift      ....    0.2500
   Turn off err/grad.   ShiftErr        ....    0.0010
 Zerner damping         CNVZerner       .... off
 Static damping         CNVDamp         .... on
   Fraction old density DampFac         ....    0.7000
   Max. Damping (<1)    DampMax         ....    0.9800
   Min. Damping (>=0)   DampMin         ....    0.0000
   Turn off err/grad.   DampErr         ....    0.1000
 Fernandez-Rico         CNVRico         .... off

SCF Procedure:
 Maximum # iterations   MaxIter         ....   125
 SCF integral mode      SCFMode         .... Direct
   Integral package                     .... SHARK and LIBINT hybrid scheme
 Reset frequency        DirectResetFreq ....    20
 Integral Threshold     Thresh          ....  2.500e-11 Eh
 Primitive CutOff       TCut            ....  2.500e-12 Eh

Convergence Tolerance:
 Convergence Check Mode ConvCheckMode   .... Total+1el-Energy
 Convergence forced     ConvForced      .... 1
 Energy Change          TolE            ....  1.000e-08 Eh
 1-El. energy change                    ....  1.000e-05 Eh
 Orbital Gradient       TolG            ....  1.000e-05
 Orbital Rotation angle TolX            ....  1.000e-05
 DIIS Error             TolErr          ....  5.000e-07


Diagonalization of the overlap matrix:
Smallest eigenvalue                        ... 2.263e-04
Time for diagonalization                   ...    0.445 sec
Threshold for overlap eigenvalues          ... 1.000e-08
Number of eigenvalues below threshold      ... 0
Time for construction of square roots      ...    0.272 sec
Total time needed                          ...    0.724 sec

Time for model grid setup =    1.306 sec

------------------------------
INITIAL GUESS: MODEL POTENTIAL
------------------------------
Loading Hartree-Fock densities                     ... done
Calculating cut-offs                               ... done
Initializing the effective Hamiltonian             ... done
Setting up the integral package (SHARK)            ... done
Starting the Coulomb interaction                   ... done (   1.5 sec)
Reading the grid                                   ... done
Mapping shells                                     ... done
Starting the XC term evaluation                    ... done (   0.2 sec)
Transforming the Hamiltonian                       ... done (   0.3 sec)
Diagonalizing the Hamiltonian                      ... done (   0.4 sec)
Back transforming the eigenvectors                 ... done (   0.1 sec)
Now organizing SCF variables                       ... done
                      ------------------
                      INITIAL GUESS DONE (   3.8 sec)
                      ------------------
--------------
SCF ITERATIONS
--------------
ITER       Energy         Delta-E        Max-DP      RMS-DP      [F,P]     Damp
               ***  Starting incremental Fock matrix formation  ***
  0  -2121.6409623579   0.000000000000 0.06934408  0.00121189  0.2351443 0.7000
  1  -2122.3099735429  -0.669011184940 0.05272060  0.00098181  0.1454716 0.7000
                               ***Turning on DIIS***
  2  -2122.7261627767  -0.416189233856 0.11742551  0.00221875  0.0807696 0.0000
  3  -2117.7710801848   4.955082591949 0.03417127  0.00068522  0.0442572 0.0000
  4  -2123.4141681223  -5.643087937522 0.00935472  0.00023058  0.0074042 0.0000
  5  -2123.5809083884  -0.166740266088 0.00556263  0.00013886  0.0051680 0.0000
  6  -2123.5594612119   0.021447176503 0.00471996  0.00009535  0.0024873 0.0000
  7  -2123.6636680571  -0.104206845208 0.00424283  0.00008072  0.0019648 0.0000
  8  -2123.6917386794  -0.028070622353 0.00414273  0.00008256  0.0018518 0.0000
                      *** Initiating the SOSCF procedure ***
                           *** Shutting down DIIS ***
                      *** Re-Reading the Fockian *** 
                      *** Removing any level shift *** 
ITER      Energy       Delta-E        Grad      Rot      Max-DP    RMS-DP
  9  -2123.65038204   0.0413566433  0.003223  0.003223  0.003005  0.000061
               *** Restarting incremental Fock matrix formation ***
 10  -2123.60740995   0.0429720893  0.002331  0.023074  0.006301  0.000103
 11  -2123.60811300  -0.0007030538  0.001487  0.077151  0.018631  0.000352
 12  -2123.60939430  -0.0012813005  0.001128  0.019581  0.005832  0.000090
 13  -2123.60974545  -0.0003511516  0.000943  0.021681  0.006638  0.000106
 14  -2123.60998783  -0.0002423789  0.000571  0.009052  0.003741  0.000049
 15  -2123.61007190  -0.0000840727  0.000331  0.009096  0.003552  0.000049
 16  -2123.61012905  -0.0000571429  0.000225  0.005161  0.001604  0.000024
 17  -2123.61014688  -0.0000178318  0.000120  0.001072  0.000559  0.000008
 18  -2123.61015092  -0.0000040369  0.000094  0.001176  0.000237  0.000006
 19  -2123.61015248  -0.0000015680  0.000054  0.001268  0.000188  0.000004
 20  -2123.61015333  -0.0000008494  0.000052  0.001857  0.000264  0.000005
 21  -2123.61015395  -0.0000006145  0.000032  0.001884  0.000300  0.000006
 22  -2123.61015436  -0.0000004149  0.000023  0.001234  0.000202  0.000004
 23  -2123.61015456  -0.0000001936  0.000018  0.000604  0.000160  0.000002
 24  -2123.61015466  -0.0000001077  0.000015  0.000396  0.000117  0.000002
 25  -2123.61015472  -0.0000000607  0.000013  0.000356  0.000109  0.000001
 26  -2123.61015477  -0.0000000452  0.000010  0.000360  0.000117  0.000002
 27  -2123.61015480  -0.0000000348  0.000007  0.000282  0.000096  0.000001
 28  -2123.61015482  -0.0000000200  0.000004  0.000085  0.000030  0.000000
 29  -2123.61015483  -0.0000000077  0.000003  0.000022  0.000008  0.000000
               *** Restarting incremental Fock matrix formation ***
                  ***Gradient check signals convergence***
              ***Rediagonalizing the Fockian in SOSCF/NRSCF***

               *****************************************************
               *                     SUCCESS                       *
               *           SCF CONVERGED AFTER  30 CYCLES          *
               *****************************************************


----------------
TOTAL SCF ENERGY
----------------

Total Energy       :        -2123.61015480 Eh          -57786.37011 eV

Components:
Nuclear Repulsion  :         6221.80842235 Eh          169304.01442 eV
Electronic Energy  :        -8345.41857715 Eh         -227090.38454 eV
One Electron Energy:       -15285.11107620 Eh         -415929.01781 eV
Two Electron Energy:         6939.69249905 Eh          188838.63327 eV

Virial components:
Potential Energy   :        -4245.59048926 Eh         -115528.39056 eV
Kinetic Energy     :         2121.98033446 Eh           57742.02045 eV
Virial Ratio       :            2.00076807


---------------
SCF CONVERGENCE
---------------

  Last Energy change         ...    3.1881e-08  Tolerance :   1.0000e-08
  Last MAX-Density change    ...    6.4841e-06  Tolerance :   1.0000e-07
  Last RMS-Density change    ...    1.2899e-07  Tolerance :   5.0000e-09
  Last Orbital Gradient      ...    1.3564e-06  Tolerance :   1.0000e-05
  Last Orbital Rotation      ...    2.4049e-05  Tolerance :   1.0000e-05

             **** THE GBW FILE WAS UPDATED (/scratch/allen/tmpyp4_amber_gaff2/conf1/conf1/Conf272.orca.gbw) ****
             **** DENSITY /scratch/allen/tmpyp4_amber_gaff2/conf1/conf1/Conf272.orca.scfp WAS UPDATED ****
             **** ENERGY FILE WAS UPDATED (/scratch/allen/tmpyp4_amber_gaff2/conf1/conf1/Conf272.orca.en.tmp) ****
             **** THE GBW FILE WAS UPDATED (/scratch/allen/tmpyp4_amber_gaff2/conf1/conf1/Conf272.orca.gbw) ****
             **** DENSITY /scratch/allen/tmpyp4_amber_gaff2/conf1/conf1/Conf272.orca.scfp WAS UPDATED ****
----------------
ORBITAL ENERGIES
----------------

  NO   OCC          E(Eh)            E(eV) 
   0   2.0000     -15.720934      -427.7884 
   1   2.0000     -15.628123      -425.2628 
   2   2.0000     -15.618470      -425.0002 
   3   2.0000     -15.575936      -423.8428 
   4   2.0000     -15.520742      -422.3409 
   5   2.0000     -15.503964      -421.8843 
   6   2.0000     -15.451369      -420.4531 
   7   2.0000     -15.426614      -419.7795 
   8   2.0000     -11.357923      -309.0648 
   9   2.0000     -11.357408      -309.0508 
  10   2.0000     -11.350873      -308.8730 
  11   2.0000     -11.314415      -307.8809 
  12   2.0000     -11.296167      -307.3843 
  13   2.0000     -11.290419      -307.2279 
  14   2.0000     -11.289543      -307.2041 
  15   2.0000     -11.287111      -307.1379 
  16   2.0000     -11.287013      -307.1353 
  17   2.0000     -11.281437      -306.9835 
  18   2.0000     -11.280058      -306.9460 
  19   2.0000     -11.271126      -306.7029 
  20   2.0000     -11.262764      -306.4754 
  21   2.0000     -11.242578      -305.9261 
  22   2.0000     -11.238874      -305.8253 
  23   2.0000     -11.231892      -305.6353 
  24   2.0000     -11.226520      -305.4891 
  25   2.0000     -11.225628      -305.4649 
  26   2.0000     -11.222772      -305.3871 
  27   2.0000     -11.218849      -305.2804 
  28   2.0000     -11.218540      -305.2720 
  29   2.0000     -11.211450      -305.0791 
  30   2.0000     -11.209598      -305.0287 
  31   2.0000     -11.195682      -304.6500 
  32   2.0000     -11.194567      -304.6196 
  33   2.0000     -11.193305      -304.5853 
  34   2.0000     -11.187759      -304.4344 
  35   2.0000     -11.187003      -304.4138 
  36   2.0000     -11.182545      -304.2925 
  37   2.0000     -11.179601      -304.2124 
  38   2.0000     -11.179529      -304.2105 
  39   2.0000     -11.178184      -304.1738 
  40   2.0000     -11.170458      -303.9636 
  41   2.0000     -11.165440      -303.8271 
  42   2.0000     -11.164476      -303.8008 
  43   2.0000     -11.161982      -303.7330 
  44   2.0000     -11.160533      -303.6935 
  45   2.0000     -11.144280      -303.2513 
  46   2.0000     -11.143649      -303.2341 
  47   2.0000     -11.140433      -303.1466 
  48   2.0000     -11.136976      -303.0525 
  49   2.0000     -11.130521      -302.8769 
  50   2.0000     -11.116341      -302.4910 
  51   2.0000     -11.110588      -302.3345 
  52   2.0000      -1.392432       -37.8900 
  53   2.0000      -1.316423       -35.8217 
  54   2.0000      -1.307487       -35.5785 
  55   2.0000      -1.271305       -34.5940 
  56   2.0000      -1.224605       -33.3232 
  57   2.0000      -1.200003       -32.6538 
  58   2.0000      -1.178489       -32.0683 
  59   2.0000      -1.165425       -31.7128 
  60   2.0000      -1.136592       -30.9282 
  61   2.0000      -1.109926       -30.2026 
  62   2.0000      -1.105784       -30.0899 
  63   2.0000      -1.097243       -29.8575 
  64   2.0000      -1.065576       -28.9958 
  65   2.0000      -1.057940       -28.7880 
  66   2.0000      -1.040901       -28.3244 
  67   2.0000      -1.032433       -28.0939 
  68   2.0000      -1.015281       -27.6272 
  69   2.0000      -1.003866       -27.3166 
  70   2.0000      -0.998560       -27.1722 
  71   2.0000      -0.995252       -27.0822 
  72   2.0000      -0.985618       -26.8200 
  73   2.0000      -0.975838       -26.5539 
  74   2.0000      -0.964426       -26.2434 
  75   2.0000      -0.961191       -26.1553 
  76   2.0000      -0.950690       -25.8696 
  77   2.0000      -0.940322       -25.5875 
  78   2.0000      -0.935941       -25.4683 
  79   2.0000      -0.919491       -25.0206 
  80   2.0000      -0.912017       -24.8172 
  81   2.0000      -0.891337       -24.2545 
  82   2.0000      -0.886795       -24.1309 
  83   2.0000      -0.868039       -23.6206 
  84   2.0000      -0.859950       -23.4004 
  85   2.0000      -0.846181       -23.0258 
  86   2.0000      -0.828926       -22.5562 
  87   2.0000      -0.826098       -22.4793 
  88   2.0000      -0.820037       -22.3144 
  89   2.0000      -0.794223       -21.6119 
  90   2.0000      -0.785639       -21.3783 
  91   2.0000      -0.772590       -21.0232 
  92   2.0000      -0.740835       -20.1591 
  93   2.0000      -0.733525       -19.9602 
  94   2.0000      -0.728937       -19.8354 
  95   2.0000      -0.724208       -19.7067 
  96   2.0000      -0.716000       -19.4833 
  97   2.0000      -0.711073       -19.3493 
  98   2.0000      -0.706371       -19.2213 
  99   2.0000      -0.705410       -19.1952 
 100   2.0000      -0.695801       -18.9337 
 101   2.0000      -0.687991       -18.7212 
 102   2.0000      -0.683950       -18.6112 
 103   2.0000      -0.675653       -18.3854 
 104   2.0000      -0.672183       -18.2910 
 105   2.0000      -0.671709       -18.2781 
 106   2.0000      -0.666686       -18.1414 
 107   2.0000      -0.661520       -18.0009 
 108   2.0000      -0.651952       -17.7405 
 109   2.0000      -0.648826       -17.6555 
 110   2.0000      -0.648360       -17.6428 
 111   2.0000      -0.641945       -17.4682 
 112   2.0000      -0.640418       -17.4267 
 113   2.0000      -0.635098       -17.2819 
 114   2.0000      -0.633668       -17.2430 
 115   2.0000      -0.629056       -17.1175 
 116   2.0000      -0.627047       -17.0628 
 117   2.0000      -0.614506       -16.7216 
 118   2.0000      -0.610692       -16.6178 
 119   2.0000      -0.608731       -16.5644 
 120   2.0000      -0.608145       -16.5485 
 121   2.0000      -0.600611       -16.3434 
 122   2.0000      -0.593224       -16.1424 
 123   2.0000      -0.589124       -16.0309 
 124   2.0000      -0.584077       -15.8936 
 125   2.0000      -0.577992       -15.7280 
 126   2.0000      -0.574560       -15.6346 
 127   2.0000      -0.571565       -15.5531 
 128   2.0000      -0.570609       -15.5271 
 129   2.0000      -0.569351       -15.4928 
 130   2.0000      -0.556244       -15.1362 
 131   2.0000      -0.542703       -14.7677 
 132   2.0000      -0.542012       -14.7489 
 133   2.0000      -0.538151       -14.6438 
 134   2.0000      -0.533437       -14.5156 
 135   2.0000      -0.529154       -14.3990 
 136   2.0000      -0.519519       -14.1368 
 137   2.0000      -0.515578       -14.0296 
 138   2.0000      -0.513727       -13.9792 
 139   2.0000      -0.511867       -13.9286 
 140   2.0000      -0.509588       -13.8666 
 141   2.0000      -0.503277       -13.6949 
 142   2.0000      -0.501127       -13.6364 
 143   2.0000      -0.497443       -13.5361 
 144   2.0000      -0.495274       -13.4771 
 145   2.0000      -0.492539       -13.4027 
 146   2.0000      -0.488261       -13.2863 
 147   2.0000      -0.473015       -12.8714 
 148   2.0000      -0.469879       -12.7861 
 149   2.0000      -0.465789       -12.6748 
 150   2.0000      -0.462841       -12.5945 
 151   2.0000      -0.459993       -12.5171 
 152   2.0000      -0.451865       -12.2959 
 153   2.0000      -0.440733       -11.9929 
 154   2.0000      -0.432577       -11.7710 
 155   2.0000      -0.430838       -11.7237 
 156   2.0000      -0.418546       -11.3892 
 157   2.0000      -0.416557       -11.3351 
 158   2.0000      -0.410927       -11.1819 
 159   2.0000      -0.410322       -11.1654 
 160   2.0000      -0.381369       -10.3776 
 161   2.0000      -0.369298       -10.0491 
 162   2.0000      -0.353106        -9.6085 
 163   2.0000      -0.351566        -9.5666 
 164   2.0000      -0.345529        -9.4023 
 165   2.0000      -0.341695        -9.2980 
 166   2.0000      -0.337829        -9.1928 
 167   2.0000      -0.316528        -8.6132 
 168   2.0000      -0.311682        -8.4813 
 169   2.0000      -0.305138        -8.3032 
 170   2.0000      -0.298019        -8.1095 
 171   2.0000      -0.282369        -7.6837 
 172   2.0000      -0.275265        -7.4903 
 173   2.0000      -0.266562        -7.2535 
 174   2.0000      -0.228684        -6.2228 
 175   2.0000      -0.182885        -4.9766 
 176   2.0000      -0.173088        -4.7100 
 177   2.0000      -0.062663        -1.7052 
 178   2.0000      -0.050745        -1.3808 
 179   0.0000       0.036390         0.9902 
 180   0.0000       0.054122         1.4727 
 181   0.0000       0.072837         1.9820 
 182   0.0000       0.098668         2.6849 
 183   0.0000       0.102361         2.7854 
 184   0.0000       0.122728         3.3396 
 185   0.0000       0.141695         3.8557 
 186   0.0000       0.149185         4.0595 
 187   0.0000       0.160424         4.3654 
 188   0.0000       0.164971         4.4891 
 189   0.0000       0.166816         4.5393 
 190   0.0000       0.167499         4.5579 
 191   0.0000       0.173243         4.7142 
 192   0.0000       0.180792         4.9196 
 193   0.0000       0.196137         5.3372 
 194   0.0000       0.199473         5.4279 
 195   0.0000       0.206149         5.6096 
 196   0.0000       0.212385         5.7793 
 197   0.0000       0.212521         5.7830 
 198   0.0000       0.216600         5.8940 
 199   0.0000       0.218091         5.9345 
 200   0.0000       0.229418         6.2428 
 201   0.0000       0.237147         6.4531 
 202   0.0000       0.237297         6.4572 
 203   0.0000       0.240274         6.5382 
 204   0.0000       0.241559         6.5731 
 205   0.0000       0.245638         6.6841 
 206   0.0000       0.246734         6.7140 
 207   0.0000       0.248872         6.7722 
 208   0.0000       0.251023         6.8307 
 209   0.0000       0.258406         7.0316 
 210   0.0000       0.263635         7.1739 
 211   0.0000       0.267140         7.2692 
 212   0.0000       0.268652         7.3104 
 213   0.0000       0.274125         7.4593 
 214   0.0000       0.279112         7.5950 
 215   0.0000       0.280727         7.6390 
 216   0.0000       0.283497         7.7144 
 217   0.0000       0.285178         7.7601 
 218   0.0000       0.287468         7.8224 
 219   0.0000       0.289682         7.8827 
 220   0.0000       0.290352         7.9009 
 221   0.0000       0.294596         8.0164 
 222   0.0000       0.299286         8.1440 
 223   0.0000       0.300077         8.1655 
 224   0.0000       0.300488         8.1767 
 225   0.0000       0.305368         8.3095 
 226   0.0000       0.306829         8.3493 
 227   0.0000       0.307522         8.3681 
 228   0.0000       0.318115         8.6563 
 229   0.0000       0.320816         8.7298 
 230   0.0000       0.327662         8.9161 
 231   0.0000       0.330646         8.9973 
 232   0.0000       0.333480         9.0745 
 233   0.0000       0.336887         9.1672 
 234   0.0000       0.340538         9.2665 
 235   0.0000       0.356328         9.6962 
 236   0.0000       0.358416         9.7530 
 237   0.0000       0.361773         9.8443 
 238   0.0000       0.373724        10.1695 
 239   0.0000       0.386531        10.5180 
 240   0.0000       0.394021        10.7219 
 241   0.0000       0.398862        10.8536 
 242   0.0000       0.408350        11.1118 
 243   0.0000       0.416812        11.3420 
 244   0.0000       0.423639        11.5278 
 245   0.0000       0.430909        11.7256 
 246   0.0000       0.436486        11.8774 
 247   0.0000       0.438678        11.9370 
 248   0.0000       0.443711        12.0740 
 249   0.0000       0.444736        12.1019 
 250   0.0000       0.451943        12.2980 
 251   0.0000       0.456047        12.4097 
 252   0.0000       0.457219        12.4416 
 253   0.0000       0.469263        12.7693 
 254   0.0000       0.471591        12.8326 
 255   0.0000       0.476748        12.9730 
 256   0.0000       0.480173        13.0662 
 257   0.0000       0.483328        13.1520 
 258   0.0000       0.483895        13.1675 
 259   0.0000       0.492950        13.4139 
 260   0.0000       0.501367        13.6429 
 261   0.0000       0.504731        13.7344 
 262   0.0000       0.506245        13.7756 
 263   0.0000       0.509808        13.8726 
 264   0.0000       0.512330        13.9412 
 265   0.0000       0.517243        14.0749 
 266   0.0000       0.521243        14.1837 
 267   0.0000       0.525534        14.3005 
 268   0.0000       0.531897        14.4737 
 269   0.0000       0.537955        14.6385 
 270   0.0000       0.543210        14.7815 
 271   0.0000       0.544592        14.8191 
 272   0.0000       0.546889        14.8816 
 273   0.0000       0.548644        14.9294 
 274   0.0000       0.553181        15.0528 
 275   0.0000       0.560729        15.2582 
 276   0.0000       0.568506        15.4698 
 277   0.0000       0.571789        15.5592 
 278   0.0000       0.578481        15.7413 
 279   0.0000       0.586070        15.9478 
 280   0.0000       0.588017        16.0008 
 281   0.0000       0.593859        16.1597 
 282   0.0000       0.597170        16.2498 
 283   0.0000       0.598288        16.2802 
 284   0.0000       0.599693        16.3185 
 285   0.0000       0.601886        16.3781 
 286   0.0000       0.604972        16.4621 
 287   0.0000       0.608161        16.5489 
 288   0.0000       0.613045        16.6818 
 289   0.0000       0.620198        16.8764 
 290   0.0000       0.626497        17.0479 
 291   0.0000       0.629809        17.1380 
 292   0.0000       0.632942        17.2232 
 293   0.0000       0.638411        17.3720 
 294   0.0000       0.642674        17.4881 
 295   0.0000       0.646704        17.5977 
 296   0.0000       0.647921        17.6308 
 297   0.0000       0.655401        17.8344 
 298   0.0000       0.659880        17.9562 
 299   0.0000       0.662193        18.0192 
 300   0.0000       0.663276        18.0487 
 301   0.0000       0.668816        18.1994 
 302   0.0000       0.669256        18.2114 
 303   0.0000       0.673582        18.3291 
 304   0.0000       0.677976        18.4487 
 305   0.0000       0.679998        18.5037 
 306   0.0000       0.682988        18.5851 
 307   0.0000       0.686559        18.6822 
 308   0.0000       0.690584        18.7917 
 309   0.0000       0.693514        18.8715 
 310   0.0000       0.699408        19.0319 
 311   0.0000       0.701090        19.0776 
 312   0.0000       0.704832        19.1795 
 313   0.0000       0.707673        19.2568 
 314   0.0000       0.712075        19.3765 
 315   0.0000       0.715011        19.4564 
 316   0.0000       0.715813        19.4783 
 317   0.0000       0.717917        19.5355 
 318   0.0000       0.719478        19.5780 
 319   0.0000       0.723002        19.6739 
 320   0.0000       0.726074        19.7575 
 321   0.0000       0.729340        19.8464 
 322   0.0000       0.731771        19.9125 
 323   0.0000       0.737482        20.0679 
 324   0.0000       0.739173        20.1139 
 325   0.0000       0.744106        20.2481 
 326   0.0000       0.744577        20.2610 
 327   0.0000       0.748244        20.3608 
 328   0.0000       0.753267        20.4974 
 329   0.0000       0.755387        20.5551 
 330   0.0000       0.759400        20.6643 
 331   0.0000       0.760771        20.7016 
 332   0.0000       0.762927        20.7603 
 333   0.0000       0.765206        20.8223 
 334   0.0000       0.765660        20.8347 
 335   0.0000       0.767753        20.8916 
 336   0.0000       0.770754        20.9733 
 337   0.0000       0.775761        21.1095 
 338   0.0000       0.783809        21.3285 
 339   0.0000       0.785929        21.3862 
 340   0.0000       0.788949        21.4684 
 341   0.0000       0.791213        21.5300 
 342   0.0000       0.792727        21.5712 
 343   0.0000       0.794463        21.6184 
 344   0.0000       0.796500        21.6739 
 345   0.0000       0.797809        21.7095 
 346   0.0000       0.805050        21.9065 
 347   0.0000       0.805861        21.9286 
 348   0.0000       0.812004        22.0958 
 349   0.0000       0.814762        22.1708 
 350   0.0000       0.817485        22.2449 
 351   0.0000       0.821752        22.3610 
 352   0.0000       0.824972        22.4486 
 353   0.0000       0.825655        22.4672 
 354   0.0000       0.828350        22.5406 
 355   0.0000       0.829943        22.5839 
 356   0.0000       0.830441        22.5975 
 357   0.0000       0.836818        22.7710 
 358   0.0000       0.840538        22.8722 
 359   0.0000       0.840717        22.8771 
 360   0.0000       0.844820        22.9887 
 361   0.0000       0.846068        23.0227 
 362   0.0000       0.848993        23.1023 
 363   0.0000       0.851266        23.1641 
 364   0.0000       0.851661        23.1749 
 365   0.0000       0.857317        23.3288 
 366   0.0000       0.859256        23.3816 
 367   0.0000       0.859315        23.3831 
 368   0.0000       0.861742        23.4492 
 369   0.0000       0.864697        23.5296 
 370   0.0000       0.866362        23.5749 
 371   0.0000       0.868429        23.6312 
 372   0.0000       0.869360        23.6565 
 373   0.0000       0.871700        23.7202 
 374   0.0000       0.875343        23.8193 
 375   0.0000       0.877348        23.8739 
 376   0.0000       0.878381        23.9020 
 377   0.0000       0.879071        23.9207 
 378   0.0000       0.883925        24.0528 
 379   0.0000       0.889481        24.2040 
 380   0.0000       0.889814        24.2131 
 381   0.0000       0.891469        24.2581 
 382   0.0000       0.902256        24.5516 
 383   0.0000       0.903735        24.5919 
 384   0.0000       0.904078        24.6012 
 385   0.0000       0.908220        24.7139 
 386   0.0000       0.910133        24.7660 
 387   0.0000       0.916376        24.9359 
 388   0.0000       0.918161        24.9844 
 389   0.0000       0.918741        25.0002 
 390   0.0000       0.920395        25.0452 
 391   0.0000       0.924900        25.1678 
 392   0.0000       0.928658        25.2701 
 393   0.0000       0.933510        25.4021 
 394   0.0000       0.933684        25.4068 
 395   0.0000       0.935862        25.4661 
 396   0.0000       0.936757        25.4904 
 397   0.0000       0.939483        25.5646 
 398   0.0000       0.941418        25.6173 
 399   0.0000       0.942791        25.6547 
 400   0.0000       0.945312        25.7233 
 401   0.0000       0.948830        25.8190 
 402   0.0000       0.952283        25.9129 
 403   0.0000       0.956433        26.0259 
 404   0.0000       0.958762        26.0892 
 405   0.0000       0.960747        26.1433 
 406   0.0000       0.962980        26.2040 
 407   0.0000       0.967720        26.3330 
 408   0.0000       0.969464        26.3805 
 409   0.0000       0.975381        26.5415 
 410   0.0000       0.981351        26.7039 
 411   0.0000       0.984784        26.7973 
 412   0.0000       0.988488        26.8981 
 413   0.0000       0.996669        27.1207 
 414   0.0000       0.997111        27.1328 
 415   0.0000       1.000103        27.2142 
 416   0.0000       1.004347        27.3297 
 417   0.0000       1.007153        27.4060 
 418   0.0000       1.008901        27.4536 
 419   0.0000       1.011416        27.5220 
 420   0.0000       1.019068        27.7303 
 421   0.0000       1.027094        27.9487 
 422   0.0000       1.032964        28.1084 
 423   0.0000       1.037872        28.2419 
 424   0.0000       1.039813        28.2948 
 425   0.0000       1.046142        28.4670 
 426   0.0000       1.057005        28.7626 
 427   0.0000       1.062432        28.9102 
 428   0.0000       1.066478        29.0203 
 429   0.0000       1.070827        29.1387 
 430   0.0000       1.073788        29.2193 
 431   0.0000       1.082400        29.4536 
 432   0.0000       1.085482        29.5375 
 433   0.0000       1.088507        29.6198 
 434   0.0000       1.094369        29.7793 
 435   0.0000       1.096225        29.8298 
 436   0.0000       1.102268        29.9942 
 437   0.0000       1.110420        30.2161 
 438   0.0000       1.112549        30.2740 
 439   0.0000       1.114985        30.3403 
 440   0.0000       1.117083        30.3974 
 441   0.0000       1.118653        30.4401 
 442   0.0000       1.124193        30.5908 
 443   0.0000       1.128550        30.7094 
 444   0.0000       1.133153        30.8347 
 445   0.0000       1.134678        30.8762 
 446   0.0000       1.142080        31.0776 
 447   0.0000       1.143888        31.1268 
 448   0.0000       1.145180        31.1619 
 449   0.0000       1.148872        31.2624 
 450   0.0000       1.155407        31.4402 
 451   0.0000       1.156296        31.4644 
 452   0.0000       1.159101        31.5407 
 453   0.0000       1.160776        31.5863 
 454   0.0000       1.165959        31.7274 
 455   0.0000       1.167651        31.7734 
 456   0.0000       1.176025        32.0013 
 457   0.0000       1.178182        32.0600 
 458   0.0000       1.182872        32.1876 
 459   0.0000       1.186574        32.2883 
 460   0.0000       1.189546        32.3692 
 461   0.0000       1.191443        32.4208 
 462   0.0000       1.200163        32.6581 
 463   0.0000       1.200250        32.6605 
 464   0.0000       1.204558        32.7777 
 465   0.0000       1.208834        32.8940 
 466   0.0000       1.210026        32.9265 
 467   0.0000       1.212980        33.0069 
 468   0.0000       1.216762        33.1098 
 469   0.0000       1.220126        33.2013 
 470   0.0000       1.226466        33.3738 
 471   0.0000       1.229280        33.4504 
 472   0.0000       1.233561        33.5669 
 473   0.0000       1.237337        33.6696 
 474   0.0000       1.238934        33.7131 
 475   0.0000       1.243024        33.8244 
 476   0.0000       1.246562        33.9207 
 477   0.0000       1.250237        34.0207 
 478   0.0000       1.256774        34.1986 
 479   0.0000       1.258038        34.2329 
 480   0.0000       1.258634        34.2492 
 481   0.0000       1.264306        34.4035 
 482   0.0000       1.265636        34.4397 
 483   0.0000       1.269650        34.5489 
 484   0.0000       1.275287        34.7023 
 485   0.0000       1.282419        34.8964 
 486   0.0000       1.283516        34.9263 
 487   0.0000       1.286812        35.0159 
 488   0.0000       1.289760        35.0961 
 489   0.0000       1.292121        35.1604 
 490   0.0000       1.295335        35.2479 
 491   0.0000       1.299868        35.3712 
 492   0.0000       1.302752        35.4497 
 493   0.0000       1.306167        35.5426 
 494   0.0000       1.310214        35.6527 
 495   0.0000       1.314677        35.7742 
 496   0.0000       1.319841        35.9147 
 497   0.0000       1.323373        36.0108 
 498   0.0000       1.324525        36.0422 
 499   0.0000       1.331227        36.2245 
 500   0.0000       1.332561        36.2608 
 501   0.0000       1.336664        36.3725 
 502   0.0000       1.340288        36.4711 
 503   0.0000       1.343173        36.5496 
 504   0.0000       1.346348        36.6360 
[...]
      pz      :     0.021739  p :     0.079233
      px      :     0.042794
      py      :     0.014700
 77 H s       :     0.896397  s :     0.896397
      pz      :     0.047058  p :     0.078272
      px      :     0.015002
      py      :     0.016212
 78 H s       :     0.896794  s :     0.896794
      pz      :     0.025412  p :     0.078181
      px      :     0.020726
      py      :     0.032042
 79 H s       :     0.906967  s :     0.906967
      pz      :     0.022669  p :     0.087341
      px      :     0.021914
      py      :     0.042758
 80 H s       :     0.880894  s :     0.880894
      pz      :     0.038066  p :     0.083074
      px      :     0.029431
      py      :     0.015577
 81 H s       :     0.889019  s :     0.889019
      pz      :     0.037519  p :     0.083226
      px      :     0.016069
      py      :     0.029638
 82 H s       :     0.914140  s :     0.914140
      pz      :     0.022556  p :     0.087191
      px      :     0.030857
      py      :     0.033779
 83 H s       :     0.872317  s :     0.872317
      pz      :     0.039154  p :     0.083586
      px      :     0.015248
      py      :     0.029185
 84 H s       :     0.889077  s :     0.889077
      pz      :     0.035806  p :     0.084537
      px      :     0.031811
      py      :     0.016920
 85 H s       :     0.896491  s :     0.896491
      pz      :     0.022508  p :     0.079582
      px      :     0.014167
      py      :     0.042907
 86 H s       :     0.890835  s :     0.890835
      pz      :     0.024692  p :     0.078888
      px      :     0.032987
      py      :     0.021208
 87 H s       :     0.891539  s :     0.891539
      pz      :     0.047777  p :     0.078563
      px      :     0.015665
      py      :     0.015121
 88 H s       :     0.918851  s :     0.918851
      pz      :     0.022602  p :     0.086822
      px      :     0.041903
      py      :     0.022317
 89 H s       :     0.875877  s :     0.875877
      pz      :     0.037782  p :     0.084043
      px      :     0.030452
      py      :     0.015809


                      *****************************
                      * MAYER POPULATION ANALYSIS *
                      *****************************

  NA   - Mulliken gross atomic population
  ZA   - Total nuclear charge
  QA   - Mulliken gross atomic charge
  VA   - Mayer's total valence
  BVA  - Mayer's bonded valence
  FA   - Mayer's free valence

  ATOM       NA         ZA         QA         VA         BVA        FA
  0 C      5.7629     6.0000     0.2371     3.7981     3.7981    -0.0000
  1 N      7.4093     7.0000    -0.4093     3.4877     3.4877     0.0000
  2 C      6.0664     6.0000    -0.0664     3.9208     3.9208    -0.0000
  3 N      7.3444     7.0000    -0.3444     3.4187     3.4187     0.0000
  4 C      6.0665     6.0000    -0.0665     3.9513     3.9513    -0.0000
  5 N      7.5663     7.0000    -0.5663     3.0651     3.0651    -0.0000
  6 C      6.0269     6.0000    -0.0269     3.9582     3.9582     0.0000
  7 N      7.3368     7.0000    -0.3368     3.4459     3.4459     0.0000
  8 C      5.7638     6.0000     0.2362     3.7985     3.7985     0.0000
  9 N      7.5665     7.0000    -0.5665     3.0928     3.0928    -0.0000
 10 C      5.8977     6.0000     0.1023     3.8562     3.8562    -0.0000
 11 N      7.4403     7.0000    -0.4403     3.3703     3.3703    -0.0000
 12 C      6.0579     6.0000    -0.0579     3.9082     3.9082    -0.0000
 13 N      7.4521     7.0000    -0.4521     3.3117     3.3117     0.0000
 14 C      5.7813     6.0000     0.2187     3.8125     3.8125    -0.0000
 15 N      7.4418     7.0000    -0.4418     3.3618     3.3618     0.0000
 16 C      5.7416     6.0000     0.2584     3.8067     3.8067    -0.0000
 17 C      6.0296     6.0000    -0.0296     3.9583     3.9583     0.0000
 18 C      6.1741     6.0000    -0.1741     3.6692     3.6692    -0.0000
 19 C      5.7701     6.0000     0.2299     3.9035     3.9035    -0.0000
 20 C      5.8145     6.0000     0.1855     3.8206     3.8206     0.0000
 21 C      6.0669     6.0000    -0.0669     3.8894     3.8894     0.0000
 22 C      6.0924     6.0000    -0.0924     3.9850     3.9850     0.0000
 23 C      6.0695     6.0000    -0.0695     3.9884     3.9884    -0.0000
 24 C      5.7823     6.0000     0.2177     3.8312     3.8312    -0.0000
 25 C      5.8848     6.0000     0.1152     3.8946     3.8946     0.0000
 26 C      6.0648     6.0000    -0.0648     3.9100     3.9100    -0.0000
 27 C      5.7497     6.0000     0.2503     3.9040     3.9040    -0.0000
 28 C      6.0387     6.0000    -0.0387     3.9912     3.9912    -0.0000
 29 C      6.1980     6.0000    -0.1980     3.7280     3.7280     0.0000
 30 C      5.7806     6.0000     0.2194     3.7768     3.7768     0.0000
 31 C      5.8142     6.0000     0.1858     3.8341     3.8341    -0.0000
 32 C      6.0643     6.0000    -0.0643     3.9128     3.9128    -0.0000
 33 C      6.1045     6.0000    -0.1045     3.9837     3.9837    -0.0000
 34 C      6.0505     6.0000    -0.0505     4.0003     4.0003    -0.0000
 35 C      5.8240     6.0000     0.1760     3.8302     3.8302    -0.0000
 36 C      5.8783     6.0000     0.1217     3.9123     3.9123    -0.0000
 37 C      6.0710     6.0000    -0.0710     3.9130     3.9130    -0.0000
 38 C      5.7548     6.0000     0.2452     3.7936     3.7936    -0.0000
 39 C      6.0658     6.0000    -0.0658     3.9997     3.9997    -0.0000
 40 C      6.2059     6.0000    -0.2059     3.7538     3.7538     0.0000
 41 C      5.7842     6.0000     0.2158     3.8730     3.8730    -0.0000
 42 C      5.7872     6.0000     0.2128     3.8334     3.8334    -0.0000
 43 C      6.0778     6.0000    -0.0778     3.9051     3.9051     0.0000
 44 C      6.0929     6.0000    -0.0929     3.9826     3.9826     0.0000
 45 C      6.0368     6.0000    -0.0368     3.9966     3.9966    -0.0000
 46 C      5.8182     6.0000     0.1818     3.8194     3.8194     0.0000
 47 C      5.8831     6.0000     0.1169     3.8977     3.8977    -0.0000
 48 C      6.0828     6.0000    -0.0828     3.8969     3.8969     0.0000
 49 C      5.7942     6.0000     0.2058     3.8600     3.8600    -0.0000
 50 C      6.0692     6.0000    -0.0692     3.9903     3.9903    -0.0000
 51 C      6.1885     6.0000    -0.1885     3.7433     3.7433     0.0000
 52 H      0.9152     1.0000     0.0848     0.9817     0.9817     0.0000
 53 H      1.0060     1.0000    -0.0060     1.0028     1.0028    -0.0000
 54 H      0.9316     1.0000     0.0684     1.0047     1.0047     0.0000
 55 H      0.9170     1.0000     0.0830     0.9825     0.9825     0.0000
 56 H      0.9124     1.0000     0.0876     0.9727     0.9727    -0.0000
 57 H      0.9218     1.0000     0.0782     0.9848     0.9848     0.0000
 58 H      0.9232     1.0000     0.0768     0.9870     0.9870     0.0000
 59 H      1.0305     1.0000    -0.0305     0.9961     0.9961     0.0000
 60 H      0.9300     1.0000     0.0700     1.0045     1.0045    -0.0000
 61 H      0.8224     1.0000     0.1776     1.0439     1.0439     0.0000
 62 H      0.8328     1.0000     0.1672     1.0433     1.0433    -0.0000
 63 H      0.9483     1.0000     0.0517     0.9864     0.9864     0.0000
 64 H      1.0357     1.0000    -0.0357     0.9928     0.9928    -0.0000
 65 H      0.9606     1.0000     0.0394     1.0076     1.0076    -0.0000
 66 H      0.9460     1.0000     0.0540     0.9847     0.9847     0.0000
 67 H      0.9428     1.0000     0.0572     0.9715     0.9715     0.0000
 68 H      0.9447     1.0000     0.0553     0.9863     0.9863     0.0000
 69 H      0.9414     1.0000     0.0586     0.9830     0.9830     0.0000
 70 H      1.0120     1.0000    -0.0120     0.9987     0.9987     0.0000
 71 H      0.9541     1.0000     0.0459     1.0077     1.0077    -0.0000
 72 H      0.9645     1.0000     0.0355     0.9861     0.9861    -0.0000
 73 H      1.0196     1.0000    -0.0196     0.9960     0.9960    -0.0000
 74 H      0.9724     1.0000     0.0276     1.0089     1.0089     0.0000
 75 H      0.9659     1.0000     0.0341     0.9868     0.9868     0.0000
 76 H      0.9554     1.0000     0.0446     0.9700     0.9700    -0.0000
 77 H      0.9552     1.0000     0.0448     0.9841     0.9841    -0.0000
 78 H      0.9559     1.0000     0.0441     0.9834     0.9834     0.0000
 79 H      1.0115     1.0000    -0.0115     1.0021     1.0021    -0.0000
 80 H      0.9727     1.0000     0.0273     1.0061     1.0061    -0.0000
 81 H      0.9502     1.0000     0.0498     0.9852     0.9852    -0.0000
 82 H      1.0230     1.0000    -0.0230     0.9953     0.9953     0.0000
 83 H      0.9575     1.0000     0.0425     1.0109     1.0109    -0.0000
 84 H      0.9514     1.0000     0.0486     0.9865     0.9865    -0.0000
 85 H      0.9465     1.0000     0.0535     0.9713     0.9713     0.0000
 86 H      0.9437     1.0000     0.0563     0.9841     0.9841    -0.0000
 87 H      0.9459     1.0000     0.0541     0.9852     0.9852     0.0000
 88 H      1.0313     1.0000    -0.0313     0.9907     0.9907     0.0000
 89 H      0.9620     1.0000     0.0380     1.0057     1.0057    -0.0000

  Mayer bond orders larger than 0.100000
B(  0-C ,  1-N ) :   1.2141 B(  0-C , 17-C ) :   1.5047 B(  0-C , 52-H ) :   0.9665 
B(  1-N ,  8-C ) :   1.2114 B(  1-N , 10-C ) :   0.9228 B(  2-C , 12-C ) :   1.5838 
B(  2-C , 16-C ) :   1.2690 B(  2-C , 53-H ) :   0.9794 B(  3-N , 14-C ) :   1.1737 
B(  3-N , 16-C ) :   1.2020 B(  3-N , 61-H ) :   0.8950 B(  4-C ,  6-C ) :   1.3626 
B(  4-C , 17-C ) :   1.3682 B(  4-C , 18-C ) :   1.0433 B(  5-N , 19-C ) :   1.3623 
B(  5-N , 27-C ) :   1.4500 B(  6-C ,  8-C ) :   1.5082 B(  6-C , 54-H ) :   0.9707 
B(  7-N , 30-C ) :   1.1834 B(  7-N , 38-C ) :   1.2163 B(  7-N , 62-H ) :   0.9016 
B(  8-C , 55-H ) :   0.9674 B(  9-N , 41-C ) :   1.4361 B(  9-N , 49-C ) :   1.3917 
B( 10-C , 56-H ) :   0.9768 B( 10-C , 57-H ) :   0.9806 B( 10-C , 58-H ) :   0.9814 
B( 11-N , 20-C ) :   1.0946 B( 11-N , 24-C ) :   1.1343 B( 11-N , 25-C ) :   0.9629 
B( 12-C , 14-C ) :   1.2696 B( 12-C , 59-H ) :   0.9767 B( 13-N , 31-C ) :   1.0802 
B( 13-N , 35-C ) :   1.0697 B( 13-N , 36-C ) :   0.9836 B( 14-C , 18-C ) :   1.2666 
B( 15-N , 42-C ) :   1.1267 B( 15-N , 46-C ) :   1.0876 B( 15-N , 47-C ) :   0.9667 
B( 16-C , 51-C ) :   1.2518 B( 17-C , 60-H ) :   0.9706 B( 18-C , 19-C ) :   1.3159 
B( 19-C , 21-C ) :   1.1594 B( 20-C , 28-C ) :   1.6301 B( 20-C , 63-H ) :   0.9710 
B( 21-C , 26-C ) :   1.6853 B( 21-C , 64-H ) :   0.9716 B( 22-C , 23-C ) :   1.2534 
B( 22-C , 28-C ) :   1.2795 B( 22-C , 29-C ) :   1.2585 B( 23-C , 24-C ) :   1.6364 
B( 23-C , 65-H ) :   0.9723 B( 24-C , 66-H ) :   0.9691 B( 25-C , 67-H ) :   0.9762 
B( 25-C , 68-H ) :   0.9834 B( 25-C , 69-H ) :   0.9819 B( 26-C , 27-C ) :   1.1694 
B( 26-C , 70-H ) :   0.9759 B( 27-C , 29-C ) :   1.2441 B( 28-C , 71-H ) :   0.9709 
B( 29-C , 30-C ) :   1.1729 B( 30-C , 32-C ) :   1.3531 B( 31-C , 39-C ) :   1.6877 
B( 31-C , 72-H ) :   0.9709 B( 32-C , 37-C ) :   1.5071 B( 32-C , 73-H ) :   0.9771 
B( 33-C , 34-C ) :   1.2303 B( 33-C , 39-C ) :   1.2226 B( 33-C , 40-C ) :   1.3641 
B( 34-C , 35-C ) :   1.6863 B( 34-C , 74-H ) :   0.9710 B( 35-C , 75-H ) :   0.9709 
B( 36-C , 76-H ) :   0.9754 B( 36-C , 77-H ) :   0.9826 B( 36-C , 78-H ) :   0.9838 
B( 37-C , 38-C ) :   1.3462 B( 37-C , 79-H ) :   0.9794 B( 38-C , 40-C ) :   1.1769 
B( 39-C , 80-H ) :   0.9721 B( 40-C , 41-C ) :   1.1657 B( 41-C , 43-C ) :   1.2588 
B( 42-C , 50-C ) :   1.6428 B( 42-C , 81-H ) :   0.9696 B( 43-C , 48-C ) :   1.5923 
B( 43-C , 82-H ) :   0.9757 B( 44-C , 45-C ) :   1.2814 B( 44-C , 50-C ) :   1.2478 
B( 44-C , 51-C ) :   1.2463 B( 45-C , 46-C ) :   1.6332 B( 45-C , 83-H ) :   0.9702 
B( 46-C , 84-H ) :   0.9709 B( 47-C , 85-H ) :   0.9759 B( 47-C , 86-H ) :   0.9825 
B( 47-C , 87-H ) :   0.9830 B( 48-C , 49-C ) :   1.2529 B( 48-C , 88-H ) :   0.9725 
B( 49-C , 51-C ) :   1.1874 B( 50-C , 89-H ) :   0.9723 

-------
TIMINGS
-------

Total SCF time: 0 days 0 hours 31 min 4 sec 

Total time                  ....    1864.206 sec
Sum of individual times     ....    1859.407 sec  ( 99.7%)

Fock matrix formation       ....    1831.325 sec  ( 98.2%)
Diagonalization             ....       7.296 sec  (  0.4%)
Density matrix formation    ....       0.575 sec  (  0.0%)
Population analysis         ....       0.587 sec  (  0.0%)
Initial guess               ....       2.538 sec  (  0.1%)
Orbital Transformation      ....       0.000 sec  (  0.0%)
Orbital Orthonormalization  ....       0.000 sec  (  0.0%)
DIIS solution               ....       3.258 sec  (  0.2%)
SOSCF solution              ....      12.521 sec  (  0.7%)

Maximum memory used throughout the entire SCF-calculation: 302.6 MB


           ************************************************************
           *        Program running with 16 parallel MPI-processes    *
           *              working on a common directory               *
           ************************************************************

------------------------------------------------------------------------------
                                ORCA  MP2 
------------------------------------------------------------------------------

Freezing NCore=104 chemical core electrons

----------
MP2 ENERGY (disk based algorithm)
----------

Dimension of the basis                    ...  918
Memory devoted to MP2                     ... 2000 MB   
Data format for buffers                   ... DOUBLE
Compression type for matrix containers    ... UNCOMPRESSED

-------------------------------
PARTIAL EXCHANGE TRANSFORMATION
-------------------------------

Transformation type                        ... one-operator
Generation of integrals (i,mue|j,nue)      ... ON
Generation of integrals (mue,kappa|nue,tau)... OFF
Generation of integrals (i,mue|a,nue)      ... OFF
Dimension of the basis                     ...  918
Number of internal MOs                     ...  127 (  52- 178)
Pair cutoff                                ... 2.500e-12 Eh
Number of AO pairs in the trafo            ... 421821
Total Number of distinct AO pairs          ... 421821
Memory devoted for trafo                   ... 2000.0 MB 
Max. Number of MO pairs treated together   ...  311      
Number Format for Storage                  ... Double (8 Byte)
Integral package used                      ... LIBINT

Starting integral evaluation:
    ... done with AO integral generation
Closing buffer AOK     (37.58 GB; CompressionRatio= 1.35)
Collecting buffer AOK 
Number of MO pairs included in the trafo   ... 8128
------------------------
SORTING OF (i,mue|j,nue)
------------------------

IBATCH = 1 of  2
IBATCH = 2 of  2
Closing buffer KAO     (51.03 GB; CompressionRatio= 1.00)
Collecting buffer KAO 
N(AO-Batches) Done                         ...  85521122 
N(AO-Batches) Skipped                      ...  81943026 
N(IJ)-pairs Skipped                        ...         0 
TOTAL TIME for half transformation         ...  2642.601 sec
AO-integral generation                     ...   209.638 sec
Half transformation                        ...   425.553 sec
K-integral sorting                         ...  1786.218 sec
Process 10:   Internal MO 132
Process 13:   Internal MO 156

Finished integral transformation - now doing MP2 part

OPERATOR COMBINATION   0   0: ij=( 52..178, 52..178)
Process  7:   Internal MO 108
Process  1:   Internal MO  60
Process  4:   Internal MO  84
Process  0:   Internal MO  54
Process  0:   Internal MO  57
Process  2:   Internal MO  69
Process  1:   Internal MO  63
Process  8:   Internal MO 117
Process  5:   Internal MO  93
Process  1:   Internal MO  66
Process  2:   Internal MO  72
Process  6:   Internal MO 102
Process 14:   Internal MO 165
Process  3:   Internal MO  78
Process 11:   Internal MO 141
Process  2:   Internal MO  75
Process  7:   Internal MO 111
Process  3:   Internal MO  81
Process 15:   Internal MO 174
Process  5:   Internal MO  96
Process 10:   Internal MO 135
Process  4:   Internal MO  87
Process 12:   Internal MO 150
Process  9:   Internal MO 126
Process  6:   Internal MO 105
Process  8:   Internal MO 120
Process  4:   Internal MO  90
Process  5:   Internal MO  99
Process  7:   Internal MO 114
Process 11:   Internal MO 144
Process 13:   Internal MO 159
Process 14:   Internal MO 168
Process 10:   Internal MO 138
Process 12:   Internal MO 153
Process  8:   Internal MO 123
Process  9:   Internal MO 129
Process 15:   Internal MO 177
Process 11:   Internal MO 147
Process 13:   Internal MO 162
Process 14:   Internal MO 171
-----------------------------------------------
 MP2 CORRELATION ENERGY   :     -7.258897500 Eh
-----------------------------------------------


-------
TIMINGS
-------
Total time                : 2980.018 sec
Integral trafo            : 2645.567 sec ( 88.8%)
K(i,j)                    :    6.248 sec (  0.2%)
T(i,j)                    :    0.096 sec (  0.0%)

---------------------------------------
MP2 TOTAL ENERGY:    -2130.869052301 Eh
---------------------------------------

Maximum memory used throughout the entire MP2-calculation: 2275.2 MB

-------------------------   --------------------
FINAL SINGLE POINT ENERGY     -2130.869052300986
-------------------------   --------------------


                            ***************************************
                            *     ORCA property calculations      *
                            ***************************************


  WARNING: The energy has been calculated at the MP2 level but the densities
           used in the property calculations are still SCF densities
           MP2 response densities have not been calculated 
           use %mp2 Density relaxed end
           or  %mp2 Density unrelaxed end

                                    ---------------------
                                    Active property flags
                                    ---------------------
   (+) Dipole Moment


------------------------------------------------------------------------------
                       ORCA ELECTRIC PROPERTIES CALCULATION
------------------------------------------------------------------------------

Dipole Moment Calculation                       ... on
Quadrupole Moment Calculation                   ... off
Polarizability Calculation                      ... off
GBWName                                         ... /scratch/allen/tmpyp4_amber_gaff2/conf1/conf1/Conf272.orca.gbw
Electron density                                ... /scratch/allen/tmpyp4_amber_gaff2/conf1/conf1/Conf272.orca.scfp
The origin for moment calculation is the CENTER OF MASS  = ( 0.000274, -0.003827 -0.001598)

-------------
DIPOLE MOMENT
-------------
                                X             Y             Z
Electronic contribution:     -4.80005       5.56095      -0.06378
Nuclear contribution   :      0.05486       0.22498       0.09019
                        -----------------------------------------
Total Dipole Moment    :     -4.74520       5.78593       0.02641
                        -----------------------------------------
Magnitude (a.u.)       :      7.48295
Magnitude (Debye)      :     19.02015



--------------------
Rotational spectrum 
--------------------
 
Rotational constants in cm-1:     0.001498     0.001472     0.000763 
Rotational constants in MHz :    44.913312    44.125404    22.868217 

 Dipole components along the rotational axes: 
x,y,z [a.u.] :    -6.597439     3.530942     0.028483 
x,y,z [Debye]:   -16.769356     8.974942     0.072398 

 

Timings for individual modules:

Sum of individual times         ...     4869.690 sec (=  81.162 min)
GTO integral calculation        ...        3.453 sec (=   0.058 min)   0.1 %
SCF iterations                  ...     1865.420 sec (=  31.090 min)  38.3 %
MP2 module                      ...     3000.817 sec (=  50.014 min)  61.6 %
                             ****ORCA TERMINATED NORMALLY****
TOTAL RUN TIME: 0 days 1 hours 21 minutes 13 seconds 127 msec
# of primitive gaussian functions

