
                                 *****************
                                 * O   R   C   A *
                                 *****************

                                            #,                                       
                                            ###                                      
                                            ####                                     
                                            #####                                    
                                            ######                                   
                                           ########,                                 
                                     ,,################,,,,,                         
                               ,,#################################,,                 
                          ,,##########################################,,             
                       ,#########################################, ''#####,          
                    ,#############################################,,   '####,        
                  ,##################################################,,,,####,       
                ,###########''''           ''''###############################       
              ,#####''   ,,,,##########,,,,          '''####'''          '####       
            ,##' ,,,,###########################,,,                        '##       
           ' ,,###''''                  '''############,,,                           
         ,,##''                                '''############,,,,        ,,,,,,###''
      ,#''                                            '''#######################'''  
     '                                                          ''''####''''         
             ,#######,   #######,   ,#######,      ##                                
            ,#'     '#,  ##    ##  ,#'     '#,    #''#        ######   ,####,        
            ##       ##  ##   ,#'  ##            #'  '#       #        #'  '#        
            ##       ##  #######   ##           ,######,      #####,   #    #        
            '#,     ,#'  ##    ##  '#,     ,#' ,#      #,         ##   #,  ,#        
             '#######'   ##     ##  '#######'  #'      '#     #####' # '####'        



                  #######################################################
                  #                        -***-                        #
                  #          Department of theory and spectroscopy      #
                  #    Directorship and core code : Frank Neese         #
                  #        Max Planck Institute fuer Kohlenforschung    #
                  #                Kaiser Wilhelm Platz 1               #
                  #                 D-45470 Muelheim/Ruhr               #
                  #                      Germany                        #
                  #                                                     #
                  #                  All rights reserved                #
                  #                        -***-                        #
                  #######################################################


                         Program Version 5.0.4 -  RELEASE  -


 With contributions from (in alphabetic order):
   Daniel Aravena         : Magnetic Suceptibility
   Michael Atanasov       : Ab Initio Ligand Field Theory (pilot matlab implementation)
   Alexander A. Auer      : GIAO ZORA, VPT2 properties, NMR spectrum
   Ute Becker             : Parallelization
   Giovanni Bistoni       : ED, misc. LED, open-shell LED, HFLD
   Martin Brehm           : Molecular dynamics
   Dmytro Bykov           : SCF Hessian
   Vijay G. Chilkuri      : MRCI spin determinant printing, contributions to CSF-ICE
   Dipayan Datta          : RHF DLPNO-CCSD density
   Achintya Kumar Dutta   : EOM-CC, STEOM-CC
   Dmitry Ganyushin       : Spin-Orbit,Spin-Spin,Magnetic field MRCI
   Miquel Garcia          : C-PCM and meta-GGA Hessian, CC/C-PCM, Gaussian charge scheme
   Yang Guo               : DLPNO-NEVPT2, F12-NEVPT2, CIM, IAO-localization
   Andreas Hansen         : Spin unrestricted coupled pair/coupled cluster methods
   Benjamin Helmich-Paris : MC-RPA, TRAH-SCF, COSX integrals
   Lee Huntington         : MR-EOM, pCC
   Robert Izsak           : Overlap fitted RIJCOSX, COSX-SCS-MP3, EOM
   Marcus Kettner         : VPT2
   Christian Kollmar      : KDIIS, OOCD, Brueckner-CCSD(T), CCSD density, CASPT2, CASPT2-K
   Simone Kossmann        : Meta GGA functionals, TD-DFT gradient, OOMP2, MP2 Hessian
   Martin Krupicka        : Initial AUTO-CI
   Lucas Lang             : DCDCAS
   Marvin Lechner         : AUTO-CI (C++ implementation), FIC-MRCC
   Dagmar Lenk            : GEPOL surface, SMD
   Dimitrios Liakos       : Extrapolation schemes; Compound Job, initial MDCI parallelization
   Dimitrios Manganas     : Further ROCIS development; embedding schemes
   Dimitrios Pantazis     : SARC Basis sets
   Anastasios Papadopoulos: AUTO-CI, single reference methods and gradients
   Taras Petrenko         : DFT Hessian,TD-DFT gradient, ASA, ECA, R-Raman, ABS, FL, XAS/XES, NRVS
   Peter Pinski           : DLPNO-MP2, DLPNO-MP2 Gradient
   Christoph Reimann      : Effective Core Potentials
   Marius Retegan         : Local ZFS, SOC
   Christoph Riplinger    : Optimizer, TS searches, QM/MM, DLPNO-CCSD(T), (RO)-DLPNO pert. Triples
   Tobias Risthaus        : Range-separated hybrids, TD-DFT gradient, RPA, STAB
   Michael Roemelt        : Original ROCIS implementation
   Masaaki Saitow         : Open-shell DLPNO-CCSD energy and density
   Barbara Sandhoefer     : DKH picture change effects
   Avijit Sen             : IP-ROCIS
   Kantharuban Sivalingam : CASSCF convergence, NEVPT2, FIC-MRCI
   Bernardo de Souza      : ESD, SOC TD-DFT
   Georgi Stoychev        : AutoAux, RI-MP2 NMR, DLPNO-MP2 response
   Willem Van den Heuvel  : Paramagnetic NMR
   Boris Wezisla          : Elementary symmetry handling
   Frank Wennmohs         : Technical directorship


 We gratefully acknowledge several colleagues who have allowed us to
 interface, adapt or use parts of their codes:
   Stefan Grimme, W. Hujo, H. Kruse, P. Pracht,  : VdW corrections, initial TS optimization,
                  C. Bannwarth, S. Ehlert          DFT functionals, gCP, sTDA/sTD-DF
   Ed Valeev, F. Pavosevic, A. Kumar             : LibInt (2-el integral package), F12 methods
   Garnet Chan, S. Sharma, J. Yang, R. Olivares  : DMRG
   Ulf Ekstrom                                   : XCFun DFT Library
   Mihaly Kallay                                 : mrcc  (arbitrary order and MRCC methods)
   Jiri Pittner, Ondrej Demel                    : Mk-CCSD
   Frank Weinhold                                : gennbo (NPA and NBO analysis)
   Christopher J. Cramer and Donald G. Truhlar   : smd solvation model
   Lars Goerigk                                  : TD-DFT with DH, B97 family of functionals
   V. Asgeirsson, H. Jonsson                     : NEB implementation
   FAccTs GmbH                                   : IRC, NEB, NEB-TS, DLPNO-Multilevel, CI-OPT
                                                   MM, QMMM, 2- and 3-layer-ONIOM, Crystal-QMMM,
                                                   LR-CPCM, SF, NACMEs, symmetry and pop. for TD-DFT,
                                                   nearIR, NL-DFT gradient (VV10), updates on ESD,
                                                   ML-optimized integration grids
   S Lehtola, MJT Oliveira, MAL Marques          : LibXC Library
   Liviu Ungur et al                             : ANISO software


 Your calculation uses the libint2 library for the computation of 2-el integrals
 For citations please refer to: http://libint.valeyev.net

 Your ORCA version has been built with support for libXC version: 5.1.0
 For citations please refer to: https://tddft.org/programs/libxc/

 This ORCA versions uses:
   CBLAS   interface :  Fast vector & matrix operations
   LAPACKE interface :  Fast linear algebra routines
   SCALAPACK package :  Parallel linear algebra routines
   Shared memory     :  Shared parallel matrices
   BLAS/LAPACK       :  OpenBLAS 0.3.15  USE64BITINT DYNAMIC_ARCH NO_AFFINITY Sandybridge SINGLE_THREADED
        Core in use  :  Sandybridge
   Copyright (c) 2011-2014, The OpenBLAS Project


================================================================================

----- Orbital basis set information -----
Your calculation utilizes the basis: cc-pVDZ 
       H, B-Ne : Obtained from the ccRepo (grant-hill.group.shef.ac.uk/ccrepo) Feb. 2017
                 T. H. Dunning, Jr., J. Chem. Phys. 90, 1007 (1989)
            He : Obtained from the ccRepo (grant-hill.group.shef.ac.uk/ccrepo) Feb. 2017
                 D. E. Woon, T. H. Dunning, Jr., J. Chem. Phys. 100, 2975 (1994)
  Li-Be, Na-Mg : Obtained from the ccRepo (grant-hill.group.shef.ac.uk/ccrepo) Feb. 2017
                 B. P. Prascher, D. E. Woon, K. A. Peterson, T. H. Dunning, Jr., A. K. Wilson, Theor. Chem. Acc. 128, 69 (2011)
         Al-Ar : Obtained from the ccRepo (grant-hill.group.shef.ac.uk/ccrepo) Feb. 2017
                 D. E. Woon, T. H. Dunning, Jr., J. Chem. Phys. 98, 1358 (1993)
            Ca : Obtained from the Peterson Research Group Website (tyr0.chem.wsu.edu/~kipeters) Feb. 2017
                 J. Koput, K. A. Peterson, J. Phys. Chem. 106, 9595 (2002)
         Sc-Zn : Obtained from the ccRepo (grant-hill.group.shef.ac.uk/ccrepo) Feb. 2017
                 N. B. Balabanov, K. A. Peterson, J. Chem. Phys. 123, 064107 (2005)
                 N. B. Balabanov, K. A. Peterson, J. Chem. Phys. 125, 074110 (2006)
         Ga-Kr : Obtained from the ccRepo (grant-hill.group.shef.ac.uk/ccrepo) Feb. 2017
                 A. K. Wilson, D. E. Woon, K. A. Peterson, T. H. Dunning, Jr., J. Chem. Phys. 110, 7667 (1999)

================================================================================
                                        WARNINGS
                       Please study these warnings very carefully!
================================================================================


WARNING: No MP2 level density has been requested!
         To caclulate MP2 level properties use
         %mp2 Density relaxed end
         or
         %mp2 Density unrelaxed end

WARNING: Post HF methods need fully converged wavefunctions
  ===> : Setting SCFConvForced true
         You can overwrite this default with %scf ConvForced false 


INFO   : the flag for use of the SHARK integral package has been found!

================================================================================
                                       INPUT FILE
================================================================================
NAME = /scratch/allen/tmpyp4_amber_gaff2/2.Mdgx/conf11/conf11/Conf146.orca
|  1> ! PAL2
|  2> ! mp2 cc-pvdz TightSCF  NoKeepInts
|  3> 
|  4> %scf
|  5>   MaxCore 2000
|  6> end
|  7> %mp2
|  8>   MaxCore 2000
|  9> end
| 10> * xyz 0 1
| 11>    C       -4.77100         5.32200        -0.61300
| 12>    C        1.47400         4.04100         0.05700
| 13>    C       -2.80200         4.09300         0.04900
| 14>    C       -2.39800         5.22800         0.76900
| 15>    C       -3.18700         6.36100         0.77700
| 16>    C       -5.19300         7.61500         0.15000
| 17>    C        0.13200         4.30700         0.06100
| 18>    C       -0.56900         3.05600         0.04700
| 19>    C        1.64900         2.61800         0.02300
| 20>    C       -4.01900         4.16400        -0.64700
| 21>    N       -4.35200         6.39900         0.09000
| 22>    N        0.38800         2.06700         0.02500
| 23>    N       -2.01000         0.39500        -0.07500
| 24>    N       -0.38800        -2.07400        -0.02700
| 25>    N        2.01000        -0.40100         0.06500
| 26>    C       -1.96000         2.86100         0.02400
| 27>    C       -2.62300         1.61500        -0.01800
| 28>    C       -5.57300        -4.32900         1.06600
| 29>    C       -4.07300         1.47100         0.05600
| 30>    C       -4.10600        -2.75600        -0.02600
| 31>    C       -4.99500        -2.75700        -1.11100
| 32>    C       -6.13200        -3.54200        -1.07600
| 33>    C       -7.65100        -5.11300         0.04000
| 34>    C       -4.32400         0.14100         0.03700
| 35>    C       -3.02500        -0.52000        -0.04800
| 36>    C       -4.42200        -3.56600         1.07500
| 37>    N       -6.40700        -4.31300         0.00100
| 38>    C       -2.86700        -1.92200        -0.04000
| 39>    C       -1.65000        -2.62400        -0.02700
| 40>    C        3.56800        -6.14200        -1.04000
| 41>    C       -1.47600        -4.04900        -0.03400
| 42>    C        2.80300        -4.09900        -0.00800
| 43>    C        3.65700        -4.38400         1.06900
| 44>    C        4.42700        -5.53000         1.05900
| 45>    C        5.24500        -7.58800         0.01400
| 46>    C       -0.13400        -4.31500        -0.02200
| 47>    C        0.56800        -3.06400        -0.02700
| 48>    C        2.77500        -5.01200        -1.07400
| 49>    N        4.37600        -6.39100         0.01700
| 50>    C        1.95900        -2.86900        -0.00900
| 51>    C        2.62100        -1.62200         0.00900
| 52>    C        5.54300         4.33900        -1.13000
| 53>    C        4.07000        -1.47900        -0.09400
| 54>    C        4.10400         2.75100        -0.02100
| 55>    C        5.02700         2.72900         1.03600
| 56>    C        6.16600         3.50900         0.97800
| 57>    C        7.61900         5.15300        -0.11500
| 58>    C        4.32100        -0.14800        -0.09200
| 59>    C        3.02500         0.51400         0.01500
| 60>    C        4.38700         3.58200        -1.11500
| 61>    C        2.86600         1.91600         0.01300
| 62>    N        6.41300         4.29600        -0.09500
| 63>    H       -5.70900         5.42500        -1.14400
| 64>    H        2.27400         4.76600         0.08100
| 65>    H       -1.47400         5.23200         1.33400
| 66>    H       -2.92200         7.25600         1.32400
| 67>    H       -5.83600         7.56000         1.03200
| 68>    H       -4.54400         8.48800         0.21200
| 69>    H       -5.80100         7.66500        -0.75300
| 70>    H       -0.33200         5.28200         0.06900
| 71>    H       -4.37800         3.32500        -1.23300
| 72>    H        0.18200         1.07200         0.00500
| 73>    H       -0.18300        -1.08000        -0.02100
| 74>    H       -5.86400        -4.96200         1.89500
| 75>    H       -4.79400         2.27200         0.13900
| 76>    H       -4.80000        -2.16000        -1.99400
| 77>    H       -6.84100        -3.58200        -1.89300
| 78>    H       -8.42800        -4.53600         0.54600
| 79>    H       -7.95600        -5.33700        -0.98100
| 80>    H       -7.45600        -6.03700         0.58400
| 81>    H       -5.28700        -0.34400         0.10000
| 82>    H       -3.78000        -3.60100         1.94700
| 83>    H        3.58700        -6.86800        -1.84300
| 84>    H       -2.27600        -4.77400        -0.05000
| 85>    H        3.71400        -3.72400         1.92600
| 86>    H        5.09200        -5.79500         1.87100
| 87>    H        6.20500        -7.32900        -0.43900
| 88>    H        5.39300        -7.91700         1.04200
| 89>    H        4.75900        -8.37300        -0.56400
| 90>    H        0.32900        -5.29000        -0.00800
| 91>    H        2.14600        -4.84200        -1.94000
| 92>    H        5.80800         4.98600        -1.95600
| 93>    H        4.78800        -2.28100        -0.18500
| 94>    H        4.86000         2.11400         1.91200
| 95>    H        6.90100         3.53100         1.77200
| 96>    H        7.38300         6.10900         0.35600
| 97>    H        8.41400         4.65200         0.43500
| 98>    H        7.92100         5.31000        -1.15000
| 99>    H        5.28300         0.33600        -0.17900
|100>    H        3.72000         3.63200        -1.96700
|101> *
|102> 
|103>                          ****END OF INPUT****
================================================================================

                       ****************************
                       * Single Point Calculation *
                       ****************************

---------------------------------
CARTESIAN COORDINATES (ANGSTROEM)
---------------------------------
  C     -4.771000    5.322000   -0.613000
  C      1.474000    4.041000    0.057000
  C     -2.802000    4.093000    0.049000
  C     -2.398000    5.228000    0.769000
  C     -3.187000    6.361000    0.777000
  C     -5.193000    7.615000    0.150000
  C      0.132000    4.307000    0.061000
  C     -0.569000    3.056000    0.047000
  C      1.649000    2.618000    0.023000
  C     -4.019000    4.164000   -0.647000
  N     -4.352000    6.399000    0.090000
  N      0.388000    2.067000    0.025000
  N     -2.010000    0.395000   -0.075000
  N     -0.388000   -2.074000   -0.027000
  N      2.010000   -0.401000    0.065000
  C     -1.960000    2.861000    0.024000
  C     -2.623000    1.615000   -0.018000
  C     -5.573000   -4.329000    1.066000
  C     -4.073000    1.471000    0.056000
  C     -4.106000   -2.756000   -0.026000
  C     -4.995000   -2.757000   -1.111000
  C     -6.132000   -3.542000   -1.076000
  C     -7.651000   -5.113000    0.040000
  C     -4.324000    0.141000    0.037000
  C     -3.025000   -0.520000   -0.048000
  C     -4.422000   -3.566000    1.075000
  N     -6.407000   -4.313000    0.001000
  C     -2.867000   -1.922000   -0.040000
  C     -1.650000   -2.624000   -0.027000
  C      3.568000   -6.142000   -1.040000
  C     -1.476000   -4.049000   -0.034000
  C      2.803000   -4.099000   -0.008000
  C      3.657000   -4.384000    1.069000
  C      4.427000   -5.530000    1.059000
  C      5.245000   -7.588000    0.014000
  C     -0.134000   -4.315000   -0.022000
  C      0.568000   -3.064000   -0.027000
  C      2.775000   -5.012000   -1.074000
  N      4.376000   -6.391000    0.017000
  C      1.959000   -2.869000   -0.009000
  C      2.621000   -1.622000    0.009000
  C      5.543000    4.339000   -1.130000
  C      4.070000   -1.479000   -0.094000
  C      4.104000    2.751000   -0.021000
  C      5.027000    2.729000    1.036000
  C      6.166000    3.509000    0.978000
  C      7.619000    5.153000   -0.115000
  C      4.321000   -0.148000   -0.092000
  C      3.025000    0.514000    0.015000
  C      4.387000    3.582000   -1.115000
  C      2.866000    1.916000    0.013000
  N      6.413000    4.296000   -0.095000
  H     -5.709000    5.425000   -1.144000
  H      2.274000    4.766000    0.081000
  H     -1.474000    5.232000    1.334000
  H     -2.922000    7.256000    1.324000
  H     -5.836000    7.560000    1.032000
  H     -4.544000    8.488000    0.212000
  H     -5.801000    7.665000   -0.753000
  H     -0.332000    5.282000    0.069000
  H     -4.378000    3.325000   -1.233000
  H      0.182000    1.072000    0.005000
  H     -0.183000   -1.080000   -0.021000
  H     -5.864000   -4.962000    1.895000
  H     -4.794000    2.272000    0.139000
  H     -4.800000   -2.160000   -1.994000
  H     -6.841000   -3.582000   -1.893000
  H     -8.428000   -4.536000    0.546000
  H     -7.956000   -5.337000   -0.981000
  H     -7.456000   -6.037000    0.584000
  H     -5.287000   -0.344000    0.100000
  H     -3.780000   -3.601000    1.947000
  H      3.587000   -6.868000   -1.843000
  H     -2.276000   -4.774000   -0.050000
  H      3.714000   -3.724000    1.926000
  H      5.092000   -5.795000    1.871000
  H      6.205000   -7.329000   -0.439000
  H      5.393000   -7.917000    1.042000
  H      4.759000   -8.373000   -0.564000
  H      0.329000   -5.290000   -0.008000
  H      2.146000   -4.842000   -1.940000
  H      5.808000    4.986000   -1.956000
  H      4.788000   -2.281000   -0.185000
  H      4.860000    2.114000    1.912000
  H      6.901000    3.531000    1.772000
  H      7.383000    6.109000    0.356000
  H      8.414000    4.652000    0.435000
  H      7.921000    5.310000   -1.150000
  H      5.283000    0.336000   -0.179000
  H      3.720000    3.632000   -1.967000

----------------------------
CARTESIAN COORDINATES (A.U.)
----------------------------
  NO LB      ZA    FRAG     MASS         X           Y           Z
   0 C     6.0000    0    12.011   -9.015883   10.057122   -1.158402
   1 C     6.0000    0    12.011    2.785456    7.636383    0.107714
   2 C     6.0000    0    12.011   -5.295013    7.734649    0.092597
   3 C     6.0000    0    12.011   -4.531563    9.879488    1.453199
   4 C     6.0000    0    12.011   -6.022557   12.020548    1.468317
   5 C     6.0000    0    12.011   -9.813348   14.390265    0.283459
   6 C     6.0000    0    12.011    0.249444    8.139050    0.115273
   7 C     6.0000    0    12.011   -1.075254    5.775003    0.088817
   8 C     6.0000    0    12.011    3.116158    4.947303    0.043464
   9 C     6.0000    0    12.011   -7.594809    7.868820   -1.222653
  10 N     7.0000    0    14.007   -8.224088   12.092358    0.170075
  11 N     7.0000    0    14.007    0.733214    3.906064    0.047243
  12 N     7.0000    0    14.007   -3.798350    0.746442   -0.141729
  13 N     7.0000    0    14.007   -0.733214   -3.919292   -0.051023
  14 N     7.0000    0    14.007    3.798350   -0.757780    0.122832
  15 C     6.0000    0    12.011   -3.703863    5.406506    0.045353
  16 C     6.0000    0    12.011   -4.956752    3.051908   -0.034015
  17 C     6.0000    0    12.011  -10.531444   -8.180624    2.014448
  18 C     6.0000    0    12.011   -7.696855    2.779787    0.105825
  19 C     6.0000    0    12.011   -7.759216   -5.208085   -0.049133
  20 C     6.0000    0    12.011   -9.439182   -5.209975   -2.099486
  21 C     6.0000    0    12.011  -11.587801   -6.693410   -2.033345
  22 C     6.0000    0    12.011  -14.458295   -9.662170    0.075589
  23 C     6.0000    0    12.011   -8.171176    0.266451    0.069920
  24 C     6.0000    0    12.011   -5.716422   -0.982658   -0.090707
  25 C     6.0000    0    12.011   -8.356369   -6.738763    2.031456
  26 N     7.0000    0    14.007  -12.107475   -8.150389    0.001890
  27 C     6.0000    0    12.011   -5.417845   -3.632054   -0.075589
  28 C     6.0000    0    12.011   -3.118048   -4.958641   -0.051023
  29 C     6.0000    0    12.011    6.742543  -11.606698   -1.965315
  30 C     6.0000    0    12.011   -2.789236   -7.651501   -0.064251
  31 C     6.0000    0    12.011    5.296902   -7.745987   -0.015118
  32 C     6.0000    0    12.011    6.910728   -8.284559    2.020117
  33 C     6.0000    0    12.011    8.365818  -10.450186    2.001220
  34 C     6.0000    0    12.011    9.911614  -14.339242    0.026456
  35 C     6.0000    0    12.011   -0.253223   -8.154168   -0.041574
  36 C     6.0000    0    12.011    1.073364   -5.790121   -0.051023
  37 C     6.0000    0    12.011    5.243990   -9.471307   -2.029566
  38 N     7.0000    0    14.007    8.269442  -12.077240    0.032125
  39 C     6.0000    0    12.011    3.701973   -5.421624   -0.017008
  40 C     6.0000    0    12.011    4.952972   -3.065136    0.017008
  41 C     6.0000    0    12.011   10.474752    8.199522   -2.135391
  42 C     6.0000    0    12.011    7.691185   -2.794905   -0.177634
  43 C     6.0000    0    12.011    7.755436    5.198637   -0.039684
  44 C     6.0000    0    12.011    9.499653    5.157063    1.957756
  45 C     6.0000    0    12.011   11.652051    6.631049    1.848152
  46 C     6.0000    0    12.011   14.397823    9.737759   -0.217319
  47 C     6.0000    0    12.011    8.165507   -0.279679   -0.173855
  48 C     6.0000    0    12.011    5.716422    0.971319    0.028346
  49 C     6.0000    0    12.011    8.290229    6.768999   -2.107045
  50 C     6.0000    0    12.011    5.415955    3.620715    0.024566
  51 N     7.0000    0    14.007   12.118814    8.118263   -0.179524
  52 H     1.0000    0     1.008  -10.788446   10.251764   -2.161847
  53 H     1.0000    0     1.008    4.297237    9.006435    0.153068
  54 H     1.0000    0     1.008   -2.785456    9.887047    2.520895
  55 H     1.0000    0     1.008   -5.521780   13.711853    2.501997
  56 H     1.0000    0     1.008  -11.028442   14.286330    1.950197
  57 H     1.0000    0     1.008   -8.586916   16.039995    0.400622
  58 H     1.0000    0     1.008  -10.962301   14.484751   -1.422964
  59 H     1.0000    0     1.008   -0.627389    9.981533    0.130391
  60 H     1.0000    0     1.008   -8.273221    6.283339   -2.330032
  61 H     1.0000    0     1.008    0.343930    2.025786    0.009449
  62 H     1.0000    0     1.008   -0.345820   -2.040904   -0.039684
  63 H     1.0000    0     1.008  -11.081354   -9.376821    3.581031
  64 H     1.0000    0     1.008   -9.059347    4.293458    0.262672
  65 H     1.0000    0     1.008   -9.070685   -4.081808   -3.768114
  66 H     1.0000    0     1.008  -12.927616   -6.768999   -3.577252
  67 H     1.0000    0     1.008  -15.926612   -8.571798    1.031790
  68 H     1.0000    0     1.008  -15.034661  -10.085468   -1.853821
  69 H     1.0000    0     1.008  -14.089798  -11.408277    1.103600
  70 H     1.0000    0     1.008   -9.990982   -0.650066    0.188973
  71 H     1.0000    0     1.008   -7.143165   -6.804904    3.679297
  72 H     1.0000    0     1.008    6.778448  -12.978639   -3.482765
  73 H     1.0000    0     1.008   -4.301017   -9.021553   -0.094486
  74 H     1.0000    0     1.008    7.018443   -7.037340    3.639613
  75 H     1.0000    0     1.008    9.622485  -10.950963    3.535678
  76 H     1.0000    0     1.008   11.725751  -13.849803   -0.829590
  77 H     1.0000    0     1.008   10.191293  -14.960962    1.969095
  78 H     1.0000    0     1.008    8.993207  -15.822677   -1.065806
  79 H     1.0000    0     1.008    0.621720   -9.996651   -0.015118
  80 H     1.0000    0     1.008    4.055352   -9.150054   -3.666069
  81 H     1.0000    0     1.008   10.975529    9.422175   -3.696304
  82 H     1.0000    0     1.008    9.048009   -4.310465   -0.349599
  83 H     1.0000    0     1.008    9.184069    3.994881    3.613156
  84 H     1.0000    0     1.008   13.041000    6.672623    3.348595
  85 H     1.0000    0     1.008   13.951848   11.544337    0.672743
  86 H     1.0000    0     1.008   15.900156    8.791006    0.822031
  87 H     1.0000    0     1.008   14.968521   10.034446   -2.173185
  88 H     1.0000    0     1.008    9.983423    0.634948   -0.338261
  89 H     1.0000    0     1.008    7.029781    6.863485   -3.717091

--------------------------------
INTERNAL COORDINATES (ANGSTROEM)
--------------------------------
 C      0   0   0     0.000000000000     0.00000000     0.00000000
 C      1   0   0     6.410139312059     0.00000000     0.00000000
 C      1   2   0     2.413637503852    22.30314144     0.00000000
 C      3   1   2     1.403510242214    87.92257673    57.10339064
 C      4   3   1     1.380678818553   120.13873137     0.13662820
 C      5   4   3     2.447382479303   152.54581972     1.61490776
 C      2   1   3     1.368114030335     6.17883009   301.60355236
 C      7   2   4     1.434084376876   108.05010202   238.91429849
 C      2   1   3     1.434123425651   108.34232732    31.50286027
 C      1   2   7     1.381167621978    45.93954688   265.71292135
 N      1   2   7     1.352663668470    78.63917462    62.74730307
 N      9   2   1     1.376127174356   106.58526707   352.73114887
 N     12   9   2     2.925062050624   168.53581413   171.12065651
 N     13  12   9     2.954513327098    91.55032014    11.12112580
 N     14  13  12     2.925371258490    88.43092389   359.84326247
 C      8   7   2     1.404790019896   127.24786865   181.11170171
 C     13  12   9     1.366535034311    81.72106996   188.00453233
 C     14  13  12     5.758810554272    80.56209567   166.76250791
 C     17  13  12     1.459010623676   111.08861209   183.82872609
 C     18  14  13     2.412235892279    27.27532823    36.33507194
 C     20  18  14     1.402692767501    87.95206320   148.94598259
 C     21  20  18     1.382106725257   120.14573887   359.70382047
 C     18  14  13     2.446510985056   144.15733107    82.80075377
 C     19  17  13     1.353610726908   106.29293361   359.75308708
 C     13  12   9     1.366813447402   172.21332906    33.46711076
 C     18  14  13     1.380960173213    15.08449437   309.23336894
 N     22  21  20     1.352773077792   120.73759875     0.27865223
 C     25  13  17     1.410897586645   125.60330303   182.37774668
 C     14  13  12     1.376642291955    80.24689249   177.85461986
 C     14  13  12     5.764089607215   164.51507311   312.20821879
 C     29  14  13     1.435600919476   106.58649366   178.76395472
 C     30  14  13     2.413316804732    27.10625047    82.12560436
 C     32  30  14     1.403734305344    87.90059683   149.76154742
 C     33  32  30     1.380694028378   120.14881443   359.74174632
 C     34  33  32     2.448777858443   152.49203239     2.45173620
 C     31  29  14     1.368160809262   108.16950133     0.70383075
 C     14  13  12     1.376239804685   169.26375223   353.09862627
 C     30  14  13     1.380907310430    14.68948582   353.70041132
 N     34  33  32     1.352658863128   120.85575621     0.19603406
 C     37  14  29     1.404717053360   126.01551127   180.90772073
 C     15  14  13     1.366491126938    81.61824056   183.09049352
 C      2   1   3     4.249062720177   152.84038111   152.95927407
 C     41  15  14     1.459677704153   111.05201287   175.08990246
 C     42   2   1     2.412953791518    41.78584867   210.53727862
 C     44  42   2     1.403446472082    87.95153797   233.97558675
 C     45  44  42     1.381696421071   120.11137308     0.19721020
 C     42   2   1     2.450019795838   135.97209175   120.85212772
 C     43  41  15     1.354461516618   106.26758155     0.30894352
 C     15  14  13     1.367461151185   171.87382904   332.35056460
 C     42   2   1     1.381886391857    32.59078432   259.39255781
 C      9   2   1     1.404988612053   126.98745415   173.73548639
 N     42   2   1     1.352765315936   113.57249190   148.58871691
 H      1   2   7     1.082780679547   156.09779962   195.05365305
 H      2   1   3     1.079907866440   126.14842505   205.25105310
 H      4   3   1     1.083059093494   121.07630623   179.51273375
 H      5   4   3     1.081877534659   122.80742430   179.43105199
 H      6   5   4     1.092885172376   104.45974732   100.06454548
 H      6   5   4     1.089575146559    84.70625921   209.56175336
 H      6   5   4     1.089758230068   133.87579710   322.41540461
 H      7   2  54     1.079807853278   126.66122480     1.30600390
 H     10   1   2     1.084526624846   118.79532437   207.35240640
 H     12   9   2     1.016297692608   125.29023241   180.00180175
 H     14  13  12     1.014936943854    44.97226959   359.42596618
 H     18  14  13     1.082871645210   128.03556573   234.20482432
 H     19  17  13     1.080893611786   126.41830519   178.11313280
 H     21  20  18     1.083569563987   121.05669627   180.67006309
 H     22  21  20     1.082483256222   122.73097286   180.59748951
 H     23  18  14     1.092105306278   103.92715769   234.93429879
 H     23  18  14     1.088871893291   134.19244188    12.25587044
 H     23  18  14     1.089833473518    84.85857450   125.45241208
 H     24  19  17     1.080075460327   127.28078426   178.44613241
 H     26  18  14     1.083408048706   118.76995697   244.94906660
 H     30  14  13     1.082703098730   127.99711412   279.66882698
 H     31  29  14     1.079759695488   125.22293469   180.92530585
 H     33  32  30     1.083188810873   121.01964473   180.74284758
 H     34  33  32     1.082494341787   122.70821597   180.59516895
 H     35  34  33     1.092652735319   105.73575241    97.19771933
 H     35  34  33     1.089462711615    84.05943581   206.43036958
 H     35  34  33     1.089268102902   133.08365142   318.50306270
 H     36  31  29     1.079439669458   126.61599965   178.98859863
 H     38  30  73     1.083742127999   118.77264435   359.90091293
 H     42   2   1     1.082178358682   119.31790784     5.22024737
 H     43  41  15     1.080281907652   126.36969097   182.06329380
 H     45  44  42     1.083277434455   121.10105945   179.58025624
 H     46  45  44     1.082194529648   122.72144639   179.46906377
 H     47  42   2     1.091546151109   106.65128841   315.16475048
 H     47  42   2     1.088818625851   132.46019523    94.52397119
 H     47  42   2     1.089531091801    83.63838232   206.04504406
 H     48  43  41     1.080402239909   127.23657387   181.62955349
 H     50  42   2     1.083186502870   118.77001737    94.71359229

---------------------------
INTERNAL COORDINATES (A.U.)
---------------------------
 C      0   0   0     0.000000000000     0.00000000     0.00000000
 C      1   0   0    12.113407780073     0.00000000     0.00000000
 C      1   2   0     4.561113868841    22.30314144     0.00000000
 C      3   1   2     2.652249983938    87.92257673    57.10339064
 C      4   3   1     2.609104845970   120.13873137     0.13662820
 C      5   4   3     4.624882630840   152.54581972     1.61490776
 C      2   1   3     2.585360837309     6.17883009   301.60355236
 C      7   2   4     2.710026725231   108.05010202   238.91429849
 C      2   1   3     2.710100516721   108.34232732    31.50286027
 C      1   2   7     2.610028550577    45.93954688   265.71292135
 N      1   2   7     2.556163884714    78.63917462    62.74730307
 N      9   2   1     2.600503484979   106.58526707   352.73114887
 N     12   9   2     5.527566200405   168.53581413   171.12065651
 N     13  12   9     5.583221047236    91.55032014    11.12112580
 N     14  13  12     5.528150518591    88.43092389   359.84326247
 C      8   7   2     2.654668413270   127.24786865   181.11170171
 C     13  12   9     2.582376967257    81.72106996   188.00453233
 C     14  13  12    10.882574804710    80.56209567   166.76250791
 C     17  13  12     2.757130505230   111.08861209   183.82872609
 C     18  14  13     4.558465206823    27.27532823    36.33507194
 C     20  18  14     2.650705180609    87.95206320   148.94598259
 C     21  20  18     2.611803198586   120.14573887   359.70382047
 C     18  14  13     4.623235745386   144.15733107    82.80075377
 C     19  17  13     2.557953565794   106.29293361   359.75308708
 C     13  12   9     2.582903091751   172.21332906    33.46711076
 C     18  14  13     2.609636529225    15.08449437   309.23336894
 N     22  21  20     2.556370638369   120.73759875     0.27865223
 C     25  13  17     2.666210041769   125.60330303   182.37774668
 C     14  13  12     2.601476916169    80.24689249   177.85461986
 C     14  13  12    10.892550769017   164.51507311   312.20821879
 C     29  14  13     2.712892575415   106.58649366   178.76395472
 C     30  14  13     4.560507835333    27.10625047    82.12560436
 C     32  30  14     2.652673401891    87.90059683   149.76154742
 C     33  32  30     2.609133588376   120.14881443   359.74174632
 C     34  33  32     4.627519515267   152.49203239     2.45173620
 C     31  29  14     2.585449236669   108.16950133     0.70383075
 C     14  13  12     2.600716325456   169.26375223   353.09862627
 C     30  14  13     2.609536633043    14.68948582   353.70041132
 N     34  33  32     2.556154803934   120.85575621     0.19603406
 C     37  14  29     2.654530526499   126.01551127   180.90772073
 C     15  14  13     2.582293994346    81.61824056   183.09049352
 C      2   1   3     8.029564866989   152.84038111   152.95927407
 C     41  15  14     2.758391104639   111.05201287   175.08990246
 C     42   2   1     4.559821839776    41.78584867   210.53727862
 C     44  42   2     2.652129475853    87.95153797   233.97558675
 C     45  44  42     2.611027836043   120.11137308     0.19721020
 C     42   2   1     4.629866436820   135.97209175   120.85212772
 C     43  41  15     2.559561325344   106.26758155     0.30894352
 C     15  14  13     2.584127074516   171.87382904   332.35056460
 C     42   2   1     2.611386828803    32.59078432   259.39255781
 C      9   2   1     2.655043698059   126.98745415   173.73548639
 N     42   2   1     2.556355970587   113.57249190   148.58871691
 H      1   2   7     2.046158947445   156.09779962   195.05365305
 H      2   1   3     2.040730117440   126.14842505   205.25105310
 H      4   3   1     2.046685073557   121.07630623   179.51273375
 H      5   4   3     2.044452250948   122.80742430   179.43105199
 H      6   5   4     2.065253671615   104.45974732   100.06454548
 H      6   5   4     2.058998629324    84.70625921   209.56175336
 H      6   5   4     2.059344607014   133.87579710   322.41540461
 H      7   2  54     2.040541119952   126.66122480     1.30600390
 H     10   1   2     2.049458305905   118.79532437   207.35240640
 H     12   9   2     1.920524309565   125.29023241   180.00180175
 H     14  13  12     1.917952867083    44.97226959   359.42596618
 H     18  14  13     2.046330847636   128.03556573   234.20482432
 H     19  17  13     2.042592906181   126.41830519   178.11313280
 H     21  20  18     2.047649722989   121.05669627   180.67006309
 H     22  21  20     2.045596898814   122.73097286   180.59748951
 H     23  18  14     2.063779938267   103.92715769   234.93429879
 H     23  18  14     2.057669673245   134.19244188    12.25587044
 H     23  18  14     2.059486796529    84.85857450   125.45241208
 H     24  19  17     2.041046823986   127.28078426   178.44613241
 H     26  18  14     2.047344503340   118.76995697   244.94906660
 H     30  14  13     2.046012340948   127.99711412   279.66882698
 H     31  29  14     2.040450114918   125.22293469   180.92530585
 H     33  32  30     2.046930203877   121.01964473   180.74284758
 H     34  33  32     2.045617847496   122.70821597   180.59516895
 H     35  34  33     2.064814429233   105.73575241    97.19771933
 H     35  34  33     2.058786158072    84.05943581   206.43036958
 H     35  34  33     2.058418400901   133.08365142   318.50306270
 H     36  31  29     2.039845353366   126.61599965   178.98859863
 H     38  30  73     2.047975821711   118.77264435   359.90091293
 H     42   2   1     2.045020725966   119.31790784     5.22024737
 H     43  41  15     2.041436952892   126.36969097   182.06329380
 H     45  44  42     2.047097678177   121.10105945   179.58025624
 H     46  45  44     2.045051284662   122.72144639   179.46906377
 H     47  42   2     2.062723288131   106.65128841   315.16475048
 H     47  42   2     2.057569012371   132.46019523    94.52397119
 H     47  42   2     2.058915377895    83.63838232   206.04504406
 H     48  43  41     2.041664347903   127.23657387   181.62955349
 H     50  42   2     2.046925842384   118.77001737    94.71359229

---------------------
BASIS SET INFORMATION
---------------------
There are 3 groups of distinct atoms

 Group   1 Type C   : 17s4p1d contracted to 3s2p1d pattern {881/31/1}
 Group   2 Type N   : 17s4p1d contracted to 3s2p1d pattern {881/31/1}
 Group   3 Type H   : 4s1p contracted to 2s1p pattern {31/1}

Atom   0C    basis set group =>   1
Atom   1N    basis set group =>   2
Atom   2C    basis set group =>   1
Atom   3N    basis set group =>   2
Atom   4C    basis set group =>   1
Atom   5N    basis set group =>   2
Atom   6C    basis set group =>   1
Atom   7N    basis set group =>   2
Atom   8C    basis set group =>   1
Atom   9N    basis set group =>   2
Atom  10C    basis set group =>   1
Atom  11N    basis set group =>   2
Atom  12C    basis set group =>   1
Atom  13N    basis set group =>   2
Atom  14C    basis set group =>   1
Atom  15N    basis set group =>   2
Atom  16C    basis set group =>   1
Atom  17C    basis set group =>   1
Atom  18C    basis set group =>   1
Atom  19C    basis set group =>   1
Atom  20C    basis set group =>   1
Atom  21C    basis set group =>   1
Atom  22C    basis set group =>   1
Atom  23C    basis set group =>   1
Atom  24C    basis set group =>   1
Atom  25C    basis set group =>   1
Atom  26C    basis set group =>   1
Atom  27C    basis set group =>   1
Atom  28C    basis set group =>   1
Atom  29C    basis set group =>   1
Atom  30C    basis set group =>   1
Atom  31C    basis set group =>   1
Atom  32C    basis set group =>   1
Atom  33C    basis set group =>   1
Atom  34C    basis set group =>   1
Atom  35C    basis set group =>   1
Atom  36C    basis set group =>   1
Atom  37C    basis set group =>   1
Atom  38C    basis set group =>   1
Atom  39C    basis set group =>   1
Atom  40C    basis set group =>   1
Atom  41C    basis set group =>   1
Atom  42C    basis set group =>   1
Atom  43C    basis set group =>   1
Atom  44C    basis set group =>   1
Atom  45C    basis set group =>   1
Atom  46C    basis set group =>   1
Atom  47C    basis set group =>   1
Atom  48C    basis set group =>   1
Atom  49C    basis set group =>   1
Atom  50C    basis set group =>   1
Atom  51C    basis set group =>   1
Atom  52H    basis set group =>   3
Atom  53H    basis set group =>   3
Atom  54H    basis set group =>   3
Atom  55H    basis set group =>   3
Atom  56H    basis set group =>   3
Atom  57H    basis set group =>   3
Atom  58H    basis set group =>   3
Atom  59H    basis set group =>   3
Atom  60H    basis set group =>   3
Atom  61H    basis set group =>   3
Atom  62H    basis set group =>   3
Atom  63H    basis set group =>   3
Atom  64H    basis set group =>   3
Atom  65H    basis set group =>   3
Atom  66H    basis set group =>   3
Atom  67H    basis set group =>   3
Atom  68H    basis set group =>   3
Atom  69H    basis set group =>   3
Atom  70H    basis set group =>   3
Atom  71H    basis set group =>   3
Atom  72H    basis set group =>   3
Atom  73H    basis set group =>   3
Atom  74H    basis set group =>   3
Atom  75H    basis set group =>   3
Atom  76H    basis set group =>   3
Atom  77H    basis set group =>   3
Atom  78H    basis set group =>   3
Atom  79H    basis set group =>   3
Atom  80H    basis set group =>   3
Atom  81H    basis set group =>   3
Atom  82H    basis set group =>   3
Atom  83H    basis set group =>   3
Atom  84H    basis set group =>   3
Atom  85H    basis set group =>   3
Atom  86H    basis set group =>   3
Atom  87H    basis set group =>   3
Atom  88H    basis set group =>   3
Atom  89H    basis set group =>   3


           ************************************************************
           *        Program running with 16 parallel MPI-processes    *
           *              working on a common directory               *
           ************************************************************
------------------------------------------------------------------------------
                           ORCA GTO INTEGRAL CALCULATION
------------------------------------------------------------------------------
------------------------------------------------------------------------------
                   ___                                                        
                  /   \      - P O W E R E D   B Y -                         
                 /     \                                                     
                 |  |  |   _    _      __       _____    __    __             
                 |  |  |  | |  | |    /  \     |  _  \  |  |  /  |          
                  \  \/   | |  | |   /    \    | | | |  |  | /  /          
                 / \  \   | |__| |  /  /\  \   | |_| |  |  |/  /          
                |  |  |   |  __  | /  /__\  \  |    /   |      \           
                |  |  |   | |  | | |   __   |  |    \   |  |\   \          
                \     /   | |  | | |  |  |  |  | |\  \  |  | \   \       
                 \___/    |_|  |_| |__|  |__|  |_| \__\ |__|  \__/        
                                                                              
                      - O R C A' S   B I G   F R I E N D -                    
                                      &                                       
                       - I N T E G R A L  F E E D E R -                       
                                                                              
 v1 FN, 2020, v2 2021                                                         
------------------------------------------------------------------------------


Reading SHARK input file /scratch/allen/tmpyp4_amber_gaff2/conf1/conf1/Conf146.orca.SHARKINP.tmp ... ok
----------------------
SHARK INTEGRAL PACKAGE
----------------------

Number of atoms                             ...     90
Number of basis functions                   ...   1230
Number of shells                            ...    738
Maximum angular momentum                    ...      2
Integral batch strategy                     ... SHARK/LIBINT Hybrid
RI-J (if used) integral strategy            ... SPLIT-RIJ (Revised 2003 algorithm where possible)
Printlevel                                  ...      1
Contraction scheme used                     ... PARTIAL GENERAL contraction
Coulomb Range Separation                    ... NOT USED
Exchange Range Separation                   ... NOT USED
Finite Nucleus Model                        ... NOT USED
Auxiliary Coulomb fitting basis             ... NOT available
Auxiliary J/K fitting basis                 ... NOT available
Auxiliary Correlation fitting basis         ... NOT available
Auxiliary 'external' fitting basis          ... NOT available
Integral threshold                          ...     2.500000e-11
Primitive cut-off                           ...     2.500000e-12
Primitive pair pre-selection threshold      ...     2.500000e-12

Calculating pre-screening integrals         ... done (  0.1 sec) Dimension = 738
Calculating pre-screening integrals (ORCA)  ... done (  0.3 sec) Dimension = 426
Organizing shell pair data                  ... done (  0.7 sec)
Shell pair information
Total number of shell pairs                 ...    272691
Shell pairs after pre-screening             ...     71636
Total number of primitive shell pairs       ...    422091
Primitive shell pairs kept                  ...     92448
          la=0 lb=0:  29408 shell pairs
          la=1 lb=0:  25992 shell pairs
          la=1 lb=1:   4706 shell pairs
          la=2 lb=0:   7878 shell pairs
          la=2 lb=1:   3122 shell pairs
          la=2 lb=2:    530 shell pairs

Calculating one electron integrals          ... done (  0.2 sec)
Calculating Nuclear repulsion               ... done (  0.0 sec) ENN=   6230.000818959596 Eh

SHARK setup successfully completed in   4.4 seconds

Maximum memory used throughout the entire GTOINT-calculation: 99.0 MB


           ************************************************************
           *        Program running with 16 parallel MPI-processes    *
           *              working on a common directory               *
           ************************************************************
-------------------------------------------------------------------------------
                                 ORCA SCF
-------------------------------------------------------------------------------

------------
SCF SETTINGS
------------
Hamiltonian:
 Ab initio Hamiltonian  Method          .... Hartree-Fock(GTOs)


General Settings:
 Integral files         IntName         .... /scratch/allen/tmpyp4_amber_gaff2/conf1/conf1/Conf146.orca
 Hartree-Fock type      HFTyp           .... RHF
 Total Charge           Charge          ....    0
 Multiplicity           Mult            ....    1
 Number of Electrons    NEL             ....  358
 Basis Dimension        Dim             ....  918
 Nuclear Repulsion      ENuc            ....   6230.0008189596 Eh

Convergence Acceleration:
 DIIS                   CNVDIIS         .... on
   Start iteration      DIISMaxIt       ....    12
   Startup error        DIISStart       ....  0.200000
   # of expansion vecs  DIISMaxEq       ....     5
   Bias factor          DIISBfac        ....   1.050
   Max. coefficient     DIISMaxC        ....  10.000
 Trust-Rad. Augm. Hess. CNVTRAH         .... auto
   Auto Start mean grad. ratio tolernc. ....  1.125000
   Auto Start start iteration           ....    20
   Auto Start num. interpolation iter.  ....    10
   Max. Number of Micro iterations      ....    16
   Max. Number of Macro iterations      .... Maxiter - #DIIS iter
   Number of Davidson start vectors     ....     2
   Converg. threshold I  (grad. norm)   ....   1.000e-05
   Converg. threshold II (energy diff.) ....   1.000e-08
   Grad. Scal. Fac. for Micro threshold ....   0.100
   Minimum threshold for Micro iter.    ....   0.010
   NR start threshold (gradient norm)   ....   0.001
   Initial trust radius                 ....   0.400
   Minimum AH scaling param. (alpha)    ....   1.000
   Maximum AH scaling param. (alpha)    .... 1000.000
   Orbital update algorithm             .... Taylor
   White noise on init. David. guess    .... on
   Maximum white noise                  ....   0.010
   Quad. conv. algorithm                .... NR
 SOSCF                  CNVSOSCF        .... on
   Start iteration      SOSCFMaxIt      ....   150
   Startup grad/error   SOSCFStart      ....  0.003300
 Level Shifting         CNVShift        .... on
   Level shift para.    LevelShift      ....    0.2500
   Turn off err/grad.   ShiftErr        ....    0.0010
 Zerner damping         CNVZerner       .... off
 Static damping         CNVDamp         .... on
   Fraction old density DampFac         ....    0.7000
   Max. Damping (<1)    DampMax         ....    0.9800
   Min. Damping (>=0)   DampMin         ....    0.0000
   Turn off err/grad.   DampErr         ....    0.1000
 Fernandez-Rico         CNVRico         .... off

SCF Procedure:
 Maximum # iterations   MaxIter         ....   125
 SCF integral mode      SCFMode         .... Direct
   Integral package                     .... SHARK and LIBINT hybrid scheme
 Reset frequency        DirectResetFreq ....    20
 Integral Threshold     Thresh          ....  2.500e-11 Eh
 Primitive CutOff       TCut            ....  2.500e-12 Eh

Convergence Tolerance:
 Convergence Check Mode ConvCheckMode   .... Total+1el-Energy
 Convergence forced     ConvForced      .... 1
 Energy Change          TolE            ....  1.000e-08 Eh
 1-El. energy change                    ....  1.000e-05 Eh
 Orbital Gradient       TolG            ....  1.000e-05
 Orbital Rotation angle TolX            ....  1.000e-05
 DIIS Error             TolErr          ....  5.000e-07


Diagonalization of the overlap matrix:
Smallest eigenvalue                        ... 2.217e-04
Time for diagonalization                   ...    0.500 sec
Threshold for overlap eigenvalues          ... 1.000e-08
Number of eigenvalues below threshold      ... 0
Time for construction of square roots      ...    0.269 sec
Total time needed                          ...    0.776 sec

Time for model grid setup =    1.289 sec

------------------------------
INITIAL GUESS: MODEL POTENTIAL
------------------------------
Loading Hartree-Fock densities                     ... done
Calculating cut-offs                               ... done
Initializing the effective Hamiltonian             ... done
Setting up the integral package (SHARK)            ... done
Starting the Coulomb interaction                   ... done (   1.4 sec)
Reading the grid                                   ... done
Mapping shells                                     ... done
Starting the XC term evaluation                    ... done (   0.2 sec)
Transforming the Hamiltonian                       ... done (   0.3 sec)
Diagonalizing the Hamiltonian                      ... done (   0.4 sec)
Back transforming the eigenvectors                 ... done (   0.1 sec)
Now organizing SCF variables                       ... done
                      ------------------
                      INITIAL GUESS DONE (   3.8 sec)
                      ------------------
--------------
SCF ITERATIONS
--------------
ITER       Energy         Delta-E        Max-DP      RMS-DP      [F,P]     Damp
               ***  Starting incremental Fock matrix formation  ***
  0  -2121.6959911552   0.000000000000 0.07418093  0.00121128  0.2321733 0.7000
  1  -2122.3512556467  -0.655264491450 0.05581712  0.00098460  0.1438271 0.7000
                               ***Turning on DIIS***
  2  -2122.7586836804  -0.407428033672 0.12995411  0.00223629  0.0802476 0.0000
  3  -2117.9280465549   4.830637125478 0.03019786  0.00066812  0.0439150 0.0000
  4  -2123.4344258014  -5.506379246488 0.00971718  0.00022466  0.0077017 0.0000
  5  -2123.5930329182  -0.158607116800 0.00520490  0.00013217  0.0049920 0.0000
  6  -2123.5764749947   0.016557923474 0.00358395  0.00008503  0.0019697 0.0000
  7  -2123.6748115951  -0.098336600406 0.00305484  0.00006686  0.0015709 0.0000
  8  -2123.6860824677  -0.011270872628 0.00322317  0.00006294  0.0014601 0.0000
  9  -2123.6552506982   0.030831769502 0.00257569  0.00004387  0.0011653 0.0000
 10  -2123.6649605384  -0.009709840209 0.00520541  0.00009080  0.0008996 0.0000
                      *** Initiating the SOSCF procedure ***
                           *** Shutting down DIIS ***
                      *** Re-Reading the Fockian *** 
                      *** Removing any level shift *** 
ITER      Energy       Delta-E        Grad      Rot      Max-DP    RMS-DP
 11  -2123.55557073   0.1093898073  0.000193  0.000193  0.000248  0.000005
               *** Restarting incremental Fock matrix formation ***
 12  -2123.62137803  -0.0658072987  0.000843  0.005826  0.001354  0.000033
 13  -2123.62147596  -0.0000979259  0.001036  0.029913  0.006449  0.000131
 14  -2123.62164569  -0.0001697374  0.000338  0.002072  0.000616  0.000012
 15  -2123.62166147  -0.0000157748  0.000160  0.003201  0.000774  0.000018
 16  -2123.62167118  -0.0000097137  0.000164  0.003108  0.000499  0.000010
 17  -2123.62167428  -0.0000031005  0.000130  0.002052  0.000325  0.000007
 18  -2123.62167595  -0.0000016685  0.000072  0.000805  0.000300  0.000004
 19  -2123.62167668  -0.0000007328  0.000042  0.000557  0.000137  0.000003
 20  -2123.62167692  -0.0000002342  0.000022  0.000410  0.000093  0.000002
 21  -2123.62167703  -0.0000001147  0.000023  0.000306  0.000098  0.000002
 22  -2123.62167710  -0.0000000726  0.000014  0.000289  0.000080  0.000001
 23  -2123.62167715  -0.0000000431  0.000007  0.000196  0.000045  0.000001
 24  -2123.62167717  -0.0000000249  0.000004  0.000143  0.000030  0.000001
 25  -2123.62167718  -0.0000000110  0.000004  0.000110  0.000017  0.000000
 26  -2123.62167719  -0.0000000065  0.000003  0.000134  0.000020  0.000000
 27  -2123.62167720  -0.0000000061  0.000003  0.000135  0.000019  0.000000
                  ***Gradient check signals convergence***
              ***Rediagonalizing the Fockian in SOSCF/NRSCF***

               *****************************************************
               *                     SUCCESS                       *
               *           SCF CONVERGED AFTER  28 CYCLES          *
               *****************************************************


----------------
TOTAL SCF ENERGY
----------------

Total Energy       :        -2123.62167720 Eh          -57786.68365 eV

Components:
Nuclear Repulsion  :         6230.00081896 Eh          169526.94087 eV
Electronic Energy  :        -8353.62249616 Eh         -227313.62452 eV
One Electron Energy:       -15300.83935227 Eh         -416357.00596 eV
Two Electron Energy:         6947.21685611 Eh          189043.38143 eV

Virial components:
Potential Energy   :        -4245.73602447 Eh         -115532.35078 eV
Kinetic Energy     :         2122.11434727 Eh           57745.66712 eV
Virial Ratio       :            2.00071030


---------------
SCF CONVERGENCE
---------------

  Last Energy change         ...   -1.8244e-09  Tolerance :   1.0000e-08
  Last MAX-Density change    ...    1.3074e-05  Tolerance :   1.0000e-07
  Last RMS-Density change    ...    3.3943e-07  Tolerance :   5.0000e-09
  Last Orbital Gradient      ...    2.1477e-06  Tolerance :   1.0000e-05
  Last Orbital Rotation      ...    1.1105e-04  Tolerance :   1.0000e-05

             **** THE GBW FILE WAS UPDATED (/scratch/allen/tmpyp4_amber_gaff2/conf1/conf1/Conf146.orca.gbw) ****
             **** DENSITY /scratch/allen/tmpyp4_amber_gaff2/conf1/conf1/Conf146.orca.scfp WAS UPDATED ****
             **** ENERGY FILE WAS UPDATED (/scratch/allen/tmpyp4_amber_gaff2/conf1/conf1/Conf146.orca.en.tmp) ****
             **** THE GBW FILE WAS UPDATED (/scratch/allen/tmpyp4_amber_gaff2/conf1/conf1/Conf146.orca.gbw) ****
             **** DENSITY /scratch/allen/tmpyp4_amber_gaff2/conf1/conf1/Conf146.orca.scfp WAS UPDATED ****
----------------
ORBITAL ENERGIES
----------------

  NO   OCC          E(Eh)            E(eV) 
   0   2.0000     -15.669778      -426.3963 
   1   2.0000     -15.637802      -425.5262 
   2   2.0000     -15.628595      -425.2757 
   3   2.0000     -15.592492      -424.2933 
   4   2.0000     -15.524762      -422.4502 
   5   2.0000     -15.515908      -422.2093 
   6   2.0000     -15.451112      -420.4461 
   7   2.0000     -15.443078      -420.2275 
   8   2.0000     -11.321748      -308.0804 
   9   2.0000     -11.321583      -308.0759 
  10   2.0000     -11.319401      -308.0166 
  11   2.0000     -11.301701      -307.5349 
  12   2.0000     -11.296259      -307.3868 
  13   2.0000     -11.295640      -307.3700 
  14   2.0000     -11.290578      -307.2322 
  15   2.0000     -11.287863      -307.1584 
  16   2.0000     -11.284196      -307.0586 
  17   2.0000     -11.274469      -306.7939 
  18   2.0000     -11.272660      -306.7447 
  19   2.0000     -11.257566      -306.3339 
  20   2.0000     -11.256835      -306.3140 
  21   2.0000     -11.256365      -306.3013 
  22   2.0000     -11.255430      -306.2758 
  23   2.0000     -11.241426      -305.8948 
  24   2.0000     -11.234028      -305.6935 
  25   2.0000     -11.233454      -305.6778 
  26   2.0000     -11.233381      -305.6758 
  27   2.0000     -11.227254      -305.5091 
  28   2.0000     -11.226965      -305.5012 
  29   2.0000     -11.209903      -305.0370 
  30   2.0000     -11.208520      -304.9993 
  31   2.0000     -11.202600      -304.8383 
  32   2.0000     -11.196712      -304.6780 
  33   2.0000     -11.196339      -304.6679 
  34   2.0000     -11.189743      -304.4884 
  35   2.0000     -11.189242      -304.4748 
  36   2.0000     -11.187104      -304.4166 
  37   2.0000     -11.183286      -304.3127 
  38   2.0000     -11.182355      -304.2874 
  39   2.0000     -11.174550      -304.0750 
  40   2.0000     -11.172007      -304.0058 
  41   2.0000     -11.168392      -303.9074 
  42   2.0000     -11.167904      -303.8941 
  43   2.0000     -11.162564      -303.7488 
  44   2.0000     -11.161284      -303.7140 
  45   2.0000     -11.159383      -303.6622 
  46   2.0000     -11.156476      -303.5831 
  47   2.0000     -11.151747      -303.4545 
  48   2.0000     -11.147914      -303.3502 
  49   2.0000     -11.141546      -303.1769 
  50   2.0000     -11.134759      -302.9922 
  51   2.0000     -11.127450      -302.7933 
  52   2.0000      -1.351861       -36.7860 
  53   2.0000      -1.324531       -36.0423 
  54   2.0000      -1.316778       -35.8313 
  55   2.0000      -1.286659       -35.0118 
  56   2.0000      -1.225274       -33.3414 
  57   2.0000      -1.210397       -32.9366 
  58   2.0000      -1.169547       -31.8250 
  59   2.0000      -1.153731       -31.3946 
  60   2.0000      -1.136460       -30.9246 
  61   2.0000      -1.112975       -30.2856 
  62   2.0000      -1.106530       -30.1102 
  63   2.0000      -1.082362       -29.4526 
  64   2.0000      -1.074172       -29.2297 
  65   2.0000      -1.048576       -28.5332 
  66   2.0000      -1.041550       -28.3420 
  67   2.0000      -1.036517       -28.2051 
  68   2.0000      -1.015058       -27.6211 
  69   2.0000      -1.014590       -27.6084 
  70   2.0000      -1.009405       -27.4673 
  71   2.0000      -0.992877       -27.0176 
  72   2.0000      -0.987267       -26.8649 
  73   2.0000      -0.978899       -26.6372 
  74   2.0000      -0.972181       -26.4544 
  75   2.0000      -0.959682       -26.1143 
  76   2.0000      -0.951904       -25.9026 
  77   2.0000      -0.946862       -25.7654 
  78   2.0000      -0.935549       -25.4576 
  79   2.0000      -0.920033       -25.0354 
  80   2.0000      -0.903669       -24.5901 
  81   2.0000      -0.892599       -24.2889 
  82   2.0000      -0.875783       -23.8313 
  83   2.0000      -0.871337       -23.7103 
  84   2.0000      -0.866847       -23.5881 
  85   2.0000      -0.855566       -23.2811 
  86   2.0000      -0.840798       -22.8793 
  87   2.0000      -0.837401       -22.7868 
  88   2.0000      -0.822939       -22.3933 
  89   2.0000      -0.798350       -21.7242 
  90   2.0000      -0.792770       -21.5724 
  91   2.0000      -0.748051       -20.3555 
  92   2.0000      -0.739252       -20.1161 
  93   2.0000      -0.732874       -19.9425 
  94   2.0000      -0.724041       -19.7022 
  95   2.0000      -0.720301       -19.6004 
  96   2.0000      -0.714739       -19.4490 
  97   2.0000      -0.708382       -19.2761 
  98   2.0000      -0.704047       -19.1581 
  99   2.0000      -0.696396       -18.9499 
 100   2.0000      -0.695671       -18.9302 
 101   2.0000      -0.682863       -18.5816 
 102   2.0000      -0.679761       -18.4972 
 103   2.0000      -0.677682       -18.4407 
 104   2.0000      -0.675157       -18.3720 
 105   2.0000      -0.671073       -18.2608 
 106   2.0000      -0.667108       -18.1529 
 107   2.0000      -0.662207       -18.0196 
 108   2.0000      -0.655870       -17.8471 
 109   2.0000      -0.653522       -17.7832 
 110   2.0000      -0.649053       -17.6616 
 111   2.0000      -0.643389       -17.5075 
 112   2.0000      -0.641853       -17.4657 
 113   2.0000      -0.638828       -17.3834 
 114   2.0000      -0.636938       -17.3320 
 115   2.0000      -0.626169       -17.0389 
 116   2.0000      -0.624866       -17.0035 
 117   2.0000      -0.616060       -16.7639 
 118   2.0000      -0.615166       -16.7395 
 119   2.0000      -0.612921       -16.6784 
 120   2.0000      -0.608935       -16.5700 
 121   2.0000      -0.605073       -16.4649 
 122   2.0000      -0.599836       -16.3224 
 123   2.0000      -0.586988       -15.9727 
 124   2.0000      -0.583966       -15.8905 
 125   2.0000      -0.582099       -15.8397 
 126   2.0000      -0.578890       -15.7524 
 127   2.0000      -0.577787       -15.7224 
 128   2.0000      -0.565131       -15.3780 
 129   2.0000      -0.558561       -15.1992 
 130   2.0000      -0.551867       -15.0171 
 131   2.0000      -0.548045       -14.9131 
 132   2.0000      -0.543262       -14.7829 
 133   2.0000      -0.539487       -14.6802 
 134   2.0000      -0.538704       -14.6589 
 135   2.0000      -0.534144       -14.5348 
 136   2.0000      -0.525738       -14.3061 
 137   2.0000      -0.523616       -14.2483 
 138   2.0000      -0.518171       -14.1002 
 139   2.0000      -0.513220       -13.9654 
 140   2.0000      -0.512295       -13.9403 
 141   2.0000      -0.510198       -13.8832 
 142   2.0000      -0.509941       -13.8762 
 143   2.0000      -0.503248       -13.6941 
 144   2.0000      -0.500503       -13.6194 
 145   2.0000      -0.496707       -13.5161 
 146   2.0000      -0.494276       -13.4499 
 147   2.0000      -0.484661       -13.1883 
 148   2.0000      -0.480564       -13.0768 
 149   2.0000      -0.467646       -12.7253 
 150   2.0000      -0.465210       -12.6590 
 151   2.0000      -0.457044       -12.4368 
 152   2.0000      -0.449344       -12.2273 
 153   2.0000      -0.446362       -12.1461 
 154   2.0000      -0.443278       -12.0622 
 155   2.0000      -0.438766       -11.9394 
 156   2.0000      -0.430251       -11.7077 
 157   2.0000      -0.425296       -11.5729 
 158   2.0000      -0.403528       -10.9806 
 159   2.0000      -0.386376       -10.5138 
 160   2.0000      -0.381097       -10.3702 
 161   2.0000      -0.378532       -10.3004 
 162   2.0000      -0.370898       -10.0927 
 163   2.0000      -0.359274        -9.7763 
 164   2.0000      -0.353505        -9.6194 
 165   2.0000      -0.338888        -9.2216 
 166   2.0000      -0.337583        -9.1861 
 167   2.0000      -0.327774        -8.9192 
 168   2.0000      -0.327059        -8.8997 
 169   2.0000      -0.304090        -8.2747 
 170   2.0000      -0.299613        -8.1529 
 171   2.0000      -0.286226        -7.7886 
 172   2.0000      -0.282960        -7.6997 
 173   2.0000      -0.261045        -7.1034 
 174   2.0000      -0.244364        -6.6495 
 175   2.0000      -0.189804        -5.1648 
 176   2.0000      -0.180101        -4.9008 
 177   2.0000      -0.074389        -2.0242 
 178   2.0000      -0.057944        -1.5767 
 179   0.0000       0.028625         0.7789 
 180   0.0000       0.066823         1.8183 
 181   0.0000       0.091769         2.4972 
 182   0.0000       0.108010         2.9391 
 183   0.0000       0.112824         3.0701 
 184   0.0000       0.134598         3.6626 
 185   0.0000       0.141424         3.8483 
 186   0.0000       0.146143         3.9767 
 187   0.0000       0.162945         4.4340 
 188   0.0000       0.163719         4.4550 
 189   0.0000       0.167450         4.5565 
 190   0.0000       0.168388         4.5821 
 191   0.0000       0.185587         5.0501 
 192   0.0000       0.185692         5.0529 
 193   0.0000       0.189055         5.1445 
 194   0.0000       0.202739         5.5168 
 195   0.0000       0.206109         5.6085 
 196   0.0000       0.207519         5.6469 
 197   0.0000       0.210568         5.7299 
 198   0.0000       0.221384         6.0242 
 199   0.0000       0.225491         6.1359 
 200   0.0000       0.230576         6.2743 
 201   0.0000       0.237119         6.4523 
 202   0.0000       0.239113         6.5066 
 203   0.0000       0.241350         6.5675 
 204   0.0000       0.249175         6.7804 
 205   0.0000       0.254989         6.9386 
 206   0.0000       0.257463         7.0059 
 207   0.0000       0.258750         7.0410 
 208   0.0000       0.260161         7.0793 
 209   0.0000       0.261633         7.1194 
 210   0.0000       0.264096         7.1864 
 211   0.0000       0.269922         7.3449 
 212   0.0000       0.271418         7.3857 
 213   0.0000       0.271894         7.3986 
 214   0.0000       0.274295         7.4639 
 215   0.0000       0.276577         7.5260 
 216   0.0000       0.278657         7.5826 
 217   0.0000       0.280865         7.6427 
 218   0.0000       0.284969         7.7544 
 219   0.0000       0.288931         7.8622 
 220   0.0000       0.289155         7.8683 
 221   0.0000       0.293299         7.9811 
 222   0.0000       0.294021         8.0007 
 223   0.0000       0.295652         8.0451 
 224   0.0000       0.298916         8.1339 
 225   0.0000       0.299833         8.1589 
 226   0.0000       0.306716         8.3462 
 227   0.0000       0.308252         8.3880 
 228   0.0000       0.309700         8.4274 
 229   0.0000       0.322182         8.7670 
 230   0.0000       0.324588         8.8325 
 231   0.0000       0.330028         8.9805 
 232   0.0000       0.330808         9.0017 
 233   0.0000       0.334113         9.0917 
 234   0.0000       0.344579         9.3765 
 235   0.0000       0.353164         9.6101 
 236   0.0000       0.358426         9.7533 
 237   0.0000       0.378905        10.3105 
 238   0.0000       0.394077        10.7234 
 239   0.0000       0.396896        10.8001 
 240   0.0000       0.400972        10.9110 
 241   0.0000       0.412075        11.2131 
 242   0.0000       0.417253        11.3540 
 243   0.0000       0.419473        11.4144 
 244   0.0000       0.427415        11.6305 
 245   0.0000       0.434585        11.8257 
 246   0.0000       0.436835        11.8869 
 247   0.0000       0.438539        11.9332 
 248   0.0000       0.443502        12.0683 
 249   0.0000       0.448961        12.2168 
 250   0.0000       0.450731        12.2650 
 251   0.0000       0.459221        12.4960 
 252   0.0000       0.464705        12.6453 
 253   0.0000       0.469332        12.7712 
 254   0.0000       0.469845        12.7851 
 255   0.0000       0.474257        12.9052 
 256   0.0000       0.479624        13.0512 
 257   0.0000       0.482351        13.1254 
 258   0.0000       0.487032        13.2528 
 259   0.0000       0.498450        13.5635 
 260   0.0000       0.502366        13.6701 
 261   0.0000       0.504962        13.7407 
 262   0.0000       0.506146        13.7729 
 263   0.0000       0.509063        13.8523 
 264   0.0000       0.514119        13.9899 
 265   0.0000       0.518382        14.1059 
 266   0.0000       0.524249        14.2655 
 267   0.0000       0.525918        14.3109 
 268   0.0000       0.532623        14.4934 
 269   0.0000       0.536937        14.6108 
 270   0.0000       0.540192        14.6994 
 271   0.0000       0.548348        14.9213 
 272   0.0000       0.550950        14.9921 
 273   0.0000       0.557353        15.1663 
 274   0.0000       0.560950        15.2642 
 275   0.0000       0.564257        15.3542 
 276   0.0000       0.569578        15.4990 
 277   0.0000       0.572449        15.5771 
 278   0.0000       0.578176        15.7330 
 279   0.0000       0.586929        15.9711 
 280   0.0000       0.589006        16.0277 
 281   0.0000       0.591198        16.0873 
 282   0.0000       0.591968        16.1083 
 283   0.0000       0.596026        16.2187 
 284   0.0000       0.597553        16.2602 
 285   0.0000       0.598676        16.2908 
 286   0.0000       0.608313        16.5530 
 287   0.0000       0.612217        16.6593 
 288   0.0000       0.616824        16.7846 
 289   0.0000       0.622210        16.9312 
 290   0.0000       0.627584        17.0774 
 291   0.0000       0.630167        17.1477 
 292   0.0000       0.633801        17.2466 
 293   0.0000       0.635291        17.2871 
 294   0.0000       0.646082        17.5808 
 295   0.0000       0.649660        17.6782 
 296   0.0000       0.653681        17.7876 
 297   0.0000       0.656731        17.8706 
 298   0.0000       0.665011        18.0959 
 299   0.0000       0.667283        18.1577 
 300   0.0000       0.670241        18.2382 
 301   0.0000       0.672976        18.3126 
 302   0.0000       0.677690        18.4409 
 303   0.0000       0.679223        18.4826 
 304   0.0000       0.682038        18.5592 
 305   0.0000       0.686519        18.6811 
 306   0.0000       0.689073        18.7506 
 307   0.0000       0.691318        18.8117 
 308   0.0000       0.695567        18.9273 
 309   0.0000       0.697741        18.9865 
 310   0.0000       0.702302        19.1106 
 311   0.0000       0.703140        19.1334 
 312   0.0000       0.706735        19.2312 
 313   0.0000       0.709707        19.3121 
 314   0.0000       0.711457        19.3597 
 315   0.0000       0.714646        19.4465 
 316   0.0000       0.716824        19.5058 
 317   0.0000       0.718526        19.5521 
 318   0.0000       0.721523        19.6336 
 319   0.0000       0.725104        19.7311 
 320   0.0000       0.725790        19.7498 
 321   0.0000       0.730872        19.8880 
 322   0.0000       0.732927        19.9440 
 323   0.0000       0.735190        20.0055 
 324   0.0000       0.737453        20.0671 
 325   0.0000       0.740341        20.1457 
 326   0.0000       0.743776        20.2392 
 327   0.0000       0.745385        20.2830 
 328   0.0000       0.749053        20.3828 
 329   0.0000       0.751388        20.4463 
 330   0.0000       0.752721        20.4826 
 331   0.0000       0.755845        20.5676 
 332   0.0000       0.759614        20.6702 
 333   0.0000       0.761875        20.7317 
 334   0.0000       0.768070        20.9002 
 335   0.0000       0.773927        21.0596 
 336   0.0000       0.776376        21.1263 
 337   0.0000       0.781741        21.2722 
 338   0.0000       0.783908        21.3312 
 339   0.0000       0.788978        21.4692 
 340   0.0000       0.792469        21.5642 
 341   0.0000       0.795150        21.6371 
 342   0.0000       0.796882        21.6843 
 343   0.0000       0.801110        21.7993 
 344   0.0000       0.803804        21.8726 
 345   0.0000       0.806089        21.9348 
 346   0.0000       0.807700        21.9786 
 347   0.0000       0.810629        22.0583 
 348   0.0000       0.814449        22.1623 
 349   0.0000       0.817645        22.2493 
 350   0.0000       0.819731        22.3060 
 351   0.0000       0.821753        22.3610 
 352   0.0000       0.822478        22.3808 
 353   0.0000       0.824138        22.4259 
 354   0.0000       0.831228        22.6189 
 355   0.0000       0.832013        22.6402 
 356   0.0000       0.833855        22.6903 
 357   0.0000       0.835873        22.7453 
 358   0.0000       0.836559        22.7639 
 359   0.0000       0.838910        22.8279 
 360   0.0000       0.841912        22.9096 
 361   0.0000       0.843423        22.9507 
 362   0.0000       0.844129        22.9699 
 363   0.0000       0.844473        22.9793 
 364   0.0000       0.849346        23.1119 
 365   0.0000       0.854425        23.2501 
 366   0.0000       0.856507        23.3068 
 367   0.0000       0.860401        23.4127 
 368   0.0000       0.862024        23.4569 
 369   0.0000       0.865163        23.5423 
 370   0.0000       0.870014        23.6743 
 371   0.0000       0.872797        23.7500 
 372   0.0000       0.874606        23.7992 
 373   0.0000       0.879966        23.9451 
 374   0.0000       0.881231        23.9795 
 375   0.0000       0.881739        23.9933 
 376   0.0000       0.885405        24.0931 
 377   0.0000       0.888275        24.1712 
 378   0.0000       0.891131        24.2489 
 379   0.0000       0.893814        24.3219 
 380   0.0000       0.896214        24.3872 
 381   0.0000       0.899577        24.4787 
 382   0.0000       0.902157        24.5489 
 383   0.0000       0.902207        24.5503 
 384   0.0000       0.903486        24.5851 
 385   0.0000       0.905408        24.6374 
 386   0.0000       0.907021        24.6813 
 387   0.0000       0.908966        24.7342 
 388   0.0000       0.911232        24.7959 
 389   0.0000       0.916045        24.9269 
 390   0.0000       0.918640        24.9975 
 391   0.0000       0.922528        25.1033 
 392   0.0000       0.925309        25.1789 
 393   0.0000       0.926673        25.2161 
 394   0.0000       0.927313        25.2335 
 395   0.0000       0.929629        25.2965 
 396   0.0000       0.931260        25.3409 
 397   0.0000       0.932133        25.3646 
 398   0.0000       0.941367        25.6159 
 399   0.0000       0.942800        25.6549 
 400   0.0000       0.944503        25.7012 
 401   0.0000       0.949669        25.8418 
 402   0.0000       0.953834        25.9551 
 403   0.0000       0.954440        25.9716 
 404   0.0000       0.960126        26.1263 
 405   0.0000       0.961724        26.1698 
 406   0.0000       0.964755        26.2523 
 407   0.0000       0.966916        26.3111 
 408   0.0000       0.969038        26.3689 
 409   0.0000       0.977433        26.5973 
 410   0.0000       0.980257        26.6741 
 411   0.0000       0.983310        26.7572 
 412   0.0000       0.989326        26.9209 
 413   0.0000       0.990022        26.9399 
 414   0.0000       0.995468        27.0881 
 415   0.0000       1.004051        27.3216 
 416   0.0000       1.004274        27.3277 
 417   0.0000       1.007359        27.4116 
 418   0.0000       1.010663        27.5015 
 419   0.0000       1.020431        27.7673 
 420   0.0000       1.024328        27.8734 
 421   0.0000       1.028794        27.9949 
 422   0.0000       1.039449        28.2849 
 423   0.0000       1.043627        28.3985 
 424   0.0000       1.045637        28.4532 
 425   0.0000       1.055312        28.7165 
 426   0.0000       1.059395        28.8276 
 427   0.0000       1.062155        28.9027 
 428   0.0000       1.068374        29.0719 
 429   0.0000       1.074833        29.2477 
 430   0.0000       1.078184        29.3389 
 431   0.0000       1.083605        29.4864 
 432   0.0000       1.085920        29.5494 
 433   0.0000       1.089679        29.6517 
 434   0.0000       1.097369        29.8609 
 435   0.0000       1.104865        30.0649 
 436   0.0000       1.105971        30.0950 
 437   0.0000       1.111039        30.2329 
 438   0.0000       1.116053        30.3693 
 439   0.0000       1.117368        30.4051 
 440   0.0000       1.120801        30.4985 
 441   0.0000       1.123306        30.5667 
 442   0.0000       1.125513        30.6268 
 443   0.0000       1.128629        30.7115 
 444   0.0000       1.130843        30.7718 
 445   0.0000       1.133499        30.8441 
 446   0.0000       1.140870        31.0447 
 447   0.0000       1.142562        31.0907 
 448   0.0000       1.147424        31.2230 
 449   0.0000       1.150271        31.3005 
 450   0.0000       1.151579        31.3361 
 451   0.0000       1.153333        31.3838 
 452   0.0000       1.158464        31.5234 
 453   0.0000       1.162031        31.6205 
 454   0.0000       1.164486        31.6873 
 455   0.0000       1.170899        31.8618 
 456   0.0000       1.172023        31.8924 
 457   0.0000       1.177697        32.0468 
 458   0.0000       1.180613        32.1261 
 459   0.0000       1.186056        32.2742 
 460   0.0000       1.189549        32.3693 
 461   0.0000       1.196524        32.5591 
 462   0.0000       1.201896        32.7052 
 463   0.0000       1.202203        32.7136 
 464   0.0000       1.205815        32.8119 
 465   0.0000       1.208742        32.8915 
 466   0.0000       1.211664        32.9711 
 467   0.0000       1.215040        33.0629 
 468   0.0000       1.220978        33.2245 
 469   0.0000       1.226326        33.3700 
 470   0.0000       1.228762        33.4363 
 471   0.0000       1.232556        33.5396 
 472   0.0000       1.233772        33.5726 
 473   0.0000       1.235220        33.6120 
 474   0.0000       1.242191        33.8017 
 475   0.0000       1.244588        33.8670 
 476   0.0000       1.249175        33.9918 
 477   0.0000       1.251400        34.0523 
 478   0.0000       1.253900        34.1204 
 479   0.0000       1.254869        34.1467 
 480   0.0000       1.258313        34.2404 
 481   0.0000       1.262342        34.3501 
 482   0.0000       1.269694        34.5501 
 483   0.0000       1.271574        34.6013 
 484   0.0000       1.275020        34.6951 
 485   0.0000       1.275669        34.7127 
 486   0.0000       1.280571        34.8461 
 487   0.0000       1.284652        34.9572 
 488   0.0000       1.288863        35.0717 
 489   0.0000       1.290446        35.1148 
 490   0.0000       1.294157        35.2158 
 491   0.0000       1.295193        35.2440 
 492   0.0000       1.299760        35.3683 
 493   0.0000       1.302464        35.4418 
 494   0.0000       1.310686        35.6656 
 495   0.0000       1.313784        35.7499 
 496   0.0000       1.317991        35.8644 
 497   0.0000       1.322263        35.9806 
 498   0.0000       1.325890        36.0793 
 499   0.0000       1.328652        36.1545 
 500   0.0000       1.333970        36.2992 
 501   0.0000       1.334845        36.3230 
 502   0.0000       1.336281        36.3621 
 503   0.0000       1.345931        36.6246 
 504   0.0000       1.348249        36.6877 
 505   0.0000       1.350009        36.7356 
 506   0.0000       1.350721        36.7550 
 507   0.0000       1.356956        36.9247 
 508   0.0000       1.361555        37.0498 
 509   0.0000       1.363849        37.1122 
[...]
      pz      :     0.022081  p :     0.079736
      px      :     0.043546
      py      :     0.014109
 77 H s       :     0.885628  s :     0.885628
      pz      :     0.047900  p :     0.079196
      px      :     0.015020
      py      :     0.016277
 78 H s       :     0.886046  s :     0.886046
      pz      :     0.025839  p :     0.079148
      px      :     0.020478
      py      :     0.032832
 79 H s       :     0.910044  s :     0.910044
      pz      :     0.021876  p :     0.086435
      px      :     0.021686
      py      :     0.042873
 80 H s       :     0.866065  s :     0.866065
      pz      :     0.039264  p :     0.084667
      px      :     0.030208
      py      :     0.015196
 81 H s       :     0.887171  s :     0.887171
      pz      :     0.037791  p :     0.084066
      px      :     0.016191
      py      :     0.030084
 82 H s       :     0.916049  s :     0.916049
      pz      :     0.022012  p :     0.086746
      px      :     0.031572
      py      :     0.033162
 83 H s       :     0.873724  s :     0.873724
      pz      :     0.039226  p :     0.084027
      px      :     0.015281
      py      :     0.029519
 84 H s       :     0.887211  s :     0.887211
      pz      :     0.035745  p :     0.083502
      px      :     0.031686
      py      :     0.016070
 85 H s       :     0.893417  s :     0.893417
      pz      :     0.022482  p :     0.079758
      px      :     0.014088
      py      :     0.043188
 86 H s       :     0.891227  s :     0.891227
      pz      :     0.024719  p :     0.078811
      px      :     0.032964
      py      :     0.021128
 87 H s       :     0.890142  s :     0.890142
      pz      :     0.047988  p :     0.078712
      px      :     0.015590
      py      :     0.015134
 88 H s       :     0.911283  s :     0.911283
      pz      :     0.021760  p :     0.087028
      px      :     0.042826
      py      :     0.022441
 89 H s       :     0.871541  s :     0.871541
      pz      :     0.037935  p :     0.083831
      px      :     0.030466
      py      :     0.015430


                      *****************************
                      * MAYER POPULATION ANALYSIS *
                      *****************************

  NA   - Mulliken gross atomic population
  ZA   - Total nuclear charge
  QA   - Mulliken gross atomic charge
  VA   - Mayer's total valence
  BVA  - Mayer's bonded valence
  FA   - Mayer's free valence

  ATOM       NA         ZA         QA         VA         BVA        FA
  0 C      5.7933     6.0000     0.2067     3.8396     3.8396    -0.0000
  1 N      7.4545     7.0000    -0.4545     3.3299     3.3299    -0.0000
  2 C      6.0653     6.0000    -0.0653     3.9209     3.9209     0.0000
  3 N      7.3364     7.0000    -0.3364     3.4591     3.4591     0.0000
  4 C      6.0543     6.0000    -0.0543     4.0120     4.0120    -0.0000
  5 N      7.5612     7.0000    -0.5612     3.0953     3.0953     0.0000
  6 C      6.1157     6.0000    -0.1157     4.0047     4.0047    -0.0000
  7 N      7.3401     7.0000    -0.3401     3.4347     3.4347    -0.0000
  8 C      5.7924     6.0000     0.2076     3.8420     3.8420    -0.0000
  9 N      7.5627     7.0000    -0.5627     3.0791     3.0791    -0.0000
 10 C      5.8814     6.0000     0.1186     3.9082     3.9082     0.0000
 11 N      7.4377     7.0000    -0.4377     3.3822     3.3822    -0.0000
 12 C      6.0813     6.0000    -0.0813     3.9038     3.9038     0.0000
 13 N      7.4318     7.0000    -0.4318     3.4174     3.4174     0.0000
 14 C      5.7753     6.0000     0.2247     3.7825     3.7825     0.0000
 15 N      7.4415     7.0000    -0.4415     3.3694     3.3694     0.0000
 16 C      5.7702     6.0000     0.2298     3.7801     3.7801     0.0000
 17 C      6.1132     6.0000    -0.1132     4.0050     4.0050    -0.0000
 18 C      6.1693     6.0000    -0.1693     3.7609     3.7609    -0.0000
 19 C      5.7886     6.0000     0.2114     3.8631     3.8631     0.0000
 20 C      5.7862     6.0000     0.2138     3.8279     3.8279    -0.0000
 21 C      6.0923     6.0000    -0.0923     3.9002     3.9002     0.0000
 22 C      6.0886     6.0000    -0.0886     3.9819     3.9819    -0.0000
 23 C      6.0416     6.0000    -0.0416     3.9920     3.9920    -0.0000
 24 C      5.8027     6.0000     0.1973     3.8216     3.8216    -0.0000
 25 C      5.8859     6.0000     0.1141     3.8901     3.8901    -0.0000
 26 C      6.0756     6.0000    -0.0756     3.9064     3.9064     0.0000
 27 C      5.7873     6.0000     0.2127     3.8658     3.8658     0.0000
 28 C      6.0594     6.0000    -0.0594     3.9886     3.9886    -0.0000
 29 C      6.1808     6.0000    -0.1808     3.7442     3.7442    -0.0000
 30 C      5.7564     6.0000     0.2436     3.7973     3.7973    -0.0000
 31 C      5.7730     6.0000     0.2270     3.8199     3.8199     0.0000
 32 C      6.0618     6.0000    -0.0618     3.9227     3.9227    -0.0000
 33 C      6.0652     6.0000    -0.0652     3.9750     3.9750    -0.0000
 34 C      6.0497     6.0000    -0.0497     3.9857     3.9857    -0.0000
 35 C      5.7782     6.0000     0.2218     3.8184     3.8184     0.0000
 36 C      5.8904     6.0000     0.1096     3.8785     3.8785     0.0000
 37 C      6.0648     6.0000    -0.0648     3.9175     3.9175     0.0000
 38 C      5.7664     6.0000     0.2336     3.8017     3.8017    -0.0000
 39 C      6.0595     6.0000    -0.0595     3.9848     3.9848    -0.0000
 40 C      6.1822     6.0000    -0.1822     3.7300     3.7300    -0.0000
 41 C      5.7766     6.0000     0.2234     3.8851     3.8851     0.0000
 42 C      5.8023     6.0000     0.1977     3.8266     3.8266    -0.0000
 43 C      6.0729     6.0000    -0.0729     3.9003     3.9003     0.0000
 44 C      6.0911     6.0000    -0.0911     3.9858     3.9858    -0.0000
 45 C      6.0599     6.0000    -0.0599     3.9923     3.9923    -0.0000
 46 C      5.7914     6.0000     0.2086     3.8284     3.8284     0.0000
 47 C      5.8843     6.0000     0.1157     3.8940     3.8940     0.0000
 48 C      6.0690     6.0000    -0.0690     3.9083     3.9083     0.0000
 49 C      5.7642     6.0000     0.2358     3.8929     3.8929     0.0000
 50 C      6.0477     6.0000    -0.0477     3.9906     3.9906     0.0000
 51 C      6.1932     6.0000    -0.1932     3.7368     3.7368    -0.0000
 52 H      0.9591     1.0000     0.0409     0.9861     0.9861     0.0000
 53 H      1.0163     1.0000    -0.0163     0.9985     0.9985     0.0000
 54 H      0.9491     1.0000     0.0509     1.0116     1.0116    -0.0000
 55 H      0.9605     1.0000     0.0395     0.9866     0.9866     0.0000
 56 H      0.9500     1.0000     0.0500     0.9698     0.9698    -0.0000
 57 H      0.9513     1.0000     0.0487     0.9824     0.9824     0.0000
 58 H      0.9523     1.0000     0.0477     0.9853     0.9853     0.0000
 59 H      0.9988     1.0000     0.0012     1.0039     1.0039     0.0000
 60 H      0.9488     1.0000     0.0512     1.0146     1.0146    -0.0000
 61 H      0.8289     1.0000     0.1711     1.0419     1.0419     0.0000
 62 H      0.8248     1.0000     0.1752     1.0436     1.0436    -0.0000
 63 H      0.9434     1.0000     0.0566     0.9852     0.9852     0.0000
 64 H      1.0052     1.0000    -0.0052     0.9976     0.9976     0.0000
 65 H      0.9530     1.0000     0.0470     1.0097     1.0097     0.0000
 66 H      0.9432     1.0000     0.0568     0.9853     0.9853     0.0000
 67 H      0.9366     1.0000     0.0634     0.9720     0.9720     0.0000
 68 H      0.9421     1.0000     0.0579     0.9868     0.9868    -0.0000
 69 H      0.9425     1.0000     0.0575     0.9829     0.9829     0.0000
 70 H      1.0279     1.0000    -0.0279     0.9930     0.9930    -0.0000
 71 H      0.9535     1.0000     0.0465     1.0060     1.0060     0.0000
 72 H      0.9318     1.0000     0.0682     0.9839     0.9839    -0.0000
 73 H      1.0091     1.0000    -0.0091     1.0004     1.0004     0.0000
 74 H      0.9425     1.0000     0.0575     1.0102     1.0102     0.0000
 75 H      0.9326     1.0000     0.0674     0.9843     0.9843     0.0000
 76 H      0.9278     1.0000     0.0722     0.9720     0.9720     0.0000
 77 H      0.9341     1.0000     0.0659     0.9854     0.9854     0.0000
 78 H      0.9350     1.0000     0.0650     0.9852     0.9852    -0.0000
 79 H      1.0154     1.0000    -0.0154     0.9981     0.9981     0.0000
 80 H      0.9419     1.0000     0.0581     1.0071     1.0071    -0.0000
 81 H      0.9464     1.0000     0.0536     0.9856     0.9856     0.0000
 82 H      1.0251     1.0000    -0.0251     0.9934     0.9934     0.0000
 83 H      0.9589     1.0000     0.0411     1.0085     1.0085     0.0000
 84 H      0.9470     1.0000     0.0530     0.9853     0.9853    -0.0000
 85 H      0.9403     1.0000     0.0597     0.9715     0.9715     0.0000
 86 H      0.9449     1.0000     0.0551     0.9839     0.9839     0.0000
 87 H      0.9433     1.0000     0.0567     0.9856     0.9856     0.0000
 88 H      1.0160     1.0000    -0.0160     0.9963     0.9963    -0.0000
 89 H      0.9538     1.0000     0.0462     1.0070     1.0070     0.0000

  Mayer bond orders larger than 0.100000
B(  0-C ,  1-N ) :   1.0887 B(  0-C , 17-C ) :   1.7026 B(  0-C , 52-H ) :   0.9673 
B(  1-N ,  8-C ) :   1.0910 B(  1-N , 10-C ) :   0.9769 B(  2-C , 12-C ) :   1.5123 
B(  2-C , 16-C ) :   1.3511 B(  2-C , 53-H ) :   0.9762 B(  3-N , 14-C ) :   1.2171 
B(  3-N , 16-C ) :   1.1921 B(  3-N , 61-H ) :   0.8994 B(  4-C ,  6-C ) :   1.2144 
B(  4-C , 17-C ) :   1.2139 B(  4-C , 18-C ) :   1.4173 B(  5-N , 19-C ) :   1.4496 
B(  5-N , 27-C ) :   1.3823 B(  6-C ,  8-C ) :   1.7008 B(  6-C , 54-H ) :   0.9616 
B(  7-N , 30-C ) :   1.1938 B(  7-N , 38-C ) :   1.1936 B(  7-N , 62-H ) :   0.8969 
B(  8-C , 55-H ) :   0.9683 B(  9-N , 41-C ) :   1.3942 B(  9-N , 49-C ) :   1.4268 
B( 10-C , 56-H ) :   0.9767 B( 10-C , 57-H ) :   0.9831 B( 10-C , 58-H ) :   0.9834 
B( 11-N , 20-C ) :   1.1316 B( 11-N , 24-C ) :   1.1122 B( 11-N , 25-C ) :   0.9587 
B( 12-C , 14-C ) :   1.3526 B( 12-C , 59-H ) :   0.9749 B( 13-N , 31-C ) :   1.1543 
B( 13-N , 35-C ) :   1.1486 B( 13-N , 36-C ) :   0.9454 B( 14-C , 18-C ) :   1.1375 
B( 15-N , 42-C ) :   1.1074 B( 15-N , 46-C ) :   1.1201 B( 15-N , 47-C ) :   0.9625 
B( 16-C , 51-C ) :   1.1752 B( 17-C , 60-H ) :   0.9615 B( 18-C , 19-C ) :   1.1427 
B( 19-C , 21-C ) :   1.2396 B( 20-C , 28-C ) :   1.6251 B( 20-C , 63-H ) :   0.9701 
B( 21-C , 26-C ) :   1.6182 B( 21-C , 64-H ) :   0.9713 B( 22-C , 23-C ) :   1.2906 
B( 22-C , 28-C ) :   1.2684 B( 22-C , 29-C ) :   1.2202 B( 23-C , 24-C ) :   1.6170 
B( 23-C , 65-H ) :   0.9705 B( 24-C , 66-H ) :   0.9694 B( 25-C , 67-H ) :   0.9760 
B( 25-C , 68-H ) :   0.9828 B( 25-C , 69-H ) :   0.9822 B( 26-C , 27-C ) :   1.2340 
B( 26-C , 70-H ) :   0.9709 B( 27-C , 29-C ) :   1.2164 B( 28-C , 71-H ) :   0.9718 
B( 29-C , 30-C ) :   1.2392 B( 30-C , 32-C ) :   1.2849 B( 31-C , 39-C ) :   1.5976 
B( 31-C , 72-H ) :   0.9684 B( 32-C , 37-C ) :   1.5744 B( 32-C , 73-H ) :   0.9784 
B( 33-C , 34-C ) :   1.3015 B( 33-C , 39-C ) :   1.2949 B( 33-C , 40-C ) :   1.1903 
B( 34-C , 35-C ) :   1.5941 B( 34-C , 74-H ) :   0.9698 B( 35-C , 75-H ) :   0.9685 
B( 36-C , 76-H ) :   0.9766 B( 36-C , 77-H ) :   0.9817 B( 36-C , 78-H ) :   0.9825 
B( 37-C , 38-C ) :   1.2888 B( 37-C , 79-H ) :   0.9769 B( 38-C , 40-C ) :   1.2297 
B( 39-C , 80-H ) :   0.9708 B( 40-C , 41-C ) :   1.2435 B( 41-C , 43-C ) :   1.1930 
B( 42-C , 50-C ) :   1.6360 B( 42-C , 81-H ) :   0.9697 B( 43-C , 48-C ) :   1.6589 
B( 43-C , 82-H ) :   0.9724 B( 44-C , 45-C ) :   1.2628 B( 44-C , 50-C ) :   1.2689 
B( 44-C , 51-C ) :   1.2647 B( 45-C , 46-C ) :   1.6368 B( 45-C , 83-H ) :   0.9717 
B( 46-C , 84-H ) :   0.9701 B( 47-C , 85-H ) :   0.9762 B( 47-C , 86-H ) :   0.9829 
B( 47-C , 87-H ) :   0.9825 B( 48-C , 49-C ) :   1.1962 B( 48-C , 88-H ) :   0.9747 
B( 49-C , 51-C ) :   1.2341 B( 50-C , 89-H ) :   0.9710 

-------
TIMINGS
-------

Total SCF time: 0 days 0 hours 28 min 5 sec 

Total time                  ....    1685.504 sec
Sum of individual times     ....    1680.688 sec  ( 99.7%)

Fock matrix formation       ....    1652.839 sec  ( 98.1%)
Diagonalization             ....       8.806 sec  (  0.5%)
Density matrix formation    ....       0.539 sec  (  0.0%)
Population analysis         ....       0.584 sec  (  0.0%)
Initial guess               ....       2.509 sec  (  0.1%)
Orbital Transformation      ....       0.000 sec  (  0.0%)
Orbital Orthonormalization  ....       0.000 sec  (  0.0%)
DIIS solution               ....       3.972 sec  (  0.2%)
SOSCF solution              ....      10.149 sec  (  0.6%)

Maximum memory used throughout the entire SCF-calculation: 302.6 MB


           ************************************************************
           *        Program running with 16 parallel MPI-processes    *
           *              working on a common directory               *
           ************************************************************

------------------------------------------------------------------------------
                                ORCA  MP2 
------------------------------------------------------------------------------

Freezing NCore=104 chemical core electrons

----------
MP2 ENERGY (disk based algorithm)
----------

Dimension of the basis                    ...  918
Memory devoted to MP2                     ... 2000 MB   
Data format for buffers                   ... DOUBLE
Compression type for matrix containers    ... UNCOMPRESSED

-------------------------------
PARTIAL EXCHANGE TRANSFORMATION
-------------------------------

Transformation type                        ... one-operator
Generation of integrals (i,mue|j,nue)      ... ON
Generation of integrals (mue,kappa|nue,tau)... OFF
Generation of integrals (i,mue|a,nue)      ... OFF
Dimension of the basis                     ...  918
Number of internal MOs                     ...  127 (  52- 178)
Pair cutoff                                ... 2.500e-12 Eh
Number of AO pairs in the trafo            ... 421821
Total Number of distinct AO pairs          ... 421821
Memory devoted for trafo                   ... 2000.0 MB 
Max. Number of MO pairs treated together   ...  311      
Number Format for Storage                  ... Double (8 Byte)
Integral package used                      ... LIBINT

Starting integral evaluation:
    ... done with AO integral generation
Closing buffer AOK     (38.26 GB; CompressionRatio= 1.32)
Collecting buffer AOK 
Number of MO pairs included in the trafo   ... 8128
------------------------
SORTING OF (i,mue|j,nue)
------------------------

IBATCH = 1 of  2
IBATCH = 2 of  2
Closing buffer KAO     (51.03 GB; CompressionRatio= 1.00)
Collecting buffer KAO 
N(AO-Batches) Done                         ...  85743327 
N(AO-Batches) Skipped                      ...  82447550 
N(IJ)-pairs Skipped                        ...         0 
TOTAL TIME for half transformation         ...  2236.373 sec
AO-integral generation                     ...   209.585 sec
Half transformation                        ...   423.756 sec
K-integral sorting                         ...  1364.256 sec

Finished integral transformation - now doing MP2 part

OPERATOR COMBINATION   0   0: ij=( 52..178, 52..178)
Process 10:   Internal MO 132
Process 13:   Internal MO 156
Process  4:   Internal MO  84
Process  1:   Internal MO  60
Process  7:   Internal MO 108
Process  0:   Internal MO  54
Process  2:   Internal MO  69
Process  0:   Internal MO  57
Process  1:   Internal MO  63
Process  3:   Internal MO  78
Process  8:   Internal MO 117
Process  5:   Internal MO  93
Process  2:   Internal MO  72
Process  1:   Internal MO  66
Process  6:   Internal MO 102
Process 14:   Internal MO 165
Process 11:   Internal MO 141
Process  4:   Internal MO  87
Process  2:   Internal MO  75
Process  9:   Internal MO 126
Process  3:   Internal MO  81
Process 12:   Internal MO 150
Process  5:   Internal MO  96
Process  4:   Internal MO  90
Process  7:   Internal MO 111
Process 15:   Internal MO 174
Process 10:   Internal MO 135
Process  6:   Internal MO 105
Process  8:   Internal MO 120
Process  5:   Internal MO  99
Process  9:   Internal MO 129
Process 13:   Internal MO 159
Process 11:   Internal MO 144
Process  7:   Internal MO 114
Process 12:   Internal MO 153
Process 14:   Internal MO 168
Process  8:   Internal MO 123
Process 10:   Internal MO 138
Process 15:   Internal MO 177
Process 11:   Internal MO 147
Process 13:   Internal MO 162
Process 14:   Internal MO 171
-----------------------------------------------
 MP2 CORRELATION ENERGY   :     -7.282070583 Eh
-----------------------------------------------


-------
TIMINGS
-------
Total time                : 2524.924 sec
Integral trafo            : 2239.071 sec ( 88.7%)
K(i,j)                    :    6.214 sec (  0.2%)
T(i,j)                    :    0.067 sec (  0.0%)

---------------------------------------
MP2 TOTAL ENERGY:    -2130.903747781 Eh
---------------------------------------

Maximum memory used throughout the entire MP2-calculation: 2275.3 MB

-------------------------   --------------------
FINAL SINGLE POINT ENERGY     -2130.903747781437
-------------------------   --------------------


                            ***************************************
                            *     ORCA property calculations      *
                            ***************************************


  WARNING: The energy has been calculated at the MP2 level but the densities
           used in the property calculations are still SCF densities
           MP2 response densities have not been calculated 
           use %mp2 Density relaxed end
           or  %mp2 Density unrelaxed end

                                    ---------------------
                                    Active property flags
                                    ---------------------
   (+) Dipole Moment


------------------------------------------------------------------------------
                       ORCA ELECTRIC PROPERTIES CALCULATION
------------------------------------------------------------------------------

Dipole Moment Calculation                       ... on
Quadrupole Moment Calculation                   ... off
Polarizability Calculation                      ... off
GBWName                                         ... /scratch/allen/tmpyp4_amber_gaff2/conf1/conf1/Conf146.orca.gbw
Electron density                                ... /scratch/allen/tmpyp4_amber_gaff2/conf1/conf1/Conf146.orca.scfp
The origin for moment calculation is the CENTER OF MASS  = ( 0.003317, -0.001821  0.002067)

-------------
DIPOLE MOMENT
-------------
                                X             Y             Z
Electronic contribution:      1.91536      -3.76741      -0.22384
Nuclear contribution   :      0.02945       0.20409       0.22552
                        -----------------------------------------
Total Dipole Moment    :      1.94481      -3.56332       0.00168
                        -----------------------------------------
Magnitude (a.u.)       :      4.05950
Magnitude (Debye)      :     10.31843



--------------------
Rotational spectrum 
--------------------
 
Rotational constants in cm-1:     0.001500     0.001477     0.000761 
Rotational constants in MHz :    44.961705    44.294269    22.810942 

 Dipole components along the rotational axes: 
x,y,z [a.u.] :     2.789929    -2.948867     0.006095 
x,y,z [Debye]:     7.091437    -7.495424     0.015492 

 

Timings for individual modules:

Sum of individual times         ...     4243.641 sec (=  70.727 min)
GTO integral calculation        ...       13.185 sec (=   0.220 min)   0.3 %
SCF iterations                  ...     1687.793 sec (=  28.130 min)  39.8 %
MP2 module                      ...     2542.663 sec (=  42.378 min)  59.9 %
                             ****ORCA TERMINATED NORMALLY****
TOTAL RUN TIME: 0 days 1 hours 10 minutes 47 seconds 273 msec
# of primitive gaussian functions

