
                                 *****************
                                 * O   R   C   A *
                                 *****************

                                            #,                                       
                                            ###                                      
                                            ####                                     
                                            #####                                    
                                            ######                                   
                                           ########,                                 
                                     ,,################,,,,,                         
                               ,,#################################,,                 
                          ,,##########################################,,             
                       ,#########################################, ''#####,          
                    ,#############################################,,   '####,        
                  ,##################################################,,,,####,       
                ,###########''''           ''''###############################       
              ,#####''   ,,,,##########,,,,          '''####'''          '####       
            ,##' ,,,,###########################,,,                        '##       
           ' ,,###''''                  '''############,,,                           
         ,,##''                                '''############,,,,        ,,,,,,###''
      ,#''                                            '''#######################'''  
     '                                                          ''''####''''         
             ,#######,   #######,   ,#######,      ##                                
            ,#'     '#,  ##    ##  ,#'     '#,    #''#        ######   ,####,        
            ##       ##  ##   ,#'  ##            #'  '#       #        #'  '#        
            ##       ##  #######   ##           ,######,      #####,   #    #        
            '#,     ,#'  ##    ##  '#,     ,#' ,#      #,         ##   #,  ,#        
             '#######'   ##     ##  '#######'  #'      '#     #####' # '####'        



                  #######################################################
                  #                        -***-                        #
                  #          Department of theory and spectroscopy      #
                  #    Directorship and core code : Frank Neese         #
                  #        Max Planck Institute fuer Kohlenforschung    #
                  #                Kaiser Wilhelm Platz 1               #
                  #                 D-45470 Muelheim/Ruhr               #
                  #                      Germany                        #
                  #                                                     #
                  #                  All rights reserved                #
                  #                        -***-                        #
                  #######################################################


                         Program Version 5.0.4 -  RELEASE  -


 With contributions from (in alphabetic order):
   Daniel Aravena         : Magnetic Suceptibility
   Michael Atanasov       : Ab Initio Ligand Field Theory (pilot matlab implementation)
   Alexander A. Auer      : GIAO ZORA, VPT2 properties, NMR spectrum
   Ute Becker             : Parallelization
   Giovanni Bistoni       : ED, misc. LED, open-shell LED, HFLD
   Martin Brehm           : Molecular dynamics
   Dmytro Bykov           : SCF Hessian
   Vijay G. Chilkuri      : MRCI spin determinant printing, contributions to CSF-ICE
   Dipayan Datta          : RHF DLPNO-CCSD density
   Achintya Kumar Dutta   : EOM-CC, STEOM-CC
   Dmitry Ganyushin       : Spin-Orbit,Spin-Spin,Magnetic field MRCI
   Miquel Garcia          : C-PCM and meta-GGA Hessian, CC/C-PCM, Gaussian charge scheme
   Yang Guo               : DLPNO-NEVPT2, F12-NEVPT2, CIM, IAO-localization
   Andreas Hansen         : Spin unrestricted coupled pair/coupled cluster methods
   Benjamin Helmich-Paris : MC-RPA, TRAH-SCF, COSX integrals
   Lee Huntington         : MR-EOM, pCC
   Robert Izsak           : Overlap fitted RIJCOSX, COSX-SCS-MP3, EOM
   Marcus Kettner         : VPT2
   Christian Kollmar      : KDIIS, OOCD, Brueckner-CCSD(T), CCSD density, CASPT2, CASPT2-K
   Simone Kossmann        : Meta GGA functionals, TD-DFT gradient, OOMP2, MP2 Hessian
   Martin Krupicka        : Initial AUTO-CI
   Lucas Lang             : DCDCAS
   Marvin Lechner         : AUTO-CI (C++ implementation), FIC-MRCC
   Dagmar Lenk            : GEPOL surface, SMD
   Dimitrios Liakos       : Extrapolation schemes; Compound Job, initial MDCI parallelization
   Dimitrios Manganas     : Further ROCIS development; embedding schemes
   Dimitrios Pantazis     : SARC Basis sets
   Anastasios Papadopoulos: AUTO-CI, single reference methods and gradients
   Taras Petrenko         : DFT Hessian,TD-DFT gradient, ASA, ECA, R-Raman, ABS, FL, XAS/XES, NRVS
   Peter Pinski           : DLPNO-MP2, DLPNO-MP2 Gradient
   Christoph Reimann      : Effective Core Potentials
   Marius Retegan         : Local ZFS, SOC
   Christoph Riplinger    : Optimizer, TS searches, QM/MM, DLPNO-CCSD(T), (RO)-DLPNO pert. Triples
   Tobias Risthaus        : Range-separated hybrids, TD-DFT gradient, RPA, STAB
   Michael Roemelt        : Original ROCIS implementation
   Masaaki Saitow         : Open-shell DLPNO-CCSD energy and density
   Barbara Sandhoefer     : DKH picture change effects
   Avijit Sen             : IP-ROCIS
   Kantharuban Sivalingam : CASSCF convergence, NEVPT2, FIC-MRCI
   Bernardo de Souza      : ESD, SOC TD-DFT
   Georgi Stoychev        : AutoAux, RI-MP2 NMR, DLPNO-MP2 response
   Willem Van den Heuvel  : Paramagnetic NMR
   Boris Wezisla          : Elementary symmetry handling
   Frank Wennmohs         : Technical directorship


 We gratefully acknowledge several colleagues who have allowed us to
 interface, adapt or use parts of their codes:
   Stefan Grimme, W. Hujo, H. Kruse, P. Pracht,  : VdW corrections, initial TS optimization,
                  C. Bannwarth, S. Ehlert          DFT functionals, gCP, sTDA/sTD-DF
   Ed Valeev, F. Pavosevic, A. Kumar             : LibInt (2-el integral package), F12 methods
   Garnet Chan, S. Sharma, J. Yang, R. Olivares  : DMRG
   Ulf Ekstrom                                   : XCFun DFT Library
   Mihaly Kallay                                 : mrcc  (arbitrary order and MRCC methods)
   Jiri Pittner, Ondrej Demel                    : Mk-CCSD
   Frank Weinhold                                : gennbo (NPA and NBO analysis)
   Christopher J. Cramer and Donald G. Truhlar   : smd solvation model
   Lars Goerigk                                  : TD-DFT with DH, B97 family of functionals
   V. Asgeirsson, H. Jonsson                     : NEB implementation
   FAccTs GmbH                                   : IRC, NEB, NEB-TS, DLPNO-Multilevel, CI-OPT
                                                   MM, QMMM, 2- and 3-layer-ONIOM, Crystal-QMMM,
                                                   LR-CPCM, SF, NACMEs, symmetry and pop. for TD-DFT,
                                                   nearIR, NL-DFT gradient (VV10), updates on ESD,
                                                   ML-optimized integration grids
   S Lehtola, MJT Oliveira, MAL Marques          : LibXC Library
   Liviu Ungur et al                             : ANISO software


 Your calculation uses the libint2 library for the computation of 2-el integrals
 For citations please refer to: http://libint.valeyev.net

 Your ORCA version has been built with support for libXC version: 5.1.0
 For citations please refer to: https://tddft.org/programs/libxc/

 This ORCA versions uses:
   CBLAS   interface :  Fast vector & matrix operations
   LAPACKE interface :  Fast linear algebra routines
   SCALAPACK package :  Parallel linear algebra routines
   Shared memory     :  Shared parallel matrices
   BLAS/LAPACK       :  OpenBLAS 0.3.15  USE64BITINT DYNAMIC_ARCH NO_AFFINITY Sandybridge SINGLE_THREADED
        Core in use  :  Sandybridge
   Copyright (c) 2011-2014, The OpenBLAS Project


================================================================================

----- Orbital basis set information -----
Your calculation utilizes the basis: cc-pVDZ 
       H, B-Ne : Obtained from the ccRepo (grant-hill.group.shef.ac.uk/ccrepo) Feb. 2017
                 T. H. Dunning, Jr., J. Chem. Phys. 90, 1007 (1989)
            He : Obtained from the ccRepo (grant-hill.group.shef.ac.uk/ccrepo) Feb. 2017
                 D. E. Woon, T. H. Dunning, Jr., J. Chem. Phys. 100, 2975 (1994)
  Li-Be, Na-Mg : Obtained from the ccRepo (grant-hill.group.shef.ac.uk/ccrepo) Feb. 2017
                 B. P. Prascher, D. E. Woon, K. A. Peterson, T. H. Dunning, Jr., A. K. Wilson, Theor. Chem. Acc. 128, 69 (2011)
         Al-Ar : Obtained from the ccRepo (grant-hill.group.shef.ac.uk/ccrepo) Feb. 2017
                 D. E. Woon, T. H. Dunning, Jr., J. Chem. Phys. 98, 1358 (1993)
            Ca : Obtained from the Peterson Research Group Website (tyr0.chem.wsu.edu/~kipeters) Feb. 2017
                 J. Koput, K. A. Peterson, J. Phys. Chem. 106, 9595 (2002)
         Sc-Zn : Obtained from the ccRepo (grant-hill.group.shef.ac.uk/ccrepo) Feb. 2017
                 N. B. Balabanov, K. A. Peterson, J. Chem. Phys. 123, 064107 (2005)
                 N. B. Balabanov, K. A. Peterson, J. Chem. Phys. 125, 074110 (2006)
         Ga-Kr : Obtained from the ccRepo (grant-hill.group.shef.ac.uk/ccrepo) Feb. 2017
                 A. K. Wilson, D. E. Woon, K. A. Peterson, T. H. Dunning, Jr., J. Chem. Phys. 110, 7667 (1999)

================================================================================
                                        WARNINGS
                       Please study these warnings very carefully!
================================================================================


WARNING: No MP2 level density has been requested!
         To caclulate MP2 level properties use
         %mp2 Density relaxed end
         or
         %mp2 Density unrelaxed end

WARNING: Post HF methods need fully converged wavefunctions
  ===> : Setting SCFConvForced true
         You can overwrite this default with %scf ConvForced false 


INFO   : the flag for use of the SHARK integral package has been found!

================================================================================
                                       INPUT FILE
================================================================================
NAME = /scratch/allen/tmpyp4_amber_gaff2/2.Mdgx/conf11/conf11/Conf137.orca
|  1> ! PAL2
|  2> ! mp2 cc-pvdz TightSCF  NoKeepInts
|  3> 
|  4> %scf
|  5>   MaxCore 2000
|  6> end
|  7> %mp2
|  8>   MaxCore 2000
|  9> end
| 10> * xyz 0 1
| 11>    C       -4.66900         5.39500        -0.75500
| 12>    C        1.47400         4.04100         0.05700
| 13>    C       -2.80200         4.09300         0.04900
| 14>    C       -2.50200         5.15400         0.91700
| 15>    C       -3.28900         6.28800         0.92400
| 16>    C       -5.19700         7.61200         0.15200
| 17>    C        0.13200         4.30700         0.06100
| 18>    C       -0.56900         3.05600         0.04700
| 19>    C        1.64900         2.61800         0.02300
| 20>    C       -3.91500         4.23800        -0.79400
| 21>    N       -4.35200         6.39900         0.09400
| 22>    N        0.38800         2.06700         0.02500
| 23>    N       -2.01000         0.39500        -0.07500
| 24>    N       -0.38800        -2.07400        -0.02700
| 25>    N        2.01000        -0.40100         0.06500
| 26>    C       -1.96000         2.86100         0.02400
| 27>    C       -2.62300         1.61500        -0.01800
| 28>    C       -5.57300        -4.32900         1.06600
| 29>    C       -4.07300         1.47100         0.05600
| 30>    C       -4.10600        -2.75600        -0.02600
| 31>    C       -4.99500        -2.75700        -1.11100
| 32>    C       -6.13200        -3.54200        -1.07600
| 33>    C       -7.65100        -5.11300         0.04000
| 34>    C       -4.32400         0.14100         0.03700
| 35>    C       -3.02500        -0.52000        -0.04800
| 36>    C       -4.42200        -3.56600         1.07500
| 37>    N       -6.40700        -4.31300         0.00100
| 38>    C       -2.86700        -1.92200        -0.04000
| 39>    C       -1.65000        -2.62400        -0.02700
| 40>    C        3.56800        -6.14200        -1.04000
| 41>    C       -1.47600        -4.04900        -0.03400
| 42>    C        2.80300        -4.09900        -0.00800
| 43>    C        3.65700        -4.38400         1.06900
| 44>    C        4.42700        -5.53000         1.05900
| 45>    C        5.24500        -7.58800         0.01400
| 46>    C       -0.13400        -4.31500        -0.02200
| 47>    C        0.56800        -3.06400        -0.02700
| 48>    C        2.77500        -5.01200        -1.07400
| 49>    N        4.37600        -6.39100         0.01700
| 50>    C        1.95900        -2.86900        -0.00900
| 51>    C        2.62100        -1.62200         0.00900
| 52>    C        5.54300         4.33900        -1.13000
| 53>    C        4.07000        -1.47900        -0.09400
| 54>    C        4.10400         2.75100        -0.02100
| 55>    C        5.02700         2.72900         1.03600
| 56>    C        6.16600         3.50900         0.97800
| 57>    C        7.61900         5.15300        -0.11500
| 58>    C        4.32100        -0.14800        -0.09200
| 59>    C        3.02500         0.51400         0.01500
| 60>    C        4.38700         3.58200        -1.11500
| 61>    C        2.86600         1.91600         0.01300
| 62>    N        6.41300         4.29600        -0.09500
| 63>    H       -5.52700         5.55400        -1.39500
| 64>    H        2.27400         4.76600         0.08100
| 65>    H       -1.66200         5.09800         1.59900
| 66>    H       -3.10200         7.12800         1.58100
| 67>    H       -5.95200         7.48300         0.93100
| 68>    H       -4.56500         8.47000         0.38000
| 69>    H       -5.67900         7.75000        -0.81600
| 70>    H       -0.33200         5.28200         0.06900
| 71>    H       -4.19000         3.46000        -1.49700
| 72>    H        0.18200         1.07200         0.00500
| 73>    H       -0.18300        -1.08000        -0.02100
| 74>    H       -5.86400        -4.96200         1.89500
| 75>    H       -4.79400         2.27200         0.13900
| 76>    H       -4.80000        -2.16000        -1.99400
| 77>    H       -6.84100        -3.58200        -1.89300
| 78>    H       -8.42800        -4.53600         0.54600
| 79>    H       -7.95600        -5.33700        -0.98100
| 80>    H       -7.45600        -6.03700         0.58400
| 81>    H       -5.28700        -0.34400         0.10000
| 82>    H       -3.78000        -3.60100         1.94700
| 83>    H        3.58700        -6.86800        -1.84300
| 84>    H       -2.27600        -4.77400        -0.05000
| 85>    H        3.71400        -3.72400         1.92600
| 86>    H        5.09200        -5.79500         1.87100
| 87>    H        6.20500        -7.32900        -0.43900
| 88>    H        5.39300        -7.91700         1.04200
| 89>    H        4.75900        -8.37300        -0.56400
| 90>    H        0.32900        -5.29000        -0.00800
| 91>    H        2.14600        -4.84200        -1.94000
| 92>    H        5.80800         4.98600        -1.95600
| 93>    H        4.78800        -2.28100        -0.18500
| 94>    H        4.86000         2.11400         1.91200
| 95>    H        6.90100         3.53100         1.77200
| 96>    H        7.38300         6.10900         0.35600
| 97>    H        8.41400         4.65200         0.43500
| 98>    H        7.92100         5.31000        -1.15000
| 99>    H        5.28300         0.33600        -0.17900
|100>    H        3.72000         3.63200        -1.96700
|101> *
|102> 
|103>                          ****END OF INPUT****
================================================================================

                       ****************************
                       * Single Point Calculation *
                       ****************************

---------------------------------
CARTESIAN COORDINATES (ANGSTROEM)
---------------------------------
  C     -4.669000    5.395000   -0.755000
  C      1.474000    4.041000    0.057000
  C     -2.802000    4.093000    0.049000
  C     -2.502000    5.154000    0.917000
  C     -3.289000    6.288000    0.924000
  C     -5.197000    7.612000    0.152000
  C      0.132000    4.307000    0.061000
  C     -0.569000    3.056000    0.047000
  C      1.649000    2.618000    0.023000
  C     -3.915000    4.238000   -0.794000
  N     -4.352000    6.399000    0.094000
  N      0.388000    2.067000    0.025000
  N     -2.010000    0.395000   -0.075000
  N     -0.388000   -2.074000   -0.027000
  N      2.010000   -0.401000    0.065000
  C     -1.960000    2.861000    0.024000
  C     -2.623000    1.615000   -0.018000
  C     -5.573000   -4.329000    1.066000
  C     -4.073000    1.471000    0.056000
  C     -4.106000   -2.756000   -0.026000
  C     -4.995000   -2.757000   -1.111000
  C     -6.132000   -3.542000   -1.076000
  C     -7.651000   -5.113000    0.040000
  C     -4.324000    0.141000    0.037000
  C     -3.025000   -0.520000   -0.048000
  C     -4.422000   -3.566000    1.075000
  N     -6.407000   -4.313000    0.001000
  C     -2.867000   -1.922000   -0.040000
  C     -1.650000   -2.624000   -0.027000
  C      3.568000   -6.142000   -1.040000
  C     -1.476000   -4.049000   -0.034000
  C      2.803000   -4.099000   -0.008000
  C      3.657000   -4.384000    1.069000
  C      4.427000   -5.530000    1.059000
  C      5.245000   -7.588000    0.014000
  C     -0.134000   -4.315000   -0.022000
  C      0.568000   -3.064000   -0.027000
  C      2.775000   -5.012000   -1.074000
  N      4.376000   -6.391000    0.017000
  C      1.959000   -2.869000   -0.009000
  C      2.621000   -1.622000    0.009000
  C      5.543000    4.339000   -1.130000
  C      4.070000   -1.479000   -0.094000
  C      4.104000    2.751000   -0.021000
  C      5.027000    2.729000    1.036000
  C      6.166000    3.509000    0.978000
  C      7.619000    5.153000   -0.115000
  C      4.321000   -0.148000   -0.092000
  C      3.025000    0.514000    0.015000
  C      4.387000    3.582000   -1.115000
  C      2.866000    1.916000    0.013000
  N      6.413000    4.296000   -0.095000
  H     -5.527000    5.554000   -1.395000
  H      2.274000    4.766000    0.081000
  H     -1.662000    5.098000    1.599000
  H     -3.102000    7.128000    1.581000
  H     -5.952000    7.483000    0.931000
  H     -4.565000    8.470000    0.380000
  H     -5.679000    7.750000   -0.816000
  H     -0.332000    5.282000    0.069000
  H     -4.190000    3.460000   -1.497000
  H      0.182000    1.072000    0.005000
  H     -0.183000   -1.080000   -0.021000
  H     -5.864000   -4.962000    1.895000
  H     -4.794000    2.272000    0.139000
  H     -4.800000   -2.160000   -1.994000
  H     -6.841000   -3.582000   -1.893000
  H     -8.428000   -4.536000    0.546000
  H     -7.956000   -5.337000   -0.981000
  H     -7.456000   -6.037000    0.584000
  H     -5.287000   -0.344000    0.100000
  H     -3.780000   -3.601000    1.947000
  H      3.587000   -6.868000   -1.843000
  H     -2.276000   -4.774000   -0.050000
  H      3.714000   -3.724000    1.926000
  H      5.092000   -5.795000    1.871000
  H      6.205000   -7.329000   -0.439000
  H      5.393000   -7.917000    1.042000
  H      4.759000   -8.373000   -0.564000
  H      0.329000   -5.290000   -0.008000
  H      2.146000   -4.842000   -1.940000
  H      5.808000    4.986000   -1.956000
  H      4.788000   -2.281000   -0.185000
  H      4.860000    2.114000    1.912000
  H      6.901000    3.531000    1.772000
  H      7.383000    6.109000    0.356000
  H      8.414000    4.652000    0.435000
  H      7.921000    5.310000   -1.150000
  H      5.283000    0.336000   -0.179000
  H      3.720000    3.632000   -1.967000

----------------------------
CARTESIAN COORDINATES (A.U.)
----------------------------
  NO LB      ZA    FRAG     MASS         X           Y           Z
   0 C     6.0000    0    12.011   -8.823131   10.195072   -1.426743
   1 C     6.0000    0    12.011    2.785456    7.636383    0.107714
   2 C     6.0000    0    12.011   -5.295013    7.734649    0.092597
   3 C     6.0000    0    12.011   -4.728095    9.739648    1.732879
   4 C     6.0000    0    12.011   -6.215309   11.882598    1.746107
   5 C     6.0000    0    12.011   -9.820907   14.384595    0.287238
   6 C     6.0000    0    12.011    0.249444    8.139050    0.115273
   7 C     6.0000    0    12.011   -1.075254    5.775003    0.088817
   8 C     6.0000    0    12.011    3.116158    4.947303    0.043464
   9 C     6.0000    0    12.011   -7.398278    8.008659   -1.500443
  10 N     7.0000    0    14.007   -8.224088   12.092358    0.177634
  11 N     7.0000    0    14.007    0.733214    3.906064    0.047243
  12 N     7.0000    0    14.007   -3.798350    0.746442   -0.141729
  13 N     7.0000    0    14.007   -0.733214   -3.919292   -0.051023
  14 N     7.0000    0    14.007    3.798350   -0.757780    0.122832
  15 C     6.0000    0    12.011   -3.703863    5.406506    0.045353
  16 C     6.0000    0    12.011   -4.956752    3.051908   -0.034015
  17 C     6.0000    0    12.011  -10.531444   -8.180624    2.014448
  18 C     6.0000    0    12.011   -7.696855    2.779787    0.105825
  19 C     6.0000    0    12.011   -7.759216   -5.208085   -0.049133
  20 C     6.0000    0    12.011   -9.439182   -5.209975   -2.099486
  21 C     6.0000    0    12.011  -11.587801   -6.693410   -2.033345
  22 C     6.0000    0    12.011  -14.458295   -9.662170    0.075589
  23 C     6.0000    0    12.011   -8.171176    0.266451    0.069920
  24 C     6.0000    0    12.011   -5.716422   -0.982658   -0.090707
  25 C     6.0000    0    12.011   -8.356369   -6.738763    2.031456
  26 N     7.0000    0    14.007  -12.107475   -8.150389    0.001890
  27 C     6.0000    0    12.011   -5.417845   -3.632054   -0.075589
  28 C     6.0000    0    12.011   -3.118048   -4.958641   -0.051023
  29 C     6.0000    0    12.011    6.742543  -11.606698   -1.965315
  30 C     6.0000    0    12.011   -2.789236   -7.651501   -0.064251
  31 C     6.0000    0    12.011    5.296902   -7.745987   -0.015118
  32 C     6.0000    0    12.011    6.910728   -8.284559    2.020117
  33 C     6.0000    0    12.011    8.365818  -10.450186    2.001220
  34 C     6.0000    0    12.011    9.911614  -14.339242    0.026456
  35 C     6.0000    0    12.011   -0.253223   -8.154168   -0.041574
  36 C     6.0000    0    12.011    1.073364   -5.790121   -0.051023
  37 C     6.0000    0    12.011    5.243990   -9.471307   -2.029566
  38 N     7.0000    0    14.007    8.269442  -12.077240    0.032125
  39 C     6.0000    0    12.011    3.701973   -5.421624   -0.017008
  40 C     6.0000    0    12.011    4.952972   -3.065136    0.017008
  41 C     6.0000    0    12.011   10.474752    8.199522   -2.135391
  42 C     6.0000    0    12.011    7.691185   -2.794905   -0.177634
  43 C     6.0000    0    12.011    7.755436    5.198637   -0.039684
  44 C     6.0000    0    12.011    9.499653    5.157063    1.957756
  45 C     6.0000    0    12.011   11.652051    6.631049    1.848152
  46 C     6.0000    0    12.011   14.397823    9.737759   -0.217319
  47 C     6.0000    0    12.011    8.165507   -0.279679   -0.173855
  48 C     6.0000    0    12.011    5.716422    0.971319    0.028346
  49 C     6.0000    0    12.011    8.290229    6.768999   -2.107045
  50 C     6.0000    0    12.011    5.415955    3.620715    0.024566
  51 N     7.0000    0    14.007   12.118814    8.118263   -0.179524
  52 H     1.0000    0     1.008  -10.444516   10.495539   -2.636168
  53 H     1.0000    0     1.008    4.297237    9.006435    0.153068
  54 H     1.0000    0     1.008   -3.140725    9.633824    3.021672
  55 H     1.0000    0     1.008   -5.861930   13.469968    2.987657
  56 H     1.0000    0     1.008  -11.247650   14.140821    1.759335
  57 H     1.0000    0     1.008   -8.626600   16.005980    0.718096
  58 H     1.0000    0     1.008  -10.731755   14.645378   -1.542017
  59 H     1.0000    0     1.008   -0.627389    9.981533    0.130391
  60 H     1.0000    0     1.008   -7.917953    6.538452   -2.828920
  61 H     1.0000    0     1.008    0.343930    2.025786    0.009449
  62 H     1.0000    0     1.008   -0.345820   -2.040904   -0.039684
  63 H     1.0000    0     1.008  -11.081354   -9.376821    3.581031
  64 H     1.0000    0     1.008   -9.059347    4.293458    0.262672
  65 H     1.0000    0     1.008   -9.070685   -4.081808   -3.768114
  66 H     1.0000    0     1.008  -12.927616   -6.768999   -3.577252
  67 H     1.0000    0     1.008  -15.926612   -8.571798    1.031790
  68 H     1.0000    0     1.008  -15.034661  -10.085468   -1.853821
  69 H     1.0000    0     1.008  -14.089798  -11.408277    1.103600
  70 H     1.0000    0     1.008   -9.990982   -0.650066    0.188973
  71 H     1.0000    0     1.008   -7.143165   -6.804904    3.679297
  72 H     1.0000    0     1.008    6.778448  -12.978639   -3.482765
  73 H     1.0000    0     1.008   -4.301017   -9.021553   -0.094486
  74 H     1.0000    0     1.008    7.018443   -7.037340    3.639613
  75 H     1.0000    0     1.008    9.622485  -10.950963    3.535678
  76 H     1.0000    0     1.008   11.725751  -13.849803   -0.829590
  77 H     1.0000    0     1.008   10.191293  -14.960962    1.969095
  78 H     1.0000    0     1.008    8.993207  -15.822677   -1.065806
  79 H     1.0000    0     1.008    0.621720   -9.996651   -0.015118
  80 H     1.0000    0     1.008    4.055352   -9.150054   -3.666069
  81 H     1.0000    0     1.008   10.975529    9.422175   -3.696304
  82 H     1.0000    0     1.008    9.048009   -4.310465   -0.349599
  83 H     1.0000    0     1.008    9.184069    3.994881    3.613156
  84 H     1.0000    0     1.008   13.041000    6.672623    3.348595
  85 H     1.0000    0     1.008   13.951848   11.544337    0.672743
  86 H     1.0000    0     1.008   15.900156    8.791006    0.822031
  87 H     1.0000    0     1.008   14.968521   10.034446   -2.173185
  88 H     1.0000    0     1.008    9.983423    0.634948   -0.338261
  89 H     1.0000    0     1.008    7.029781    6.863485   -3.717091

--------------------------------
INTERNAL COORDINATES (ANGSTROEM)
--------------------------------
 C      0   0   0     0.000000000000     0.00000000     0.00000000
 C      1   0   0     6.342642115081     0.00000000     0.00000000
 C      1   2   0     2.413981980049    24.92696525     0.00000000
 C      3   1   2     1.403262270568    87.91148772    67.98380495
 C      4   3   1     1.380352853440   120.15900141     0.18681561
 C      5   4   3     2.447329973665   152.54141403     1.49808971
 C      2   1   3     1.368114030335     7.62038641   310.49788001
 C      7   2   4     1.434084376876   108.05010202   248.75812388
 C      2   1   3     1.434123425651   109.08494857    35.28052441
 C      1   2   7     1.381552025803    45.27145574   269.56129541
 N      1   2   7     1.352518391742    81.43709579    60.86711814
 N      9   2   1     1.376127174356   106.58526707   351.24573892
 N     12   9   2     2.925062050624   168.53581413   171.12065651
 N     13  12   9     2.954513327098    91.55032014    11.12112580
 N     14  13  12     2.925371258490    88.43092389   359.84326247
 C      8   7   2     1.404790019896   127.24786865   181.11170171
 C     13  12   9     1.366535034311    81.72106996   188.00453233
 C     14  13  12     5.758810554272    80.56209567   166.76250791
 C     17  13  12     1.459010623676   111.08861209   183.82872609
 C     18  14  13     2.412235892279    27.27532823    36.33507194
 C     20  18  14     1.402692767501    87.95206320   148.94598259
 C     21  20  18     1.382106725257   120.14573887   359.70382047
 C     18  14  13     2.446510985056   144.15733107    82.80075377
 C     19  17  13     1.353610726908   106.29293361   359.75308708
 C     13  12   9     1.366813447402   172.21332906    33.46711076
 C     18  14  13     1.380960173213    15.08449437   309.23336894
 N     22  21  20     1.352773077792   120.73759875     0.27865223
 C     25  13  17     1.410897586645   125.60330303   182.37774668
 C     14  13  12     1.376642291955    80.24689249   177.85461986
 C     14  13  12     5.764089607215   164.51507311   312.20821879
 C     29  14  13     1.435600919476   106.58649366   178.76395472
 C     30  14  13     2.413316804732    27.10625047    82.12560436
 C     32  30  14     1.403734305344    87.90059683   149.76154742
 C     33  32  30     1.380694028378   120.14881443   359.74174632
 C     34  33  32     2.448777858443   152.49203239     2.45173620
 C     31  29  14     1.368160809262   108.16950133     0.70383075
 C     14  13  12     1.376239804685   169.26375223   353.09862627
 C     30  14  13     1.380907310430    14.68948582   353.70041132
 N     34  33  32     1.352658863128   120.85575621     0.19603406
 C     37  14  29     1.404717053360   126.01551127   180.90772073
 C     15  14  13     1.366491126938    81.61824056   183.09049352
 C      2   1   3     4.249062720177   151.25219154   156.08744627
 C     41  15  14     1.459677704153   111.05201287   175.08990246
 C     42   2   1     2.412953791518    41.78584867   210.73297604
 C     44  42   2     1.403446472082    87.95153797   233.97558675
 C     45  44  42     1.381696421071   120.11137308     0.19721020
 C     42   2   1     2.450019795838   135.97209175   121.04782514
 C     43  41  15     1.354461516618   106.26758155     0.30894352
 C     15  14  13     1.367461151185   171.87382904   332.35056460
 C     42   2   1     1.381886391857    32.59078432   259.58825523
 C      9   2   1     1.404988612053   126.98745415   172.25007645
 N     42   2   1     1.352765315936   113.57249190   148.78441434
 H      1   2   7     1.082148326247   151.04394788   192.44674370
 H      2   1   3     1.079907866440   125.24078010   207.61337396
 H      4   3   1     1.083448199039   121.06666120   179.47608242
 H      5   4   3     1.082690168054   122.81870552   179.47916921
 H      6   5   4     1.092477459722   104.47624603   100.16749305
 H      6   5   4     1.089757771250    84.71018499   209.64839765
 H      6   5   4     1.090133936725   133.89180892   322.49537472
 H      7   2  54     1.079807853278   126.66122480     1.30600390
 H     10   1   2     1.084028597409   118.74406839   214.40395322
 H     12   9   2     1.016297692608   125.29023241   180.00180175
 H     14  13  12     1.014936943854    44.97226959   359.42596618
 H     18  14  13     1.082871645210   128.03556573   234.20482432
 H     19  17  13     1.080893611786   126.41830519   178.11313280
 H     21  20  18     1.083569563987   121.05669627   180.67006309
 H     22  21  20     1.082483256222   122.73097286   180.59748951
 H     23  18  14     1.092105306278   103.92715769   234.93429879
 H     23  18  14     1.088871893291   134.19244188    12.25587044
 H     23  18  14     1.089833473518    84.85857450   125.45241208
 H     24  19  17     1.080075460327   127.28078426   178.44613241
 H     26  18  14     1.083408048706   118.76995697   244.94906660
 H     30  14  13     1.082703098730   127.99711412   279.66882698
 H     31  29  14     1.079759695488   125.22293469   180.92530585
 H     33  32  30     1.083188810873   121.01964473   180.74284758
 H     34  33  32     1.082494341787   122.70821597   180.59516895
 H     35  34  33     1.092652735319   105.73575241    97.19771933
 H     35  34  33     1.089462711615    84.05943581   206.43036958
 H     35  34  33     1.089268102902   133.08365142   318.50306270
 H     36  31  29     1.079439669458   126.61599965   178.98859863
 H     38  30  73     1.083742127999   118.77264435   359.90091293
 H     42   2   1     1.082178358682   119.31790784     5.41594479
 H     43  41  15     1.080281907652   126.36969097   182.06329380
 H     45  44  42     1.083277434455   121.10105945   179.58025624
 H     46  45  44     1.082194529648   122.72144639   179.46906377
 H     47  42   2     1.091546151109   106.65128841   315.16475048
 H     47  42   2     1.088818625851   132.46019523    94.52397119
 H     47  42   2     1.089531091801    83.63838232   206.04504406
 H     48  43  41     1.080402239909   127.23657387   181.62955349
 H     50  42   2     1.083186502870   118.77001737    94.71359229

---------------------------
INTERNAL COORDINATES (A.U.)
---------------------------
 C      0   0   0     0.000000000000     0.00000000     0.00000000
 C      1   0   0    11.985856562978     0.00000000     0.00000000
 C      1   2   0     4.561764834513    24.92696525     0.00000000
 C      3   1   2     2.651781385438    87.91148772    67.98380495
 C      4   3   1     2.608488861178   120.15900141     0.18681561
 C      5   4   3     4.624783409564   152.54141403     1.49808971
 C      2   1   3     2.585360837309     7.62038641   310.49788001
 C      7   2   4     2.710026725231   108.05010202   248.75812388
 C      2   1   3     2.710100516721   109.08494857    35.28052441
 C      1   2   7     2.610754968532    45.27145574   269.56129541
 N      1   2   7     2.555889351484    81.43709579    60.86711814
 N      9   2   1     2.600503484979   106.58526707   351.24573892
 N     12   9   2     5.527566200405   168.53581413   171.12065651
 N     13  12   9     5.583221047236    91.55032014    11.12112580
 N     14  13  12     5.528150518591    88.43092389   359.84326247
 C      8   7   2     2.654668413270   127.24786865   181.11170171
 C     13  12   9     2.582376967257    81.72106996   188.00453233
 C     14  13  12    10.882574804710    80.56209567   166.76250791
 C     17  13  12     2.757130505230   111.08861209   183.82872609
 C     18  14  13     4.558465206823    27.27532823    36.33507194
 C     20  18  14     2.650705180609    87.95206320   148.94598259
 C     21  20  18     2.611803198586   120.14573887   359.70382047
 C     18  14  13     4.623235745386   144.15733107    82.80075377
 C     19  17  13     2.557953565794   106.29293361   359.75308708
 C     13  12   9     2.582903091751   172.21332906    33.46711076
 C     18  14  13     2.609636529225    15.08449437   309.23336894
 N     22  21  20     2.556370638369   120.73759875     0.27865223
 C     25  13  17     2.666210041769   125.60330303   182.37774668
 C     14  13  12     2.601476916169    80.24689249   177.85461986
 C     14  13  12    10.892550769017   164.51507311   312.20821879
 C     29  14  13     2.712892575415   106.58649366   178.76395472
 C     30  14  13     4.560507835333    27.10625047    82.12560436
 C     32  30  14     2.652673401891    87.90059683   149.76154742
 C     33  32  30     2.609133588376   120.14881443   359.74174632
 C     34  33  32     4.627519515267   152.49203239     2.45173620
 C     31  29  14     2.585449236669   108.16950133     0.70383075
 C     14  13  12     2.600716325456   169.26375223   353.09862627
 C     30  14  13     2.609536633043    14.68948582   353.70041132
 N     34  33  32     2.556154803934   120.85575621     0.19603406
 C     37  14  29     2.654530526499   126.01551127   180.90772073
 C     15  14  13     2.582293994346    81.61824056   183.09049352
 C      2   1   3     8.029564866989   151.25219154   156.08744627
 C     41  15  14     2.758391104639   111.05201287   175.08990246
 C     42   2   1     4.559821839776    41.78584867   210.73297604
 C     44  42   2     2.652129475853    87.95153797   233.97558675
 C     45  44  42     2.611027836043   120.11137308     0.19721020
 C     42   2   1     4.629866436820   135.97209175   121.04782514
 C     43  41  15     2.559561325344   106.26758155     0.30894352
 C     15  14  13     2.584127074516   171.87382904   332.35056460
 C     42   2   1     2.611386828803    32.59078432   259.58825523
 C      9   2   1     2.655043698059   126.98745415   172.25007645
 N     42   2   1     2.556355970587   113.57249190   148.78441434
 H      1   2   7     2.044963972889   151.04394788   192.44674370
 H      2   1   3     2.040730117440   125.24078010   207.61337396
 H      4   3   1     2.047420376473   121.06666120   179.47608242
 H      5   4   3     2.045987905511   122.81870552   179.47916921
 H      6   5   4     2.064483206356   104.47624603   100.16749305
 H      6   5   4     2.059343739975    84.71018499   209.64839765
 H      6   5   4     2.060054589704   133.89180892   322.49537472
 H      7   2  54     2.040541119952   126.66122480     1.30600390
 H     10   1   2     2.048517170441   118.74406839   214.40395322
 H     12   9   2     1.920524309565   125.29023241   180.00180175
 H     14  13  12     1.917952867083    44.97226959   359.42596618
 H     18  14  13     2.046330847636   128.03556573   234.20482432
 H     19  17  13     2.042592906181   126.41830519   178.11313280
 H     21  20  18     2.047649722989   121.05669627   180.67006309
 H     22  21  20     2.045596898814   122.73097286   180.59748951
 H     23  18  14     2.063779938267   103.92715769   234.93429879
 H     23  18  14     2.057669673245   134.19244188    12.25587044
 H     23  18  14     2.059486796529    84.85857450   125.45241208
 H     24  19  17     2.041046823986   127.28078426   178.44613241
 H     26  18  14     2.047344503340   118.76995697   244.94906660
 H     30  14  13     2.046012340948   127.99711412   279.66882698
 H     31  29  14     2.040450114918   125.22293469   180.92530585
 H     33  32  30     2.046930203877   121.01964473   180.74284758
 H     34  33  32     2.045617847496   122.70821597   180.59516895
 H     35  34  33     2.064814429233   105.73575241    97.19771933
 H     35  34  33     2.058786158072    84.05943581   206.43036958
 H     35  34  33     2.058418400901   133.08365142   318.50306270
 H     36  31  29     2.039845353366   126.61599965   178.98859863
 H     38  30  73     2.047975821711   118.77264435   359.90091293
 H     42   2   1     2.045020725966   119.31790784     5.41594479
 H     43  41  15     2.041436952892   126.36969097   182.06329380
 H     45  44  42     2.047097678177   121.10105945   179.58025624
 H     46  45  44     2.045051284662   122.72144639   179.46906377
 H     47  42   2     2.062723288131   106.65128841   315.16475048
 H     47  42   2     2.057569012371   132.46019523    94.52397119
 H     47  42   2     2.058915377895    83.63838232   206.04504406
 H     48  43  41     2.041664347903   127.23657387   181.62955349
 H     50  42   2     2.046925842384   118.77001737    94.71359229

---------------------
BASIS SET INFORMATION
---------------------
There are 3 groups of distinct atoms

 Group   1 Type C   : 17s4p1d contracted to 3s2p1d pattern {881/31/1}
 Group   2 Type N   : 17s4p1d contracted to 3s2p1d pattern {881/31/1}
 Group   3 Type H   : 4s1p contracted to 2s1p pattern {31/1}

Atom   0C    basis set group =>   1
Atom   1N    basis set group =>   2
Atom   2C    basis set group =>   1
Atom   3N    basis set group =>   2
Atom   4C    basis set group =>   1
Atom   5N    basis set group =>   2
Atom   6C    basis set group =>   1
Atom   7N    basis set group =>   2
Atom   8C    basis set group =>   1
Atom   9N    basis set group =>   2
Atom  10C    basis set group =>   1
Atom  11N    basis set group =>   2
Atom  12C    basis set group =>   1
Atom  13N    basis set group =>   2
Atom  14C    basis set group =>   1
Atom  15N    basis set group =>   2
Atom  16C    basis set group =>   1
Atom  17C    basis set group =>   1
Atom  18C    basis set group =>   1
Atom  19C    basis set group =>   1
Atom  20C    basis set group =>   1
Atom  21C    basis set group =>   1
Atom  22C    basis set group =>   1
Atom  23C    basis set group =>   1
Atom  24C    basis set group =>   1
Atom  25C    basis set group =>   1
Atom  26C    basis set group =>   1
Atom  27C    basis set group =>   1
Atom  28C    basis set group =>   1
Atom  29C    basis set group =>   1
Atom  30C    basis set group =>   1
Atom  31C    basis set group =>   1
Atom  32C    basis set group =>   1
Atom  33C    basis set group =>   1
Atom  34C    basis set group =>   1
Atom  35C    basis set group =>   1
Atom  36C    basis set group =>   1
Atom  37C    basis set group =>   1
Atom  38C    basis set group =>   1
Atom  39C    basis set group =>   1
Atom  40C    basis set group =>   1
Atom  41C    basis set group =>   1
Atom  42C    basis set group =>   1
Atom  43C    basis set group =>   1
Atom  44C    basis set group =>   1
Atom  45C    basis set group =>   1
Atom  46C    basis set group =>   1
Atom  47C    basis set group =>   1
Atom  48C    basis set group =>   1
Atom  49C    basis set group =>   1
Atom  50C    basis set group =>   1
Atom  51C    basis set group =>   1
Atom  52H    basis set group =>   3
Atom  53H    basis set group =>   3
Atom  54H    basis set group =>   3
Atom  55H    basis set group =>   3
Atom  56H    basis set group =>   3
Atom  57H    basis set group =>   3
Atom  58H    basis set group =>   3
Atom  59H    basis set group =>   3
Atom  60H    basis set group =>   3
Atom  61H    basis set group =>   3
Atom  62H    basis set group =>   3
Atom  63H    basis set group =>   3
Atom  64H    basis set group =>   3
Atom  65H    basis set group =>   3
Atom  66H    basis set group =>   3
Atom  67H    basis set group =>   3
Atom  68H    basis set group =>   3
Atom  69H    basis set group =>   3
Atom  70H    basis set group =>   3
Atom  71H    basis set group =>   3
Atom  72H    basis set group =>   3
Atom  73H    basis set group =>   3
Atom  74H    basis set group =>   3
Atom  75H    basis set group =>   3
Atom  76H    basis set group =>   3
Atom  77H    basis set group =>   3
Atom  78H    basis set group =>   3
Atom  79H    basis set group =>   3
Atom  80H    basis set group =>   3
Atom  81H    basis set group =>   3
Atom  82H    basis set group =>   3
Atom  83H    basis set group =>   3
Atom  84H    basis set group =>   3
Atom  85H    basis set group =>   3
Atom  86H    basis set group =>   3
Atom  87H    basis set group =>   3
Atom  88H    basis set group =>   3
Atom  89H    basis set group =>   3


           ************************************************************
           *        Program running with 16 parallel MPI-processes    *
           *              working on a common directory               *
           ************************************************************
------------------------------------------------------------------------------
                           ORCA GTO INTEGRAL CALCULATION
------------------------------------------------------------------------------
------------------------------------------------------------------------------
                   ___                                                        
                  /   \      - P O W E R E D   B Y -                         
                 /     \                                                     
                 |  |  |   _    _      __       _____    __    __             
                 |  |  |  | |  | |    /  \     |  _  \  |  |  /  |          
                  \  \/   | |  | |   /    \    | | | |  |  | /  /          
                 / \  \   | |__| |  /  /\  \   | |_| |  |  |/  /          
                |  |  |   |  __  | /  /__\  \  |    /   |      \           
                |  |  |   | |  | | |   __   |  |    \   |  |\   \          
                \     /   | |  | | |  |  |  |  | |\  \  |  | \   \       
                 \___/    |_|  |_| |__|  |__|  |_| \__\ |__|  \__/        
                                                                              
                      - O R C A' S   B I G   F R I E N D -                    
                                      &                                       
                       - I N T E G R A L  F E E D E R -                       
                                                                              
 v1 FN, 2020, v2 2021                                                         
------------------------------------------------------------------------------


Reading SHARK input file /scratch/allen/tmpyp4_amber_gaff2/conf1/conf1/Conf137.orca.SHARKINP.tmp ... ok
----------------------
SHARK INTEGRAL PACKAGE
----------------------

Number of atoms                             ...     90
Number of basis functions                   ...   1230
Number of shells                            ...    738
Maximum angular momentum                    ...      2
Integral batch strategy                     ... SHARK/LIBINT Hybrid
RI-J (if used) integral strategy            ... SPLIT-RIJ (Revised 2003 algorithm where possible)
Printlevel                                  ...      1
Contraction scheme used                     ... PARTIAL GENERAL contraction
Coulomb Range Separation                    ... NOT USED
Exchange Range Separation                   ... NOT USED
Finite Nucleus Model                        ... NOT USED
Auxiliary Coulomb fitting basis             ... NOT available
Auxiliary J/K fitting basis                 ... NOT available
Auxiliary Correlation fitting basis         ... NOT available
Auxiliary 'external' fitting basis          ... NOT available
Integral threshold                          ...     2.500000e-11
Primitive cut-off                           ...     2.500000e-12
Primitive pair pre-selection threshold      ...     2.500000e-12

Calculating pre-screening integrals         ... done (  0.1 sec) Dimension = 738
Calculating pre-screening integrals (ORCA)  ... done (  0.3 sec) Dimension = 426
Organizing shell pair data                  ... done (  0.5 sec)
Shell pair information
Total number of shell pairs                 ...    272691
Shell pairs after pre-screening             ...     71629
Total number of primitive shell pairs       ...    422091
Primitive shell pairs kept                  ...     92417
          la=0 lb=0:  29421 shell pairs
          la=1 lb=0:  25974 shell pairs
          la=1 lb=1:   4706 shell pairs
          la=2 lb=0:   7876 shell pairs
          la=2 lb=1:   3122 shell pairs
          la=2 lb=2:    530 shell pairs

Calculating one electron integrals          ... done (  0.2 sec)
Calculating Nuclear repulsion               ... done (  0.0 sec) ENN=   6227.799936005862 Eh

SHARK setup successfully completed in   1.7 seconds

Maximum memory used throughout the entire GTOINT-calculation: 99.0 MB


           ************************************************************
           *        Program running with 16 parallel MPI-processes    *
           *              working on a common directory               *
           ************************************************************
-------------------------------------------------------------------------------
                                 ORCA SCF
-------------------------------------------------------------------------------

------------
SCF SETTINGS
------------
Hamiltonian:
 Ab initio Hamiltonian  Method          .... Hartree-Fock(GTOs)


General Settings:
 Integral files         IntName         .... /scratch/allen/tmpyp4_amber_gaff2/conf1/conf1/Conf137.orca
 Hartree-Fock type      HFTyp           .... RHF
 Total Charge           Charge          ....    0
 Multiplicity           Mult            ....    1
 Number of Electrons    NEL             ....  358
 Basis Dimension        Dim             ....  918
 Nuclear Repulsion      ENuc            ....   6227.7999360059 Eh

Convergence Acceleration:
 DIIS                   CNVDIIS         .... on
   Start iteration      DIISMaxIt       ....    12
   Startup error        DIISStart       ....  0.200000
   # of expansion vecs  DIISMaxEq       ....     5
   Bias factor          DIISBfac        ....   1.050
   Max. coefficient     DIISMaxC        ....  10.000
 Trust-Rad. Augm. Hess. CNVTRAH         .... auto
   Auto Start mean grad. ratio tolernc. ....  1.125000
   Auto Start start iteration           ....    20
   Auto Start num. interpolation iter.  ....    10
   Max. Number of Micro iterations      ....    16
   Max. Number of Macro iterations      .... Maxiter - #DIIS iter
   Number of Davidson start vectors     ....     2
   Converg. threshold I  (grad. norm)   ....   1.000e-05
   Converg. threshold II (energy diff.) ....   1.000e-08
   Grad. Scal. Fac. for Micro threshold ....   0.100
   Minimum threshold for Micro iter.    ....   0.010
   NR start threshold (gradient norm)   ....   0.001
   Initial trust radius                 ....   0.400
   Minimum AH scaling param. (alpha)    ....   1.000
   Maximum AH scaling param. (alpha)    .... 1000.000
   Orbital update algorithm             .... Taylor
   White noise on init. David. guess    .... on
   Maximum white noise                  ....   0.010
   Quad. conv. algorithm                .... NR
 SOSCF                  CNVSOSCF        .... on
   Start iteration      SOSCFMaxIt      ....   150
   Startup grad/error   SOSCFStart      ....  0.003300
 Level Shifting         CNVShift        .... on
   Level shift para.    LevelShift      ....    0.2500
   Turn off err/grad.   ShiftErr        ....    0.0010
 Zerner damping         CNVZerner       .... off
 Static damping         CNVDamp         .... on
   Fraction old density DampFac         ....    0.7000
   Max. Damping (<1)    DampMax         ....    0.9800
   Min. Damping (>=0)   DampMin         ....    0.0000
   Turn off err/grad.   DampErr         ....    0.1000
 Fernandez-Rico         CNVRico         .... off

SCF Procedure:
 Maximum # iterations   MaxIter         ....   125
 SCF integral mode      SCFMode         .... Direct
   Integral package                     .... SHARK and LIBINT hybrid scheme
 Reset frequency        DirectResetFreq ....    20
 Integral Threshold     Thresh          ....  2.500e-11 Eh
 Primitive CutOff       TCut            ....  2.500e-12 Eh

Convergence Tolerance:
 Convergence Check Mode ConvCheckMode   .... Total+1el-Energy
 Convergence forced     ConvForced      .... 1
 Energy Change          TolE            ....  1.000e-08 Eh
 1-El. energy change                    ....  1.000e-05 Eh
 Orbital Gradient       TolG            ....  1.000e-05
 Orbital Rotation angle TolX            ....  1.000e-05
 DIIS Error             TolErr          ....  5.000e-07


Diagonalization of the overlap matrix:
Smallest eigenvalue                        ... 2.240e-04
Time for diagonalization                   ...    0.394 sec
Threshold for overlap eigenvalues          ... 1.000e-08
Number of eigenvalues below threshold      ... 0
Time for construction of square roots      ...    0.189 sec
Total time needed                          ...    0.588 sec

Time for model grid setup =    0.999 sec

------------------------------
INITIAL GUESS: MODEL POTENTIAL
------------------------------
Loading Hartree-Fock densities                     ... done
Calculating cut-offs                               ... done
Initializing the effective Hamiltonian             ... done
Setting up the integral package (SHARK)            ... done
Starting the Coulomb interaction                   ... done (   1.1 sec)
Reading the grid                                   ... done
Mapping shells                                     ... done
Starting the XC term evaluation                    ... done (   0.2 sec)
Transforming the Hamiltonian                       ... done (   0.2 sec)
Diagonalizing the Hamiltonian                      ... done (   0.3 sec)
Back transforming the eigenvectors                 ... done (   0.1 sec)
Now organizing SCF variables                       ... done
                      ------------------
                      INITIAL GUESS DONE (   2.9 sec)
                      ------------------
--------------
SCF ITERATIONS
--------------
ITER       Energy         Delta-E        Max-DP      RMS-DP      [F,P]     Damp
               ***  Starting incremental Fock matrix formation  ***
  0  -2121.6929141998   0.000000000000 0.06871422  0.00120725  0.2325295 0.7000
  1  -2122.3525313615  -0.659617161715 0.05209343  0.00098058  0.1439640 0.7000
                               ***Turning on DIIS***
  2  -2122.7623211073  -0.409789745840 0.11899279  0.00222499  0.0802391 0.0000
  3  -2117.8498418595   4.912479247803 0.03015471  0.00067211  0.0440817 0.0000
  4  -2123.4316434372  -5.581801577679 0.00890098  0.00022583  0.0072752 0.0000
  5  -2123.5994105203  -0.167767083049 0.00514314  0.00013303  0.0049958 0.0000
  6  -2123.5823074236   0.017103096689 0.00349180  0.00008576  0.0019513 0.0000
  7  -2123.6833860856  -0.101078662068 0.00296259  0.00006735  0.0015403 0.0000
  8  -2123.6969391456  -0.013553059967 0.00309697  0.00006305  0.0014307 0.0000
  9  -2123.6642998985   0.032639247118 0.00248404  0.00004344  0.0011355 0.0000
 10  -2123.6752460457  -0.010946147246 0.00506289  0.00008773  0.0008715 0.0000
                      *** Initiating the SOSCF procedure ***
                           *** Shutting down DIIS ***
                      *** Re-Reading the Fockian *** 
                      *** Removing any level shift *** 
ITER      Energy       Delta-E        Grad      Rot      Max-DP    RMS-DP
 11  -2123.56415562   0.1110904296  0.000230  0.000230  0.000256  0.000006
               *** Restarting incremental Fock matrix formation ***
 12  -2123.62901903  -0.0648634127  0.000849  0.005711  0.001244  0.000031
 13  -2123.62910136  -0.0000823348  0.000988  0.027023  0.005953  0.000117
 14  -2123.62923547  -0.0001341099  0.000405  0.001849  0.000530  0.000012
 15  -2123.62925085  -0.0000153802  0.000180  0.003944  0.000956  0.000019
 16  -2123.62926094  -0.0000100844  0.000163  0.004117  0.000671  0.000014
 17  -2123.62926494  -0.0000040065  0.000139  0.002746  0.000374  0.000009
 18  -2123.62926704  -0.0000020928  0.000077  0.001197  0.000313  0.000005
 19  -2123.62926801  -0.0000009678  0.000052  0.000519  0.000153  0.000003
 20  -2123.62926829  -0.0000002828  0.000026  0.000474  0.000108  0.000002
 21  -2123.62926844  -0.0000001505  0.000024  0.000246  0.000077  0.000001
 22  -2123.62926852  -0.0000000807  0.000013  0.000288  0.000094  0.000002
 23  -2123.62926857  -0.0000000513  0.000008  0.000134  0.000042  0.000001
 24  -2123.62926859  -0.0000000211  0.000004  0.000091  0.000026  0.000000
 25  -2123.62926860  -0.0000000103  0.000004  0.000059  0.000015  0.000000
                  ***Gradient check signals convergence***
              ***Rediagonalizing the Fockian in SOSCF/NRSCF***

               *****************************************************
               *                     SUCCESS                       *
               *           SCF CONVERGED AFTER  26 CYCLES          *
               *****************************************************


----------------
TOTAL SCF ENERGY
----------------

Total Energy       :        -2123.62926861 Eh          -57786.89023 eV

Components:
Nuclear Repulsion  :         6227.79993601 Eh          169467.05180 eV
Electronic Energy  :        -8351.42920462 Eh         -227253.94202 eV
One Electron Energy:       -15296.55685050 Eh         -416240.47316 eV
Two Electron Energy:         6945.12764589 Eh          188986.53113 eV

Virial components:
Potential Energy   :        -4245.67249607 Eh         -115530.62208 eV
Kinetic Energy     :         2122.04322746 Eh           57743.73185 eV
Virial Ratio       :            2.00074741


---------------
SCF CONVERGENCE
---------------

  Last Energy change         ...   -7.3560e-09  Tolerance :   1.0000e-08
  Last MAX-Density change    ...    1.2968e-05  Tolerance :   1.0000e-07
  Last RMS-Density change    ...    2.6476e-07  Tolerance :   5.0000e-09
  Last Orbital Gradient      ...    2.0305e-06  Tolerance :   1.0000e-05
  Last Orbital Rotation      ...    7.0935e-05  Tolerance :   1.0000e-05

             **** THE GBW FILE WAS UPDATED (/scratch/allen/tmpyp4_amber_gaff2/conf1/conf1/Conf137.orca.gbw) ****
             **** DENSITY /scratch/allen/tmpyp4_amber_gaff2/conf1/conf1/Conf137.orca.scfp WAS UPDATED ****
             **** ENERGY FILE WAS UPDATED (/scratch/allen/tmpyp4_amber_gaff2/conf1/conf1/Conf137.orca.en.tmp) ****
             **** THE GBW FILE WAS UPDATED (/scratch/allen/tmpyp4_amber_gaff2/conf1/conf1/Conf137.orca.gbw) ****
             **** DENSITY /scratch/allen/tmpyp4_amber_gaff2/conf1/conf1/Conf137.orca.scfp WAS UPDATED ****
----------------
ORBITAL ENERGIES
----------------

  NO   OCC          E(Eh)            E(eV) 
   0   2.0000     -15.661062      -426.1592 
   1   2.0000     -15.638772      -425.5526 
   2   2.0000     -15.628439      -425.2714 
   3   2.0000     -15.600324      -424.5064 
   4   2.0000     -15.523258      -422.4093 
   5   2.0000     -15.515802      -422.2064 
   6   2.0000     -15.449075      -420.3907 
   7   2.0000     -15.443566      -420.2408 
   8   2.0000     -11.316338      -307.9332 
   9   2.0000     -11.314349      -307.8791 
  10   2.0000     -11.311950      -307.8138 
  11   2.0000     -11.302267      -307.5503 
  12   2.0000     -11.296056      -307.3813 
  13   2.0000     -11.295888      -307.3767 
  14   2.0000     -11.291934      -307.2692 
  15   2.0000     -11.287168      -307.1395 
  16   2.0000     -11.284346      -307.0627 
  17   2.0000     -11.279431      -306.9289 
  18   2.0000     -11.264404      -306.5200 
  19   2.0000     -11.263949      -306.5076 
  20   2.0000     -11.263815      -306.5040 
  21   2.0000     -11.250151      -306.1322 
  22   2.0000     -11.249238      -306.1073 
  23   2.0000     -11.242295      -305.9184 
  24   2.0000     -11.234568      -305.7081 
  25   2.0000     -11.233990      -305.6924 
  26   2.0000     -11.233097      -305.6681 
  27   2.0000     -11.226934      -305.5004 
  28   2.0000     -11.226702      -305.4941 
  29   2.0000     -11.210144      -305.0435 
  30   2.0000     -11.207398      -304.9688 
  31   2.0000     -11.206265      -304.9380 
  32   2.0000     -11.205347      -304.9130 
  33   2.0000     -11.204820      -304.8987 
  34   2.0000     -11.190773      -304.5164 
  35   2.0000     -11.190366      -304.5054 
  36   2.0000     -11.182891      -304.3019 
  37   2.0000     -11.179726      -304.2158 
  38   2.0000     -11.179118      -304.1993 
  39   2.0000     -11.174159      -304.0643 
  40   2.0000     -11.168586      -303.9127 
  41   2.0000     -11.167803      -303.8914 
  42   2.0000     -11.165669      -303.8333 
  43   2.0000     -11.164807      -303.8099 
  44   2.0000     -11.163886      -303.7848 
  45   2.0000     -11.161546      -303.7211 
  46   2.0000     -11.152525      -303.4756 
  47   2.0000     -11.149319      -303.3884 
  48   2.0000     -11.148622      -303.3694 
  49   2.0000     -11.144982      -303.2704 
  50   2.0000     -11.137069      -303.0550 
  51   2.0000     -11.131702      -302.9090 
  52   2.0000      -1.344421       -36.5836 
  53   2.0000      -1.325334       -36.0642 
  54   2.0000      -1.316554       -35.8253 
  55   2.0000      -1.293524       -35.1986 
  56   2.0000      -1.223240       -33.2860 
  57   2.0000      -1.210927       -32.9510 
  58   2.0000      -1.166771       -31.7495 
  59   2.0000      -1.155107       -31.4321 
  60   2.0000      -1.130120       -30.7521 
  61   2.0000      -1.113563       -30.3016 
  62   2.0000      -1.106136       -30.0995 
  63   2.0000      -1.087718       -29.5983 
  64   2.0000      -1.067237       -29.0410 
  65   2.0000      -1.049289       -28.5526 
  66   2.0000      -1.041280       -28.3347 
  67   2.0000      -1.032755       -28.1027 
  68   2.0000      -1.020706       -27.7748 
  69   2.0000      -1.013687       -27.5838 
  70   2.0000      -1.009358       -27.4660 
  71   2.0000      -0.993042       -27.0220 
  72   2.0000      -0.987242       -26.8642 
  73   2.0000      -0.975991       -26.5581 
  74   2.0000      -0.972904       -26.4741 
  75   2.0000      -0.958900       -26.0930 
  76   2.0000      -0.950727       -25.8706 
  77   2.0000      -0.947468       -25.7819 
  78   2.0000      -0.936875       -25.4937 
  79   2.0000      -0.921633       -25.0789 
  80   2.0000      -0.898676       -24.4542 
  81   2.0000      -0.889571       -24.2065 
  82   2.0000      -0.876232       -23.8435 
  83   2.0000      -0.869598       -23.6630 
  84   2.0000      -0.864493       -23.5241 
  85   2.0000      -0.854775       -23.2596 
  86   2.0000      -0.845156       -22.9979 
  87   2.0000      -0.838986       -22.8300 
  88   2.0000      -0.822134       -22.3714 
  89   2.0000      -0.798742       -21.7349 
  90   2.0000      -0.795085       -21.6354 
  91   2.0000      -0.743737       -20.2381 
  92   2.0000      -0.736674       -20.0459 
  93   2.0000      -0.731673       -19.9098 
  94   2.0000      -0.723156       -19.6781 
  95   2.0000      -0.719564       -19.5803 
  96   2.0000      -0.713481       -19.4148 
  97   2.0000      -0.705429       -19.1957 
  98   2.0000      -0.701677       -19.0936 
  99   2.0000      -0.696122       -18.9424 
 100   2.0000      -0.693129       -18.8610 
 101   2.0000      -0.681657       -18.5488 
 102   2.0000      -0.678979       -18.4759 
 103   2.0000      -0.674307       -18.3488 
 104   2.0000      -0.672043       -18.2872 
 105   2.0000      -0.670682       -18.2502 
 106   2.0000      -0.664082       -18.0706 
 107   2.0000      -0.662707       -18.0332 
 108   2.0000      -0.656800       -17.8724 
 109   2.0000      -0.654069       -17.7981 
 110   2.0000      -0.650062       -17.6891 
 111   2.0000      -0.647015       -17.6062 
 112   2.0000      -0.643232       -17.5032 
 113   2.0000      -0.636679       -17.3249 
 114   2.0000      -0.632472       -17.2104 
 115   2.0000      -0.630961       -17.1693 
 116   2.0000      -0.623361       -16.9625 
 117   2.0000      -0.616083       -16.7645 
 118   2.0000      -0.613787       -16.7020 
 119   2.0000      -0.611899       -16.6506 
 120   2.0000      -0.608610       -16.5611 
 121   2.0000      -0.601621       -16.3710 
 122   2.0000      -0.599220       -16.3056 
 123   2.0000      -0.589411       -16.0387 
 124   2.0000      -0.588475       -16.0132 
 125   2.0000      -0.584453       -15.9038 
 126   2.0000      -0.578358       -15.7379 
 127   2.0000      -0.576897       -15.6982 
 128   2.0000      -0.563028       -15.3208 
 129   2.0000      -0.558439       -15.1959 
 130   2.0000      -0.554124       -15.0785 
 131   2.0000      -0.549481       -14.9521 
 132   2.0000      -0.542304       -14.7569 
 133   2.0000      -0.538554       -14.6548 
 134   2.0000      -0.534270       -14.5382 
 135   2.0000      -0.533278       -14.5112 
 136   2.0000      -0.525060       -14.2876 
 137   2.0000      -0.523824       -14.2540 
 138   2.0000      -0.517739       -14.0884 
 139   2.0000      -0.516036       -14.0420 
 140   2.0000      -0.509857       -13.8739 
 141   2.0000      -0.509473       -13.8635 
 142   2.0000      -0.508610       -13.8400 
 143   2.0000      -0.502113       -13.6632 
 144   2.0000      -0.500564       -13.6210 
 145   2.0000      -0.497291       -13.5320 
 146   2.0000      -0.494018       -13.4429 
 147   2.0000      -0.486938       -13.2503 
 148   2.0000      -0.485854       -13.2208 
 149   2.0000      -0.469079       -12.7643 
 150   2.0000      -0.463394       -12.6096 
 151   2.0000      -0.455445       -12.3933 
 152   2.0000      -0.448262       -12.1978 
 153   2.0000      -0.446948       -12.1621 
 154   2.0000      -0.445813       -12.1312 
 155   2.0000      -0.440185       -11.9781 
 156   2.0000      -0.433183       -11.7875 
 157   2.0000      -0.428796       -11.6681 
 158   2.0000      -0.399037       -10.8584 
 159   2.0000      -0.385131       -10.4799 
 160   2.0000      -0.379115       -10.3162 
 161   2.0000      -0.375038       -10.2053 
 162   2.0000      -0.370817       -10.0904 
 163   2.0000      -0.359796        -9.7905 
 164   2.0000      -0.353164        -9.6101 
 165   2.0000      -0.337474        -9.1831 
 166   2.0000      -0.336566        -9.1584 
 167   2.0000      -0.333805        -9.0833 
 168   2.0000      -0.328468        -8.9381 
 169   2.0000      -0.301725        -8.2104 
 170   2.0000      -0.299792        -8.1578 
 171   2.0000      -0.287263        -7.8168 
 172   2.0000      -0.284901        -7.7526 
 173   2.0000      -0.258874        -7.0443 
 174   2.0000      -0.246010        -6.6943 
 175   2.0000      -0.189282        -5.1506 
 176   2.0000      -0.179438        -4.8828 
 177   2.0000      -0.071244        -1.9386 
 178   2.0000      -0.056838        -1.5466 
 179   0.0000       0.029300         0.7973 
 180   0.0000       0.068346         1.8598 
 181   0.0000       0.092418         2.5148 
 182   0.0000       0.103995         2.8298 
 183   0.0000       0.118761         3.2317 
 184   0.0000       0.134062         3.6480 
 185   0.0000       0.141671         3.8551 
 186   0.0000       0.150714         4.1011 
 187   0.0000       0.161084         4.3833 
 188   0.0000       0.162526         4.4225 
 189   0.0000       0.163697         4.4544 
 190   0.0000       0.167716         4.5638 
 191   0.0000       0.181521         4.9394 
 192   0.0000       0.190287         5.1780 
 193   0.0000       0.193706         5.2710 
 194   0.0000       0.202261         5.5038 
 195   0.0000       0.205731         5.5982 
 196   0.0000       0.207798         5.6545 
 197   0.0000       0.210815         5.7366 
 198   0.0000       0.221364         6.0236 
 199   0.0000       0.225640         6.1400 
 200   0.0000       0.226194         6.1551 
 201   0.0000       0.237081         6.4513 
 202   0.0000       0.241666         6.5761 
 203   0.0000       0.243291         6.6203 
 204   0.0000       0.251957         6.8561 
 205   0.0000       0.254270         6.9190 
 206   0.0000       0.255352         6.9485 
 207   0.0000       0.259954         7.0737 
 208   0.0000       0.262169         7.1340 
 209   0.0000       0.262214         7.1352 
 210   0.0000       0.265947         7.2368 
 211   0.0000       0.270651         7.3648 
 212   0.0000       0.271307         7.3826 
 213   0.0000       0.273376         7.4390 
 214   0.0000       0.275858         7.5065 
 215   0.0000       0.278641         7.5822 
 216   0.0000       0.279873         7.6157 
 217   0.0000       0.281466         7.6591 
 218   0.0000       0.283488         7.7141 
 219   0.0000       0.289077         7.8662 
 220   0.0000       0.289642         7.8816 
 221   0.0000       0.293338         7.9821 
 222   0.0000       0.293764         7.9937 
 223   0.0000       0.296867         8.0782 
 224   0.0000       0.297844         8.1047 
 225   0.0000       0.299973         8.1627 
 226   0.0000       0.306630         8.3438 
 227   0.0000       0.308206         8.3867 
 228   0.0000       0.310008         8.4357 
 229   0.0000       0.316539         8.6135 
 230   0.0000       0.319588         8.6964 
 231   0.0000       0.324735         8.8365 
 232   0.0000       0.326193         8.8762 
 233   0.0000       0.330397         8.9906 
 234   0.0000       0.337157         9.1745 
 235   0.0000       0.344091         9.3632 
 236   0.0000       0.355133         9.6636 
 237   0.0000       0.382050        10.3961 
 238   0.0000       0.394918        10.7463 
 239   0.0000       0.398196        10.8355 
 240   0.0000       0.402772        10.9600 
 241   0.0000       0.415328        11.3016 
 242   0.0000       0.418019        11.3749 
 243   0.0000       0.423060        11.5120 
 244   0.0000       0.426718        11.6116 
 245   0.0000       0.432911        11.7801 
 246   0.0000       0.434508        11.8236 
 247   0.0000       0.438426        11.9302 
 248   0.0000       0.441913        12.0251 
 249   0.0000       0.443899        12.0791 
 250   0.0000       0.451438        12.2843 
 251   0.0000       0.458675        12.4812 
 252   0.0000       0.460796        12.5389 
 253   0.0000       0.463635        12.6161 
 254   0.0000       0.469702        12.7812 
 255   0.0000       0.474392        12.9089 
 256   0.0000       0.482659        13.1338 
 257   0.0000       0.483329        13.1521 
 258   0.0000       0.489796        13.3280 
 259   0.0000       0.498212        13.5570 
 260   0.0000       0.501553        13.6480 
 261   0.0000       0.503939        13.7129 
 262   0.0000       0.507242        13.8028 
 263   0.0000       0.508994        13.8504 
 264   0.0000       0.513230        13.9657 
 265   0.0000       0.517191        14.0735 
 266   0.0000       0.519190        14.1279 
 267   0.0000       0.523881        14.2555 
 268   0.0000       0.535103        14.5609 
 269   0.0000       0.537566        14.6279 
 270   0.0000       0.540586        14.7101 
 271   0.0000       0.545755        14.8507 
 272   0.0000       0.547945        14.9103 
 273   0.0000       0.554834        15.0978 
 274   0.0000       0.559695        15.2301 
 275   0.0000       0.564239        15.3537 
 276   0.0000       0.571484        15.5509 
 277   0.0000       0.575698        15.6655 
 278   0.0000       0.579887        15.7795 
 279   0.0000       0.584712        15.9108 
 280   0.0000       0.586943        15.9715 
 281   0.0000       0.590572        16.0703 
 282   0.0000       0.592360        16.1189 
 283   0.0000       0.596768        16.2389 
 284   0.0000       0.598517        16.2865 
 285   0.0000       0.599111        16.3026 
 286   0.0000       0.607987        16.5442 
 287   0.0000       0.611913        16.6510 
 288   0.0000       0.615936        16.7605 
 289   0.0000       0.617424        16.8010 
 290   0.0000       0.627230        17.0678 
 291   0.0000       0.627836        17.0843 
 292   0.0000       0.634198        17.2574 
 293   0.0000       0.635911        17.3040 
 294   0.0000       0.646070        17.5805 
 295   0.0000       0.650180        17.6923 
 296   0.0000       0.654348        17.8057 
 297   0.0000       0.657743        17.8981 
 298   0.0000       0.664871        18.0921 
 299   0.0000       0.666671        18.1410 
 300   0.0000       0.669283        18.2121 
 301   0.0000       0.671572        18.2744 
 302   0.0000       0.678852        18.4725 
 303   0.0000       0.681940        18.5565 
 304   0.0000       0.683249        18.5921 
 305   0.0000       0.686349        18.6765 
 306   0.0000       0.691103        18.8059 
 307   0.0000       0.692935        18.8557 
 308   0.0000       0.695306        18.9202 
 309   0.0000       0.697232        18.9727 
 310   0.0000       0.700340        19.0572 
 311   0.0000       0.703859        19.1530 
 312   0.0000       0.705966        19.2103 
 313   0.0000       0.709728        19.3127 
 314   0.0000       0.711569        19.3628 
 315   0.0000       0.713583        19.4176 
 316   0.0000       0.716940        19.5089 
 317   0.0000       0.717773        19.5316 
 318   0.0000       0.720973        19.6187 
 319   0.0000       0.725946        19.7540 
 320   0.0000       0.726686        19.7741 
 321   0.0000       0.728802        19.8317 
 322   0.0000       0.734541        19.9879 
 323   0.0000       0.736727        20.0474 
 324   0.0000       0.739399        20.1201 
 325   0.0000       0.740492        20.1498 
 326   0.0000       0.741091        20.1661 
 327   0.0000       0.743898        20.2425 
 328   0.0000       0.747419        20.3383 
 329   0.0000       0.750915        20.4334 
 330   0.0000       0.752313        20.4715 
 331   0.0000       0.754753        20.5379 
 332   0.0000       0.758702        20.6453 
 333   0.0000       0.762793        20.7566 
 334   0.0000       0.768998        20.9255 
 335   0.0000       0.774828        21.0841 
 336   0.0000       0.777392        21.1539 
 337   0.0000       0.779941        21.2233 
 338   0.0000       0.785838        21.3837 
 339   0.0000       0.790569        21.5125 
 340   0.0000       0.791550        21.5392 
 341   0.0000       0.792768        21.5723 
 342   0.0000       0.795388        21.6436 
 343   0.0000       0.799975        21.7684 
 344   0.0000       0.804661        21.8959 
 345   0.0000       0.806445        21.9445 
 346   0.0000       0.807575        21.9752 
 347   0.0000       0.809063        22.0157 
 348   0.0000       0.814968        22.1764 
 349   0.0000       0.816991        22.2315 
 350   0.0000       0.821169        22.3451 
 351   0.0000       0.823499        22.4086 
 352   0.0000       0.824787        22.4436 
 353   0.0000       0.827046        22.5051 
 354   0.0000       0.830152        22.5896 
 355   0.0000       0.832907        22.6646 
 356   0.0000       0.833858        22.6904 
 357   0.0000       0.834621        22.7112 
 358   0.0000       0.836710        22.7680 
 359   0.0000       0.838567        22.8186 
 360   0.0000       0.841784        22.9061 
 361   0.0000       0.842615        22.9287 
 362   0.0000       0.843755        22.9597 
 363   0.0000       0.844080        22.9686 
 364   0.0000       0.849532        23.1169 
 365   0.0000       0.852095        23.1867 
 366   0.0000       0.854729        23.2583 
 367   0.0000       0.855555        23.2808 
 368   0.0000       0.862017        23.4567 
 369   0.0000       0.864300        23.5188 
 370   0.0000       0.865171        23.5425 
 371   0.0000       0.871756        23.7217 
 372   0.0000       0.875140        23.8138 
 373   0.0000       0.877895        23.8888 
 374   0.0000       0.879257        23.9258 
 375   0.0000       0.882922        24.0255 
 376   0.0000       0.884917        24.0798 
 377   0.0000       0.889615        24.2077 
 378   0.0000       0.891268        24.2526 
 379   0.0000       0.893876        24.3236 
 380   0.0000       0.898007        24.4360 
 381   0.0000       0.898726        24.4556 
 382   0.0000       0.902356        24.5544 
 383   0.0000       0.903358        24.5816 
 384   0.0000       0.903759        24.5925 
 385   0.0000       0.905285        24.6340 
 386   0.0000       0.907501        24.6944 
 387   0.0000       0.909949        24.7610 
 388   0.0000       0.910889        24.7865 
 389   0.0000       0.914341        24.8805 
 390   0.0000       0.917846        24.9759 
 391   0.0000       0.922784        25.1102 
 392   0.0000       0.923607        25.1326 
 393   0.0000       0.924355        25.1530 
 394   0.0000       0.927141        25.2288 
 395   0.0000       0.930004        25.3067 
 396   0.0000       0.932376        25.3712 
 397   0.0000       0.933708        25.4075 
 398   0.0000       0.940525        25.5930 
 399   0.0000       0.941570        25.6214 
 400   0.0000       0.943162        25.6647 
 401   0.0000       0.949040        25.8247 
 402   0.0000       0.950588        25.8668 
 403   0.0000       0.956260        26.0212 
 404   0.0000       0.957649        26.0590 
 405   0.0000       0.958963        26.0947 
 406   0.0000       0.960340        26.1322 
 407   0.0000       0.963834        26.2273 
 408   0.0000       0.969571        26.3834 
 409   0.0000       0.972605        26.4659 
 410   0.0000       0.977162        26.5899 
 411   0.0000       0.981257        26.7014 
 412   0.0000       0.984515        26.7900 
 413   0.0000       0.986128        26.8339 
 414   0.0000       0.988419        26.8963 
 415   0.0000       0.996638        27.1199 
 416   0.0000       1.002254        27.2727 
 417   0.0000       1.003354        27.3027 
 418   0.0000       1.005598        27.3637 
 419   0.0000       1.016466        27.6595 
 420   0.0000       1.021816        27.8050 
 421   0.0000       1.028355        27.9830 
 422   0.0000       1.032188        28.0873 
 423   0.0000       1.041270        28.3344 
 424   0.0000       1.044317        28.4173 
 425   0.0000       1.051804        28.6210 
 426   0.0000       1.057166        28.7669 
 427   0.0000       1.061669        28.8895 
 428   0.0000       1.064032        28.9538 
 429   0.0000       1.070907        29.1409 
 430   0.0000       1.077052        29.3081 
 431   0.0000       1.083182        29.4749 
 432   0.0000       1.084111        29.5002 
 433   0.0000       1.088736        29.6260 
 434   0.0000       1.099357        29.9150 
 435   0.0000       1.104224        30.0475 
 436   0.0000       1.106462        30.1084 
 437   0.0000       1.109778        30.1986 
 438   0.0000       1.114959        30.3396 
 439   0.0000       1.116206        30.3735 
 440   0.0000       1.121932        30.5293 
 441   0.0000       1.123948        30.5842 
 442   0.0000       1.126762        30.6608 
 443   0.0000       1.128898        30.7189 
 444   0.0000       1.132053        30.8047 
 445   0.0000       1.133348        30.8400 
 446   0.0000       1.137038        30.9404 
 447   0.0000       1.142062        31.0771 
 448   0.0000       1.145435        31.1689 
 449   0.0000       1.148568        31.2541 
 450   0.0000       1.150767        31.3140 
 451   0.0000       1.152089        31.3499 
 452   0.0000       1.157193        31.4888 
 453   0.0000       1.157508        31.4974 
 454   0.0000       1.161868        31.6160 
 455   0.0000       1.170115        31.8405 
 456   0.0000       1.172307        31.9001 
 457   0.0000       1.177231        32.0341 
 458   0.0000       1.179472        32.0951 
 459   0.0000       1.186255        32.2796 
 460   0.0000       1.187678        32.3184 
 461   0.0000       1.194020        32.4909 
 462   0.0000       1.200982        32.6804 
 463   0.0000       1.202896        32.7325 
 464   0.0000       1.206498        32.8305 
 465   0.0000       1.208615        32.8881 
 466   0.0000       1.213055        33.0089 
 467   0.0000       1.214517        33.0487 
 468   0.0000       1.221897        33.2495 
 469   0.0000       1.227602        33.4047 
 470   0.0000       1.229559        33.4580 
 471   0.0000       1.232119        33.5277 
 472   0.0000       1.234840        33.6017 
 473   0.0000       1.235915        33.6309 
 474   0.0000       1.242076        33.7986 
 475   0.0000       1.246714        33.9248 
 476   0.0000       1.251737        34.0615 
 477   0.0000       1.252148        34.0727 
 478   0.0000       1.253703        34.1150 
 479   0.0000       1.255266        34.1575 
 480   0.0000       1.259387        34.2697 
 481   0.0000       1.264363        34.4051 
 482   0.0000       1.269776        34.5524 
 483   0.0000       1.272769        34.6338 
 484   0.0000       1.272997        34.6400 
 485   0.0000       1.276543        34.7365 
 486   0.0000       1.279210        34.8091 
 487   0.0000       1.282912        34.9098 
 488   0.0000       1.287424        35.0326 
 489   0.0000       1.290736        35.1227 
 490   0.0000       1.294684        35.2301 
 491   0.0000       1.297406        35.3042 
 492   0.0000       1.299640        35.3650 
 493   0.0000       1.304849        35.5068 
 494   0.0000       1.310665        35.6650 
 495   0.0000       1.314684        35.7744 
 496   0.0000       1.316400        35.8211 
 497   0.0000       1.324193        36.0331 
 498   0.0000       1.324546        36.0427 
 499   0.0000       1.329105        36.1668 
 500   0.0000       1.333866        36.2963 
 501   0.0000       1.336002        36.3545 
 502   0.0000       1.340291        36.4712 
 503   0.0000       1.348542        36.6957 
 504   0.0000       1.349885        36.7322 
 505   0.0000       1.350815        36.7576 
 506   0.0000       1.352405        36.8008 
 507   0.0000       1.358926        36.9783 
 508   0.0000       1.362783        37.0832 
 509   0.0000       1.363898        37.1135 
 510   0.0000       1.365533        37.1580 
 511   0.0000       1.368627        37.2422 
 512   0.0000       1.372821        37.3564 
[...]
      pz      :     0.022048  p :     0.079688
      px      :     0.043476
      py      :     0.014164
 77 H s       :     0.886641  s :     0.886641
      pz      :     0.047821  p :     0.079106
      px      :     0.015018
      py      :     0.016268
 78 H s       :     0.887064  s :     0.887064
      pz      :     0.025799  p :     0.079053
      px      :     0.020501
      py      :     0.032753
 79 H s       :     0.909705  s :     0.909705
      pz      :     0.021942  p :     0.086518
      px      :     0.021710
      py      :     0.042866
 80 H s       :     0.867458  s :     0.867458
      pz      :     0.039149  p :     0.084505
      px      :     0.030125
      py      :     0.015232
 81 H s       :     0.887195  s :     0.887195
      pz      :     0.037781  p :     0.084017
      px      :     0.016180
      py      :     0.030056
 82 H s       :     0.915837  s :     0.915837
      pz      :     0.022048  p :     0.086776
      px      :     0.031507
      py      :     0.033222
 83 H s       :     0.873474  s :     0.873474
      pz      :     0.039229  p :     0.084015
      px      :     0.015275
      py      :     0.029511
 84 H s       :     0.887222  s :     0.887222
      pz      :     0.035754  p :     0.083560
      px      :     0.031695
      py      :     0.016110
 85 H s       :     0.893530  s :     0.893530
      pz      :     0.022486  p :     0.079750
      px      :     0.014090
      py      :     0.043175
 86 H s       :     0.891117  s :     0.891117
      pz      :     0.024720  p :     0.078823
      px      :     0.032971
      py      :     0.021132
 87 H s       :     0.890155  s :     0.890155
      pz      :     0.047982  p :     0.078710
      px      :     0.015594
      py      :     0.015133
 88 H s       :     0.912032  s :     0.912032
      pz      :     0.021853  p :     0.087009
      px      :     0.042735
      py      :     0.022421
 89 H s       :     0.871709  s :     0.871709
      pz      :     0.037930  p :     0.083848
      px      :     0.030472
      py      :     0.015446


                      *****************************
                      * MAYER POPULATION ANALYSIS *
                      *****************************

  NA   - Mulliken gross atomic population
  ZA   - Total nuclear charge
  QA   - Mulliken gross atomic charge
  VA   - Mayer's total valence
  BVA  - Mayer's bonded valence
  FA   - Mayer's free valence

  ATOM       NA         ZA         QA         VA         BVA        FA
  0 C      5.7952     6.0000     0.2048     3.8380     3.8380     0.0000
  1 N      7.4514     7.0000    -0.4514     3.3365     3.3365    -0.0000
  2 C      6.0640     6.0000    -0.0640     3.9209     3.9209    -0.0000
  3 N      7.3360     7.0000    -0.3360     3.4558     3.4558    -0.0000
  4 C      6.0561     6.0000    -0.0561     3.9893     3.9893    -0.0000
  5 N      7.5608     7.0000    -0.5608     3.0928     3.0928     0.0000
  6 C      6.1007     6.0000    -0.1007     4.0083     4.0083     0.0000
  7 N      7.3395     7.0000    -0.3395     3.4365     3.4365    -0.0000
  8 C      5.7962     6.0000     0.2038     3.8388     3.8388     0.0000
  9 N      7.5627     7.0000    -0.5627     3.0806     3.0806    -0.0000
 10 C      5.8823     6.0000     0.1177     3.9053     3.9053     0.0000
 11 N      7.4375     7.0000    -0.4375     3.3836     3.3836     0.0000
 12 C      6.0790     6.0000    -0.0790     3.9150     3.9150     0.0000
 13 N      7.4338     7.0000    -0.4338     3.4078     3.4078     0.0000
 14 C      5.7680     6.0000     0.2320     3.7814     3.7814    -0.0000
 15 N      7.4413     7.0000    -0.4413     3.3698     3.3698    -0.0000
 16 C      5.7698     6.0000     0.2302     3.7827     3.7827    -0.0000
 17 C      6.0985     6.0000    -0.0985     4.0081     4.0081    -0.0000
 18 C      6.1848     6.0000    -0.1848     3.7679     3.7679    -0.0000
 19 C      5.7811     6.0000     0.2189     3.8648     3.8648     0.0000
 20 C      5.7873     6.0000     0.2127     3.8272     3.8272    -0.0000
 21 C      6.0877     6.0000    -0.0877     3.9083     3.9083     0.0000
 22 C      6.0877     6.0000    -0.0877     3.9822     3.9822    -0.0000
 23 C      6.0433     6.0000    -0.0433     3.9915     3.9915     0.0000
 24 C      5.8003     6.0000     0.1997     3.8220     3.8220    -0.0000
 25 C      5.8861     6.0000     0.1139     3.8898     3.8898     0.0000
 26 C      6.0739     6.0000    -0.0739     3.9061     3.9061    -0.0000
 27 C      5.7854     6.0000     0.2146     3.8706     3.8706    -0.0000
 28 C      6.0576     6.0000    -0.0576     3.9884     3.9884     0.0000
 29 C      6.1814     6.0000    -0.1814     3.7416     3.7416    -0.0000
 30 C      5.7585     6.0000     0.2415     3.7961     3.7961    -0.0000
 31 C      5.7769     6.0000     0.2231     3.8219     3.8219    -0.0000
 32 C      6.0626     6.0000    -0.0626     3.9215     3.9215     0.0000
 33 C      6.0694     6.0000    -0.0694     3.9779     3.9779    -0.0000
 34 C      6.0496     6.0000    -0.0496     3.9874     3.9874    -0.0000
 35 C      5.7829     6.0000     0.2171     3.8202     3.8202    -0.0000
 36 C      5.8893     6.0000     0.1107     3.8818     3.8818     0.0000
 37 C      6.0652     6.0000    -0.0652     3.9175     3.9175     0.0000
 38 C      5.7654     6.0000     0.2346     3.8012     3.8012    -0.0000
 39 C      6.0601     6.0000    -0.0601     3.9865     3.9865    -0.0000
 40 C      6.1838     6.0000    -0.1838     3.7328     3.7328    -0.0000
 41 C      5.7775     6.0000     0.2225     3.8839     3.8839     0.0000
 42 C      5.8011     6.0000     0.1989     3.8268     3.8268     0.0000
 43 C      6.0732     6.0000    -0.0732     3.9010     3.9010    -0.0000
 44 C      6.0907     6.0000    -0.0907     3.9856     3.9856     0.0000
 45 C      6.0583     6.0000    -0.0583     3.9924     3.9924    -0.0000
 46 C      5.7927     6.0000     0.2073     3.8278     3.8278     0.0000
 47 C      5.8843     6.0000     0.1157     3.8940     3.8940    -0.0000
 48 C      6.0705     6.0000    -0.0705     3.9073     3.9073    -0.0000
 49 C      5.7667     6.0000     0.2333     3.8906     3.8906    -0.0000
 50 C      6.0489     6.0000    -0.0489     3.9906     3.9906    -0.0000
 51 C      6.1920     6.0000    -0.1920     3.7369     3.7369    -0.0000
 52 H      0.9560     1.0000     0.0440     0.9859     0.9859     0.0000
 53 H      1.0156     1.0000    -0.0156     0.9985     0.9985    -0.0000
 54 H      0.9510     1.0000     0.0490     1.0091     1.0091     0.0000
 55 H      0.9568     1.0000     0.0432     0.9864     0.9864    -0.0000
 56 H      0.9481     1.0000     0.0519     0.9702     0.9702     0.0000
 57 H      0.9496     1.0000     0.0504     0.9825     0.9825     0.0000
 58 H      0.9504     1.0000     0.0496     0.9855     0.9855     0.0000
 59 H      1.0025     1.0000    -0.0025     1.0024     1.0024    -0.0000
 60 H      0.9527     1.0000     0.0473     1.0123     1.0123    -0.0000
 61 H      0.8285     1.0000     0.1715     1.0420     1.0420    -0.0000
 62 H      0.8253     1.0000     0.1747     1.0436     1.0436    -0.0000
 63 H      0.9431     1.0000     0.0569     0.9852     0.9852    -0.0000
 64 H      1.0096     1.0000    -0.0096     0.9970     0.9970    -0.0000
 65 H      0.9530     1.0000     0.0470     1.0096     1.0096    -0.0000
 66 H      0.9428     1.0000     0.0572     0.9852     0.9852     0.0000
 67 H      0.9365     1.0000     0.0635     0.9720     0.9720    -0.0000
 68 H      0.9419     1.0000     0.0581     0.9868     0.9868     0.0000
 69 H      0.9420     1.0000     0.0580     0.9829     0.9829    -0.0000
 70 H      1.0270     1.0000    -0.0270     0.9930     0.9930     0.0000
 71 H      0.9528     1.0000     0.0472     1.0062     1.0062     0.0000
 72 H      0.9348     1.0000     0.0652     0.9842     0.9842     0.0000
 73 H      1.0104     1.0000    -0.0104     0.9999     0.9999     0.0000
 74 H      0.9452     1.0000     0.0548     1.0101     1.0101    -0.0000
 75 H      0.9357     1.0000     0.0643     0.9846     0.9846     0.0000
 76 H      0.9304     1.0000     0.0696     0.9720     0.9720     0.0000
 77 H      0.9361     1.0000     0.0639     0.9853     0.9853     0.0000
 78 H      0.9370     1.0000     0.0630     0.9851     0.9851     0.0000
 79 H      1.0149     1.0000    -0.0149     0.9985     0.9985    -0.0000
 80 H      0.9447     1.0000     0.0553     1.0071     1.0071    -0.0000
 81 H      0.9465     1.0000     0.0535     0.9856     0.9856     0.0000
 82 H      1.0248     1.0000    -0.0248     0.9936     0.9936    -0.0000
 83 H      0.9585     1.0000     0.0415     1.0087     1.0087    -0.0000
 84 H      0.9470     1.0000     0.0530     0.9854     0.9854    -0.0000
 85 H      0.9405     1.0000     0.0595     0.9715     0.9715    -0.0000
 86 H      0.9446     1.0000     0.0554     0.9839     0.9839    -0.0000
 87 H      0.9434     1.0000     0.0566     0.9856     0.9856    -0.0000
 88 H      1.0175     1.0000    -0.0175     0.9959     0.9959    -0.0000
 89 H      0.9541     1.0000     0.0459     1.0069     1.0069     0.0000

  Mayer bond orders larger than 0.100000
B(  0-C ,  1-N ) :   1.0940 B(  0-C , 17-C ) :   1.6866 B(  0-C , 52-H ) :   0.9684 
B(  1-N ,  8-C ) :   1.0934 B(  1-N , 10-C ) :   0.9740 B(  2-C , 12-C ) :   1.5211 
B(  2-C , 16-C ) :   1.3424 B(  2-C , 53-H ) :   0.9769 B(  3-N , 14-C ) :   1.2140 
B(  3-N , 16-C ) :   1.1932 B(  3-N , 61-H ) :   0.8993 B(  4-C ,  6-C ) :   1.2236 
B(  4-C , 17-C ) :   1.2238 B(  4-C , 18-C ) :   1.3806 B(  5-N , 19-C ) :   1.4428 
B(  5-N , 27-C ) :   1.3877 B(  6-C ,  8-C ) :   1.6861 B(  6-C , 54-H ) :   0.9670 
B(  7-N , 30-C ) :   1.1935 B(  7-N , 38-C ) :   1.1958 B(  7-N , 62-H ) :   0.8972 
B(  8-C , 55-H ) :   0.9694 B(  9-N , 41-C ) :   1.3972 B(  9-N , 49-C ) :   1.4248 
B( 10-C , 56-H ) :   0.9765 B( 10-C , 57-H ) :   0.9829 B( 10-C , 58-H ) :   0.9833 
B( 11-N , 20-C ) :   1.1306 B( 11-N , 24-C ) :   1.1155 B( 11-N , 25-C ) :   0.9582 
B( 12-C , 14-C ) :   1.3448 B( 12-C , 59-H ) :   0.9750 B( 13-N , 31-C ) :   1.1466 
B( 13-N , 35-C ) :   1.1402 B( 13-N , 36-C ) :   0.9491 B( 14-C , 18-C ) :   1.1543 
B( 15-N , 42-C ) :   1.1092 B( 15-N , 46-C ) :   1.1187 B( 15-N , 47-C ) :   0.9625 
B( 16-C , 51-C ) :   1.1822 B( 17-C , 60-H ) :   0.9669 B( 18-C , 19-C ) :   1.1620 
B( 19-C , 21-C ) :   1.2319 B( 20-C , 28-C ) :   1.6239 B( 20-C , 63-H ) :   0.9701 
B( 21-C , 26-C ) :   1.6271 B( 21-C , 64-H ) :   0.9713 B( 22-C , 23-C ) :   1.2896 
B( 22-C , 28-C ) :   1.2705 B( 22-C , 29-C ) :   1.2208 B( 23-C , 24-C ) :   1.6164 
B( 23-C , 65-H ) :   0.9706 B( 24-C , 66-H ) :   0.9693 B( 25-C , 67-H ) :   0.9761 
B( 25-C , 68-H ) :   0.9828 B( 25-C , 69-H ) :   0.9822 B( 26-C , 27-C ) :   1.2264 
B( 26-C , 70-H ) :   0.9718 B( 27-C , 29-C ) :   1.2206 B( 28-C , 71-H ) :   0.9717 
B( 29-C , 30-C ) :   1.2323 B( 30-C , 32-C ) :   1.2915 B( 31-C , 39-C ) :   1.6060 
B( 31-C , 72-H ) :   0.9688 B( 32-C , 37-C ) :   1.5675 B( 32-C , 73-H ) :   0.9782 
B( 33-C , 34-C ) :   1.2951 B( 33-C , 39-C ) :   1.2880 B( 33-C , 40-C ) :   1.2047 
B( 34-C , 35-C ) :   1.6025 B( 34-C , 74-H ) :   0.9699 B( 35-C , 75-H ) :   0.9688 
B( 36-C , 76-H ) :   0.9765 B( 36-C , 77-H ) :   0.9818 B( 36-C , 78-H ) :   0.9827 
B( 37-C , 38-C ) :   1.2946 B( 37-C , 79-H ) :   0.9771 B( 38-C , 40-C ) :   1.2245 
B( 39-C , 80-H ) :   0.9710 B( 40-C , 41-C ) :   1.2371 B( 41-C , 43-C ) :   1.1988 
B( 42-C , 50-C ) :   1.6354 B( 42-C , 81-H ) :   0.9696 B( 43-C , 48-C ) :   1.6528 
B( 43-C , 82-H ) :   0.9727 B( 44-C , 45-C ) :   1.2644 B( 44-C , 50-C ) :   1.2685 
B( 44-C , 51-C ) :   1.2628 B( 45-C , 46-C ) :   1.6360 B( 45-C , 83-H ) :   0.9716 
B( 46-C , 84-H ) :   0.9702 B( 47-C , 85-H ) :   0.9762 B( 47-C , 86-H ) :   0.9829 
B( 47-C , 87-H ) :   0.9825 B( 48-C , 49-C ) :   1.2013 B( 48-C , 88-H ) :   0.9745 
B( 49-C , 51-C ) :   1.2289 B( 50-C , 89-H ) :   0.9711 

-------
TIMINGS
-------

Total SCF time: 0 days 0 hours 21 min 24 sec 

Total time                  ....    1284.876 sec
Sum of individual times     ....    1281.239 sec  ( 99.7%)

Fock matrix formation       ....    1261.701 sec  ( 98.2%)
Diagonalization             ....       6.619 sec  (  0.5%)
Density matrix formation    ....       0.343 sec  (  0.0%)
Population analysis         ....       0.424 sec  (  0.0%)
Initial guess               ....       1.916 sec  (  0.1%)
Orbital Transformation      ....       0.000 sec  (  0.0%)
Orbital Orthonormalization  ....       0.000 sec  (  0.0%)
DIIS solution               ....       2.895 sec  (  0.2%)
SOSCF solution              ....       6.342 sec  (  0.5%)

Maximum memory used throughout the entire SCF-calculation: 302.6 MB


           ************************************************************
           *        Program running with 16 parallel MPI-processes    *
           *              working on a common directory               *
           ************************************************************

------------------------------------------------------------------------------
                                ORCA  MP2 
------------------------------------------------------------------------------

Freezing NCore=104 chemical core electrons

----------
MP2 ENERGY (disk based algorithm)
----------

Dimension of the basis                    ...  918
Memory devoted to MP2                     ... 2000 MB   
Data format for buffers                   ... DOUBLE
Compression type for matrix containers    ... UNCOMPRESSED

-------------------------------
PARTIAL EXCHANGE TRANSFORMATION
-------------------------------

Transformation type                        ... one-operator
Generation of integrals (i,mue|j,nue)      ... ON
Generation of integrals (mue,kappa|nue,tau)... OFF
Generation of integrals (i,mue|a,nue)      ... OFF
Dimension of the basis                     ...  918
Number of internal MOs                     ...  127 (  52- 178)
Pair cutoff                                ... 2.500e-12 Eh
Number of AO pairs in the trafo            ... 421821
Total Number of distinct AO pairs          ... 421821
Memory devoted for trafo                   ... 2000.0 MB 
Max. Number of MO pairs treated together   ...  311      
Number Format for Storage                  ... Double (8 Byte)
Integral package used                      ... LIBINT

Starting integral evaluation:
    ... done with AO integral generation
Closing buffer AOK     (38.23 GB; CompressionRatio= 1.33)
Collecting buffer AOK 
Number of MO pairs included in the trafo   ... 8128
------------------------
SORTING OF (i,mue|j,nue)
------------------------

IBATCH = 1 of  2
IBATCH = 2 of  2
Closing buffer KAO     (51.03 GB; CompressionRatio= 1.00)
Collecting buffer KAO 
N(AO-Batches) Done                         ...  85712510 
N(AO-Batches) Skipped                      ...  82210002 
N(IJ)-pairs Skipped                        ...         0 
TOTAL TIME for half transformation         ...  2482.902 sec
AO-integral generation                     ...   177.477 sec
Half transformation                        ...   314.789 sec
K-integral sorting                         ...  1842.550 sec
Process 10:   Internal MO 132
Process 13:   Internal MO 156

Finished integral transformation - now doing MP2 part

OPERATOR COMBINATION   0   0: ij=( 52..178, 52..178)
Process  7:   Internal MO 108
Process  1:   Internal MO  60
Process  4:   Internal MO  84
Process  0:   Internal MO  54
Process  2:   Internal MO  69
Process  0:   Internal MO  57
Process  1:   Internal MO  63
Process  5:   Internal MO  93
Process  3:   Internal MO  78
Process  2:   Internal MO  72
Process  8:   Internal MO 117
Process  1:   Internal MO  66
Process  4:   Internal MO  87
Process  6:   Internal MO 102
Process 11:   Internal MO 141
Process 14:   Internal MO 165
Process  9:   Internal MO 126
Process  2:   Internal MO  75
Process  3:   Internal MO  81
Process  7:   Internal MO 111
Process  4:   Internal MO  90
Process  5:   Internal MO  96
Process 10:   Internal MO 135
Process 15:   Internal MO 174
Process  6:   Internal MO 105
Process  8:   Internal MO 120
Process  7:   Internal MO 114
Process 13:   Internal MO 159
Process  5:   Internal MO  99
Process  9:   Internal MO 129
Process 14:   Internal MO 168
Process 11:   Internal MO 144
Process 12:   Internal MO 150
Process 10:   Internal MO 138
Process  8:   Internal MO 123
Process 15:   Internal MO 177
Process 13:   Internal MO 162
Process 11:   Internal MO 147
Process 12:   Internal MO 153
Process 14:   Internal MO 171
-----------------------------------------------
 MP2 CORRELATION ENERGY   :     -7.284335931 Eh
-----------------------------------------------


-------
TIMINGS
-------
Total time                : 2774.825 sec
Integral trafo            : 2484.949 sec ( 89.6%)
K(i,j)                    :    6.446 sec (  0.2%)
T(i,j)                    :    0.104 sec (  0.0%)

---------------------------------------
MP2 TOTAL ENERGY:    -2130.913604541 Eh
---------------------------------------

Maximum memory used throughout the entire MP2-calculation: 2275.2 MB

-------------------------   --------------------
FINAL SINGLE POINT ENERGY     -2130.913604540578
-------------------------   --------------------


                            ***************************************
                            *     ORCA property calculations      *
                            ***************************************


  WARNING: The energy has been calculated at the MP2 level but the densities
           used in the property calculations are still SCF densities
           MP2 response densities have not been calculated 
           use %mp2 Density relaxed end
           or  %mp2 Density unrelaxed end

                                    ---------------------
                                    Active property flags
                                    ---------------------
   (+) Dipole Moment


------------------------------------------------------------------------------
                       ORCA ELECTRIC PROPERTIES CALCULATION
------------------------------------------------------------------------------

Dipole Moment Calculation                       ... on
Quadrupole Moment Calculation                   ... off
Polarizability Calculation                      ... off
GBWName                                         ... /scratch/allen/tmpyp4_amber_gaff2/conf1/conf1/Conf137.orca.gbw
Electron density                                ... /scratch/allen/tmpyp4_amber_gaff2/conf1/conf1/Conf137.orca.scfp
The origin for moment calculation is the CENTER OF MASS  = ( 0.003147, -0.001944  0.002522)

-------------
DIPOLE MOMENT
-------------
                                X             Y             Z
Electronic contribution:      1.35156      -3.05703      -0.22021
Nuclear contribution   :      0.02047       0.19890       0.22728
                        -----------------------------------------
Total Dipole Moment    :      1.37202      -2.85813       0.00708
                        -----------------------------------------
Magnitude (a.u.)       :      3.17040
Magnitude (Debye)      :      8.05851



--------------------
Rotational spectrum 
--------------------
 
Rotational constants in cm-1:     0.001499     0.001476     0.000761 
Rotational constants in MHz :    44.941894    44.260083    22.825162 

 Dipole components along the rotational axes: 
x,y,z [a.u.] :     2.147955    -2.331864     0.011421 
x,y,z [Debye]:     5.459667    -5.927128     0.029030 

 

Timings for individual modules:

Sum of individual times         ...     4082.975 sec (=  68.050 min)
GTO integral calculation        ...        2.604 sec (=   0.043 min)   0.1 %
SCF iterations                  ...     1285.782 sec (=  21.430 min)  31.5 %
MP2 module                      ...     2794.589 sec (=  46.576 min)  68.4 %
                             ****ORCA TERMINATED NORMALLY****
TOTAL RUN TIME: 0 days 1 hours 8 minutes 6 seconds 197 msec
# of primitive gaussian functions

