
                                 *****************
                                 * O   R   C   A *
                                 *****************

                                            #,                                       
                                            ###                                      
                                            ####                                     
                                            #####                                    
                                            ######                                   
                                           ########,                                 
                                     ,,################,,,,,                         
                               ,,#################################,,                 
                          ,,##########################################,,             
                       ,#########################################, ''#####,          
                    ,#############################################,,   '####,        
                  ,##################################################,,,,####,       
                ,###########''''           ''''###############################       
              ,#####''   ,,,,##########,,,,          '''####'''          '####       
            ,##' ,,,,###########################,,,                        '##       
           ' ,,###''''                  '''############,,,                           
         ,,##''                                '''############,,,,        ,,,,,,###''
      ,#''                                            '''#######################'''  
     '                                                          ''''####''''         
             ,#######,   #######,   ,#######,      ##                                
            ,#'     '#,  ##    ##  ,#'     '#,    #''#        ######   ,####,        
            ##       ##  ##   ,#'  ##            #'  '#       #        #'  '#        
            ##       ##  #######   ##           ,######,      #####,   #    #        
            '#,     ,#'  ##    ##  '#,     ,#' ,#      #,         ##   #,  ,#        
             '#######'   ##     ##  '#######'  #'      '#     #####' # '####'        



                  #######################################################
                  #                        -***-                        #
                  #          Department of theory and spectroscopy      #
                  #    Directorship and core code : Frank Neese         #
                  #        Max Planck Institute fuer Kohlenforschung    #
                  #                Kaiser Wilhelm Platz 1               #
                  #                 D-45470 Muelheim/Ruhr               #
                  #                      Germany                        #
                  #                                                     #
                  #                  All rights reserved                #
                  #                        -***-                        #
                  #######################################################


                         Program Version 5.0.4 -  RELEASE  -


 With contributions from (in alphabetic order):
   Daniel Aravena         : Magnetic Suceptibility
   Michael Atanasov       : Ab Initio Ligand Field Theory (pilot matlab implementation)
   Alexander A. Auer      : GIAO ZORA, VPT2 properties, NMR spectrum
   Ute Becker             : Parallelization
   Giovanni Bistoni       : ED, misc. LED, open-shell LED, HFLD
   Martin Brehm           : Molecular dynamics
   Dmytro Bykov           : SCF Hessian
   Vijay G. Chilkuri      : MRCI spin determinant printing, contributions to CSF-ICE
   Dipayan Datta          : RHF DLPNO-CCSD density
   Achintya Kumar Dutta   : EOM-CC, STEOM-CC
   Dmitry Ganyushin       : Spin-Orbit,Spin-Spin,Magnetic field MRCI
   Miquel Garcia          : C-PCM and meta-GGA Hessian, CC/C-PCM, Gaussian charge scheme
   Yang Guo               : DLPNO-NEVPT2, F12-NEVPT2, CIM, IAO-localization
   Andreas Hansen         : Spin unrestricted coupled pair/coupled cluster methods
   Benjamin Helmich-Paris : MC-RPA, TRAH-SCF, COSX integrals
   Lee Huntington         : MR-EOM, pCC
   Robert Izsak           : Overlap fitted RIJCOSX, COSX-SCS-MP3, EOM
   Marcus Kettner         : VPT2
   Christian Kollmar      : KDIIS, OOCD, Brueckner-CCSD(T), CCSD density, CASPT2, CASPT2-K
   Simone Kossmann        : Meta GGA functionals, TD-DFT gradient, OOMP2, MP2 Hessian
   Martin Krupicka        : Initial AUTO-CI
   Lucas Lang             : DCDCAS
   Marvin Lechner         : AUTO-CI (C++ implementation), FIC-MRCC
   Dagmar Lenk            : GEPOL surface, SMD
   Dimitrios Liakos       : Extrapolation schemes; Compound Job, initial MDCI parallelization
   Dimitrios Manganas     : Further ROCIS development; embedding schemes
   Dimitrios Pantazis     : SARC Basis sets
   Anastasios Papadopoulos: AUTO-CI, single reference methods and gradients
   Taras Petrenko         : DFT Hessian,TD-DFT gradient, ASA, ECA, R-Raman, ABS, FL, XAS/XES, NRVS
   Peter Pinski           : DLPNO-MP2, DLPNO-MP2 Gradient
   Christoph Reimann      : Effective Core Potentials
   Marius Retegan         : Local ZFS, SOC
   Christoph Riplinger    : Optimizer, TS searches, QM/MM, DLPNO-CCSD(T), (RO)-DLPNO pert. Triples
   Tobias Risthaus        : Range-separated hybrids, TD-DFT gradient, RPA, STAB
   Michael Roemelt        : Original ROCIS implementation
   Masaaki Saitow         : Open-shell DLPNO-CCSD energy and density
   Barbara Sandhoefer     : DKH picture change effects
   Avijit Sen             : IP-ROCIS
   Kantharuban Sivalingam : CASSCF convergence, NEVPT2, FIC-MRCI
   Bernardo de Souza      : ESD, SOC TD-DFT
   Georgi Stoychev        : AutoAux, RI-MP2 NMR, DLPNO-MP2 response
   Willem Van den Heuvel  : Paramagnetic NMR
   Boris Wezisla          : Elementary symmetry handling
   Frank Wennmohs         : Technical directorship


 We gratefully acknowledge several colleagues who have allowed us to
 interface, adapt or use parts of their codes:
   Stefan Grimme, W. Hujo, H. Kruse, P. Pracht,  : VdW corrections, initial TS optimization,
                  C. Bannwarth, S. Ehlert          DFT functionals, gCP, sTDA/sTD-DF
   Ed Valeev, F. Pavosevic, A. Kumar             : LibInt (2-el integral package), F12 methods
   Garnet Chan, S. Sharma, J. Yang, R. Olivares  : DMRG
   Ulf Ekstrom                                   : XCFun DFT Library
   Mihaly Kallay                                 : mrcc  (arbitrary order and MRCC methods)
   Jiri Pittner, Ondrej Demel                    : Mk-CCSD
   Frank Weinhold                                : gennbo (NPA and NBO analysis)
   Christopher J. Cramer and Donald G. Truhlar   : smd solvation model
   Lars Goerigk                                  : TD-DFT with DH, B97 family of functionals
   V. Asgeirsson, H. Jonsson                     : NEB implementation
   FAccTs GmbH                                   : IRC, NEB, NEB-TS, DLPNO-Multilevel, CI-OPT
                                                   MM, QMMM, 2- and 3-layer-ONIOM, Crystal-QMMM,
                                                   LR-CPCM, SF, NACMEs, symmetry and pop. for TD-DFT,
                                                   nearIR, NL-DFT gradient (VV10), updates on ESD,
                                                   ML-optimized integration grids
   S Lehtola, MJT Oliveira, MAL Marques          : LibXC Library
   Liviu Ungur et al                             : ANISO software


 Your calculation uses the libint2 library for the computation of 2-el integrals
 For citations please refer to: http://libint.valeyev.net

 Your ORCA version has been built with support for libXC version: 5.1.0
 For citations please refer to: https://tddft.org/programs/libxc/

 This ORCA versions uses:
   CBLAS   interface :  Fast vector & matrix operations
   LAPACKE interface :  Fast linear algebra routines
   SCALAPACK package :  Parallel linear algebra routines
   Shared memory     :  Shared parallel matrices
   BLAS/LAPACK       :  OpenBLAS 0.3.15  USE64BITINT DYNAMIC_ARCH NO_AFFINITY Sandybridge SINGLE_THREADED
        Core in use  :  Sandybridge
   Copyright (c) 2011-2014, The OpenBLAS Project


================================================================================

----- Orbital basis set information -----
Your calculation utilizes the basis: cc-pVDZ 
       H, B-Ne : Obtained from the ccRepo (grant-hill.group.shef.ac.uk/ccrepo) Feb. 2017
                 T. H. Dunning, Jr., J. Chem. Phys. 90, 1007 (1989)
            He : Obtained from the ccRepo (grant-hill.group.shef.ac.uk/ccrepo) Feb. 2017
                 D. E. Woon, T. H. Dunning, Jr., J. Chem. Phys. 100, 2975 (1994)
  Li-Be, Na-Mg : Obtained from the ccRepo (grant-hill.group.shef.ac.uk/ccrepo) Feb. 2017
                 B. P. Prascher, D. E. Woon, K. A. Peterson, T. H. Dunning, Jr., A. K. Wilson, Theor. Chem. Acc. 128, 69 (2011)
         Al-Ar : Obtained from the ccRepo (grant-hill.group.shef.ac.uk/ccrepo) Feb. 2017
                 D. E. Woon, T. H. Dunning, Jr., J. Chem. Phys. 98, 1358 (1993)
            Ca : Obtained from the Peterson Research Group Website (tyr0.chem.wsu.edu/~kipeters) Feb. 2017
                 J. Koput, K. A. Peterson, J. Phys. Chem. 106, 9595 (2002)
         Sc-Zn : Obtained from the ccRepo (grant-hill.group.shef.ac.uk/ccrepo) Feb. 2017
                 N. B. Balabanov, K. A. Peterson, J. Chem. Phys. 123, 064107 (2005)
                 N. B. Balabanov, K. A. Peterson, J. Chem. Phys. 125, 074110 (2006)
         Ga-Kr : Obtained from the ccRepo (grant-hill.group.shef.ac.uk/ccrepo) Feb. 2017
                 A. K. Wilson, D. E. Woon, K. A. Peterson, T. H. Dunning, Jr., J. Chem. Phys. 110, 7667 (1999)

================================================================================
                                        WARNINGS
                       Please study these warnings very carefully!
================================================================================


WARNING: No MP2 level density has been requested!
         To caclulate MP2 level properties use
         %mp2 Density relaxed end
         or
         %mp2 Density unrelaxed end

WARNING: Post HF methods need fully converged wavefunctions
  ===> : Setting SCFConvForced true
         You can overwrite this default with %scf ConvForced false 


INFO   : the flag for use of the SHARK integral package has been found!

================================================================================
                                       INPUT FILE
================================================================================
NAME = /scratch/allen/tmpyp4_amber_gaff2/2.Mdgx/conf11/conf11/Conf310.orca
|  1> ! PAL2
|  2> ! mp2 cc-pvdz TightSCF  NoKeepInts
|  3> 
|  4> %scf
|  5>   MaxCore 2000
|  6> end
|  7> %mp2
|  8>   MaxCore 2000
|  9> end
| 10> * xyz 0 1
| 11>    C       -3.40000         6.22600         1.00700
| 12>    C        1.47400         4.04100         0.05700
| 13>    C       -2.80200         4.09300         0.04900
| 14>    C       -3.83500         4.28000        -0.88300
| 15>    C       -4.60700         5.42300        -0.84200
| 16>    C       -5.20800         7.60600         0.08800
| 17>    C        0.13200         4.30700         0.06100
| 18>    C       -0.56900         3.05600         0.04700
| 19>    C        1.64900         2.61800         0.02300
| 20>    C       -2.59700         5.10200         1.00300
| 21>    N       -4.38800         6.37500         0.09500
| 22>    N        0.38800         2.06700         0.02500
| 23>    N       -2.01000         0.39500        -0.07500
| 24>    N       -0.38800        -2.07400        -0.02700
| 25>    N        2.01000        -0.40100         0.06500
| 26>    C       -1.96000         2.86100         0.02400
| 27>    C       -2.62300         1.61500        -0.01800
| 28>    C       -5.57300        -4.32900         1.06600
| 29>    C       -4.07300         1.47100         0.05600
| 30>    C       -4.10600        -2.75600        -0.02600
| 31>    C       -4.99500        -2.75700        -1.11100
| 32>    C       -6.13200        -3.54200        -1.07600
| 33>    C       -7.65100        -5.11300         0.04000
| 34>    C       -4.32400         0.14100         0.03700
| 35>    C       -3.02500        -0.52000        -0.04800
| 36>    C       -4.42200        -3.56600         1.07500
| 37>    N       -6.40700        -4.31300         0.00100
| 38>    C       -2.86700        -1.92200        -0.04000
| 39>    C       -1.65000        -2.62400        -0.02700
| 40>    C        3.56800        -6.14200        -1.04000
| 41>    C       -1.47600        -4.04900        -0.03400
| 42>    C        2.80300        -4.09900        -0.00800
| 43>    C        3.65700        -4.38400         1.06900
| 44>    C        4.42700        -5.53000         1.05900
| 45>    C        5.24500        -7.58800         0.01400
| 46>    C       -0.13400        -4.31500        -0.02200
| 47>    C        0.56800        -3.06400        -0.02700
| 48>    C        2.77500        -5.01200        -1.07400
| 49>    N        4.37600        -6.39100         0.01700
| 50>    C        1.95900        -2.86900        -0.00900
| 51>    C        2.62100        -1.62200         0.00900
| 52>    C        5.54300         4.33900        -1.13000
| 53>    C        4.07000        -1.47900        -0.09400
| 54>    C        4.10400         2.75100        -0.02100
| 55>    C        5.02700         2.72900         1.03600
| 56>    C        6.16600         3.50900         0.97800
| 57>    C        7.61900         5.15300        -0.11500
| 58>    C        4.32100        -0.14800        -0.09200
| 59>    C        3.02500         0.51400         0.01500
| 60>    C        4.38700         3.58200        -1.11500
| 61>    C        2.86600         1.91600         0.01300
| 62>    N        6.41300         4.29600        -0.09500
| 63>    H       -3.28600         7.02300         1.73100
| 64>    H        2.27400         4.76600         0.08100
| 65>    H       -4.03600         3.54100        -1.64900
| 66>    H       -5.40800         5.61500        -1.54400
| 67>    H       -4.76100         8.32700        -0.59900
| 68>    H       -6.21700         7.35300        -0.23700
| 69>    H       -5.23300         8.01600         1.09700
| 70>    H       -0.33200         5.28200         0.06900
| 71>    H       -1.82500         5.01000         1.75800
| 72>    H        0.18200         1.07200         0.00500
| 73>    H       -0.18300        -1.08000        -0.02100
| 74>    H       -5.86400        -4.96200         1.89500
| 75>    H       -4.79400         2.27200         0.13900
| 76>    H       -4.80000        -2.16000        -1.99400
| 77>    H       -6.84100        -3.58200        -1.89300
| 78>    H       -8.42800        -4.53600         0.54600
| 79>    H       -7.95600        -5.33700        -0.98100
| 80>    H       -7.45600        -6.03700         0.58400
| 81>    H       -5.28700        -0.34400         0.10000
| 82>    H       -3.78000        -3.60100         1.94700
| 83>    H        3.58700        -6.86800        -1.84300
| 84>    H       -2.27600        -4.77400        -0.05000
| 85>    H        3.71400        -3.72400         1.92600
| 86>    H        5.09200        -5.79500         1.87100
| 87>    H        6.20500        -7.32900        -0.43900
| 88>    H        5.39300        -7.91700         1.04200
| 89>    H        4.75900        -8.37300        -0.56400
| 90>    H        0.32900        -5.29000        -0.00800
| 91>    H        2.14600        -4.84200        -1.94000
| 92>    H        5.80800         4.98600        -1.95600
| 93>    H        4.78800        -2.28100        -0.18500
| 94>    H        4.86000         2.11400         1.91200
| 95>    H        6.90100         3.53100         1.77200
| 96>    H        7.38300         6.10900         0.35600
| 97>    H        8.41400         4.65200         0.43500
| 98>    H        7.92100         5.31000        -1.15000
| 99>    H        5.28300         0.33600        -0.17900
|100>    H        3.72000         3.63200        -1.96700
|101> *
|102> 
|103>                          ****END OF INPUT****
================================================================================

                       ****************************
                       * Single Point Calculation *
                       ****************************

---------------------------------
CARTESIAN COORDINATES (ANGSTROEM)
---------------------------------
  C     -3.400000    6.226000    1.007000
  C      1.474000    4.041000    0.057000
  C     -2.802000    4.093000    0.049000
  C     -3.835000    4.280000   -0.883000
  C     -4.607000    5.423000   -0.842000
  C     -5.208000    7.606000    0.088000
  C      0.132000    4.307000    0.061000
  C     -0.569000    3.056000    0.047000
  C      1.649000    2.618000    0.023000
  C     -2.597000    5.102000    1.003000
  N     -4.388000    6.375000    0.095000
  N      0.388000    2.067000    0.025000
  N     -2.010000    0.395000   -0.075000
  N     -0.388000   -2.074000   -0.027000
  N      2.010000   -0.401000    0.065000
  C     -1.960000    2.861000    0.024000
  C     -2.623000    1.615000   -0.018000
  C     -5.573000   -4.329000    1.066000
  C     -4.073000    1.471000    0.056000
  C     -4.106000   -2.756000   -0.026000
  C     -4.995000   -2.757000   -1.111000
  C     -6.132000   -3.542000   -1.076000
  C     -7.651000   -5.113000    0.040000
  C     -4.324000    0.141000    0.037000
  C     -3.025000   -0.520000   -0.048000
  C     -4.422000   -3.566000    1.075000
  N     -6.407000   -4.313000    0.001000
  C     -2.867000   -1.922000   -0.040000
  C     -1.650000   -2.624000   -0.027000
  C      3.568000   -6.142000   -1.040000
  C     -1.476000   -4.049000   -0.034000
  C      2.803000   -4.099000   -0.008000
  C      3.657000   -4.384000    1.069000
  C      4.427000   -5.530000    1.059000
  C      5.245000   -7.588000    0.014000
  C     -0.134000   -4.315000   -0.022000
  C      0.568000   -3.064000   -0.027000
  C      2.775000   -5.012000   -1.074000
  N      4.376000   -6.391000    0.017000
  C      1.959000   -2.869000   -0.009000
  C      2.621000   -1.622000    0.009000
  C      5.543000    4.339000   -1.130000
  C      4.070000   -1.479000   -0.094000
  C      4.104000    2.751000   -0.021000
  C      5.027000    2.729000    1.036000
  C      6.166000    3.509000    0.978000
  C      7.619000    5.153000   -0.115000
  C      4.321000   -0.148000   -0.092000
  C      3.025000    0.514000    0.015000
  C      4.387000    3.582000   -1.115000
  C      2.866000    1.916000    0.013000
  N      6.413000    4.296000   -0.095000
  H     -3.286000    7.023000    1.731000
  H      2.274000    4.766000    0.081000
  H     -4.036000    3.541000   -1.649000
  H     -5.408000    5.615000   -1.544000
  H     -4.761000    8.327000   -0.599000
  H     -6.217000    7.353000   -0.237000
  H     -5.233000    8.016000    1.097000
  H     -0.332000    5.282000    0.069000
  H     -1.825000    5.010000    1.758000
  H      0.182000    1.072000    0.005000
  H     -0.183000   -1.080000   -0.021000
  H     -5.864000   -4.962000    1.895000
  H     -4.794000    2.272000    0.139000
  H     -4.800000   -2.160000   -1.994000
  H     -6.841000   -3.582000   -1.893000
  H     -8.428000   -4.536000    0.546000
  H     -7.956000   -5.337000   -0.981000
  H     -7.456000   -6.037000    0.584000
  H     -5.287000   -0.344000    0.100000
  H     -3.780000   -3.601000    1.947000
  H      3.587000   -6.868000   -1.843000
  H     -2.276000   -4.774000   -0.050000
  H      3.714000   -3.724000    1.926000
  H      5.092000   -5.795000    1.871000
  H      6.205000   -7.329000   -0.439000
  H      5.393000   -7.917000    1.042000
  H      4.759000   -8.373000   -0.564000
  H      0.329000   -5.290000   -0.008000
  H      2.146000   -4.842000   -1.940000
  H      5.808000    4.986000   -1.956000
  H      4.788000   -2.281000   -0.185000
  H      4.860000    2.114000    1.912000
  H      6.901000    3.531000    1.772000
  H      7.383000    6.109000    0.356000
  H      8.414000    4.652000    0.435000
  H      7.921000    5.310000   -1.150000
  H      5.283000    0.336000   -0.179000
  H      3.720000    3.632000   -1.967000

----------------------------
CARTESIAN COORDINATES (A.U.)
----------------------------
  NO LB      ZA    FRAG     MASS         X           Y           Z
   0 C     6.0000    0    12.011   -6.425069   11.765435    1.902954
   1 C     6.0000    0    12.011    2.785456    7.636383    0.107714
   2 C     6.0000    0    12.011   -5.295013    7.734649    0.092597
   3 C     6.0000    0    12.011   -7.247100    8.088028   -1.668628
   4 C     6.0000    0    12.011   -8.705968   10.247985   -1.591149
   5 C     6.0000    0    12.011   -9.841694   14.373257    0.166296
   6 C     6.0000    0    12.011    0.249444    8.139050    0.115273
   7 C     6.0000    0    12.011   -1.075254    5.775003    0.088817
   8 C     6.0000    0    12.011    3.116158    4.947303    0.043464
   9 C     6.0000    0    12.011   -4.907619    9.641383    1.895395
  10 N     7.0000    0    14.007   -8.292118   12.047004    0.179524
  11 N     7.0000    0    14.007    0.733214    3.906064    0.047243
  12 N     7.0000    0    14.007   -3.798350    0.746442   -0.141729
  13 N     7.0000    0    14.007   -0.733214   -3.919292   -0.051023
  14 N     7.0000    0    14.007    3.798350   -0.757780    0.122832
  15 C     6.0000    0    12.011   -3.703863    5.406506    0.045353
  16 C     6.0000    0    12.011   -4.956752    3.051908   -0.034015
  17 C     6.0000    0    12.011  -10.531444   -8.180624    2.014448
  18 C     6.0000    0    12.011   -7.696855    2.779787    0.105825
  19 C     6.0000    0    12.011   -7.759216   -5.208085   -0.049133
  20 C     6.0000    0    12.011   -9.439182   -5.209975   -2.099486
  21 C     6.0000    0    12.011  -11.587801   -6.693410   -2.033345
  22 C     6.0000    0    12.011  -14.458295   -9.662170    0.075589
  23 C     6.0000    0    12.011   -8.171176    0.266451    0.069920
  24 C     6.0000    0    12.011   -5.716422   -0.982658   -0.090707
  25 C     6.0000    0    12.011   -8.356369   -6.738763    2.031456
  26 N     7.0000    0    14.007  -12.107475   -8.150389    0.001890
  27 C     6.0000    0    12.011   -5.417845   -3.632054   -0.075589
  28 C     6.0000    0    12.011   -3.118048   -4.958641   -0.051023
  29 C     6.0000    0    12.011    6.742543  -11.606698   -1.965315
  30 C     6.0000    0    12.011   -2.789236   -7.651501   -0.064251
  31 C     6.0000    0    12.011    5.296902   -7.745987   -0.015118
  32 C     6.0000    0    12.011    6.910728   -8.284559    2.020117
  33 C     6.0000    0    12.011    8.365818  -10.450186    2.001220
  34 C     6.0000    0    12.011    9.911614  -14.339242    0.026456
  35 C     6.0000    0    12.011   -0.253223   -8.154168   -0.041574
  36 C     6.0000    0    12.011    1.073364   -5.790121   -0.051023
  37 C     6.0000    0    12.011    5.243990   -9.471307   -2.029566
  38 N     7.0000    0    14.007    8.269442  -12.077240    0.032125
  39 C     6.0000    0    12.011    3.701973   -5.421624   -0.017008
  40 C     6.0000    0    12.011    4.952972   -3.065136    0.017008
  41 C     6.0000    0    12.011   10.474752    8.199522   -2.135391
  42 C     6.0000    0    12.011    7.691185   -2.794905   -0.177634
  43 C     6.0000    0    12.011    7.755436    5.198637   -0.039684
  44 C     6.0000    0    12.011    9.499653    5.157063    1.957756
  45 C     6.0000    0    12.011   11.652051    6.631049    1.848152
  46 C     6.0000    0    12.011   14.397823    9.737759   -0.217319
  47 C     6.0000    0    12.011    8.165507   -0.279679   -0.173855
  48 C     6.0000    0    12.011    5.716422    0.971319    0.028346
  49 C     6.0000    0    12.011    8.290229    6.768999   -2.107045
  50 C     6.0000    0    12.011    5.415955    3.620715    0.024566
  51 N     7.0000    0    14.007   12.118814    8.118263   -0.179524
  52 H     1.0000    0     1.008   -6.209640   13.271547    3.271116
  53 H     1.0000    0     1.008    4.297237    9.006435    0.153068
  54 H     1.0000    0     1.008   -7.626935    6.691520   -3.116158
  55 H     1.0000    0     1.008  -10.219639   10.610812   -2.917737
  56 H     1.0000    0     1.008   -8.996986   15.735750   -1.131946
  57 H     1.0000    0     1.008  -11.748427   13.895156   -0.447865
  58 H     1.0000    0     1.008   -9.888937   15.148045    2.073030
  59 H     1.0000    0     1.008   -0.627389    9.981533    0.130391
  60 H     1.0000    0     1.008   -3.448750    9.467528    3.322139
  61 H     1.0000    0     1.008    0.343930    2.025786    0.009449
  62 H     1.0000    0     1.008   -0.345820   -2.040904   -0.039684
  63 H     1.0000    0     1.008  -11.081354   -9.376821    3.581031
  64 H     1.0000    0     1.008   -9.059347    4.293458    0.262672
  65 H     1.0000    0     1.008   -9.070685   -4.081808   -3.768114
  66 H     1.0000    0     1.008  -12.927616   -6.768999   -3.577252
  67 H     1.0000    0     1.008  -15.926612   -8.571798    1.031790
  68 H     1.0000    0     1.008  -15.034661  -10.085468   -1.853821
  69 H     1.0000    0     1.008  -14.089798  -11.408277    1.103600
  70 H     1.0000    0     1.008   -9.990982   -0.650066    0.188973
  71 H     1.0000    0     1.008   -7.143165   -6.804904    3.679297
  72 H     1.0000    0     1.008    6.778448  -12.978639   -3.482765
  73 H     1.0000    0     1.008   -4.301017   -9.021553   -0.094486
  74 H     1.0000    0     1.008    7.018443   -7.037340    3.639613
  75 H     1.0000    0     1.008    9.622485  -10.950963    3.535678
  76 H     1.0000    0     1.008   11.725751  -13.849803   -0.829590
  77 H     1.0000    0     1.008   10.191293  -14.960962    1.969095
  78 H     1.0000    0     1.008    8.993207  -15.822677   -1.065806
  79 H     1.0000    0     1.008    0.621720   -9.996651   -0.015118
  80 H     1.0000    0     1.008    4.055352   -9.150054   -3.666069
  81 H     1.0000    0     1.008   10.975529    9.422175   -3.696304
  82 H     1.0000    0     1.008    9.048009   -4.310465   -0.349599
  83 H     1.0000    0     1.008    9.184069    3.994881    3.613156
  84 H     1.0000    0     1.008   13.041000    6.672623    3.348595
  85 H     1.0000    0     1.008   13.951848   11.544337    0.672743
  86 H     1.0000    0     1.008   15.900156    8.791006    0.822031
  87 H     1.0000    0     1.008   14.968521   10.034446   -2.173185
  88 H     1.0000    0     1.008    9.983423    0.634948   -0.338261
  89 H     1.0000    0     1.008    7.029781    6.863485   -3.717091

--------------------------------
INTERNAL COORDINATES (ANGSTROEM)
--------------------------------
 C      0   0   0     0.000000000000     0.00000000     0.00000000
 C      1   0   0     5.425182116759     0.00000000     0.00000000
 C      1   2   0     2.413515485759    49.60557408     0.00000000
 C      3   1   2     1.403809816179    87.90683929   220.95248219
 C      4   3   1     1.379896372921   120.15206506     0.13341269
 C      5   4   3     2.447772456745   152.54555326     1.65169051
 C      2   1   3     1.368114030335    16.24528464    14.64251441
 C      7   2   1     1.434084376876   108.05010202   217.37575553
 C      2   1   3     1.434123425651   120.89106218   333.29530634
 C      1   2   3     1.381376487421    31.73784904    38.58830653
 N      1   2   3     1.352807820793   125.62250210   306.32759541
 N      9   2   1     1.376127174356   106.58526707    10.45682343
 N     12   9   2     2.925062050624   168.53581413   171.12065651
 N     13  12   9     2.954513327098    91.55032014    11.12112580
 N     14  13  12     2.925371258490    88.43092389   359.84326247
 C      8   7   2     1.404790019896   127.24786865   181.11170171
 C     13  12   9     1.366535034311    81.72106996   188.00453233
 C     14  13  12     5.758810554272    80.56209567   166.76250791
 C     17  13  12     1.459010623676   111.08861209   183.82872609
 C     18  14  13     2.412235892279    27.27532823    36.33507194
 C     20  18  14     1.402692767501    87.95206320   148.94598259
 C     21  20  18     1.382106725257   120.14573887   359.70382047
 C     18  14  13     2.446510985056   144.15733107    82.80075377
 C     19  17  13     1.353610726908   106.29293361   359.75308708
 C     13  12   9     1.366813447402   172.21332906    33.46711076
 C     18  14  13     1.380960173213    15.08449437   309.23336894
 N     22  21  20     1.352773077792   120.73759875     0.27865223
 C     25  13  17     1.410897586645   125.60330303   182.37774668
 C     14  13  12     1.376642291955    80.24689249   177.85461986
 C     14  13  12     5.764089607215   164.51507311   312.20821879
 C     29  14  13     1.435600919476   106.58649366   178.76395472
 C     30  14  13     2.413316804732    27.10625047    82.12560436
 C     32  30  14     1.403734305344    87.90059683   149.76154742
 C     33  32  30     1.380694028378   120.14881443   359.74174632
 C     34  33  32     2.448777858443   152.49203239     2.45173620
 C     31  29  14     1.368160809262   108.16950133     0.70383075
 C     14  13  12     1.376239804685   169.26375223   353.09862627
 C     30  14  13     1.380907310430    14.68948582   353.70041132
 N     34  33  32     1.352658863128   120.85575621     0.19603406
 C     37  14  29     1.404717053360   126.01551127   180.90772073
 C     15  14  13     1.366491126938    81.61824056   183.09049352
 C      2   1   3     4.249062720177   151.76358458   142.21176359
 C     41  15  14     1.459677704153   111.05201287   175.08990246
 C     42   2   1     2.412953791518    41.78584867   165.86514307
 C     44  42   2     1.403446472082    87.95153797   233.97558675
 C     45  44  42     1.381696421071   120.11137308     0.19721020
 C     42   2   1     2.450019795838   135.97209175    76.17999217
 C     43  41  15     1.354461516618   106.26758155     0.30894352
 C     15  14  13     1.367461151185   171.87382904   332.35056460
 C     42   2   1     1.381886391857    32.59078432   214.72042226
 C      9   2   1     1.404988612053   126.98745415   191.46116096
 N     42   2   1     1.352765315936   113.57249190   103.91658137
 H      1   2   3     1.082765440897   108.59977687   161.16060640
 H      2   1   3     1.079907866440   113.03293655   163.53640227
 H      4   3   1     1.083179578833   121.00863261   179.57431611
 H      5   4   3     1.082251819125   122.80280584   179.45962699
 H      6   5   4     1.091613026672   104.44165888   100.06151229
 H      6   5   4     1.089823380186    84.66271335   209.54348713
 H      6   5   4     1.089406260309   133.88171647   322.32171005
 H      7   2   1     1.079807853278   126.66122480    37.61416932
 H     10   1   2     1.083731055198   118.76066461    71.93784846
 H     12   9   2     1.016297692608   125.29023241   180.00180175
 H     14  13  12     1.014936943854    44.97226959   359.42596618
 H     18  14  13     1.082871645210   128.03556573   234.20482432
 H     19  17  13     1.080893611786   126.41830519   178.11313280
 H     21  20  18     1.083569563987   121.05669627   180.67006309
 H     22  21  20     1.082483256222   122.73097286   180.59748951
 H     23  18  14     1.092105306278   103.92715769   234.93429879
 H     23  18  14     1.088871893291   134.19244188    12.25587044
 H     23  18  14     1.089833473518    84.85857450   125.45241208
 H     24  19  17     1.080075460327   127.28078426   178.44613241
 H     26  18  14     1.083408048706   118.76995697   244.94906660
 H     30  14  13     1.082703098730   127.99711412   279.66882698
 H     31  29  14     1.079759695488   125.22293469   180.92530585
 H     33  32  30     1.083188810873   121.01964473   180.74284758
 H     34  33  32     1.082494341787   122.70821597   180.59516895
 H     35  34  33     1.092652735319   105.73575241    97.19771933
 H     35  34  33     1.089462711615    84.05943581   206.43036958
 H     35  34  33     1.089268102902   133.08365142   318.50306270
 H     36  31  29     1.079439669458   126.61599965   178.98859863
 H     38  30  73     1.083742127999   118.77264435   359.90091293
 H     42   2   1     1.082178358682   119.31790784   320.54811182
 H     43  41  15     1.080281907652   126.36969097   182.06329380
 H     45  44  42     1.083277434455   121.10105945   179.58025624
 H     46  45  44     1.082194529648   122.72144639   179.46906377
 H     47  42   2     1.091546151109   106.65128841   315.16475048
 H     47  42   2     1.088818625851   132.46019523    94.52397119
 H     47  42   2     1.089531091801    83.63838232   206.04504406
 H     48  43  41     1.080402239909   127.23657387   181.62955349
 H     50  42   2     1.083186502870   118.77001737    94.71359229

---------------------------
INTERNAL COORDINATES (A.U.)
---------------------------
 C      0   0   0     0.000000000000     0.00000000     0.00000000
 C      1   0   0    10.252108427321     0.00000000     0.00000000
 C      1   2   0     4.560883288063    49.60557408     0.00000000
 C      3   1   2     2.652816096688    87.90683929   220.95248219
 C      4   3   1     2.607626238012   120.15206506     0.13341269
 C      5   4   3     4.625619581404   152.54555326     1.65169051
 C      2   1   3     2.585360837309    16.24528464    14.64251441
 C      7   2   1     2.710026725231   108.05010202   217.37575553
 C      2   1   3     2.710100516721   120.89106218   333.29530634
 C      1   2   3     2.610423249064    31.73784904    38.58830653
 N      1   2   3     2.556436293126   125.62250210   306.32759541
 N      9   2   1     2.600503484979   106.58526707    10.45682343
 N     12   9   2     5.527566200405   168.53581413   171.12065651
 N     13  12   9     5.583221047236    91.55032014    11.12112580
 N     14  13  12     5.528150518591    88.43092389   359.84326247
 C      8   7   2     2.654668413270   127.24786865   181.11170171
 C     13  12   9     2.582376967257    81.72106996   188.00453233
 C     14  13  12    10.882574804710    80.56209567   166.76250791
 C     17  13  12     2.757130505230   111.08861209   183.82872609
 C     18  14  13     4.558465206823    27.27532823    36.33507194
 C     20  18  14     2.650705180609    87.95206320   148.94598259
 C     21  20  18     2.611803198586   120.14573887   359.70382047
 C     18  14  13     4.623235745386   144.15733107    82.80075377
 C     19  17  13     2.557953565794   106.29293361   359.75308708
 C     13  12   9     2.582903091751   172.21332906    33.46711076
 C     18  14  13     2.609636529225    15.08449437   309.23336894
 N     22  21  20     2.556370638369   120.73759875     0.27865223
 C     25  13  17     2.666210041769   125.60330303   182.37774668
 C     14  13  12     2.601476916169    80.24689249   177.85461986
 C     14  13  12    10.892550769017   164.51507311   312.20821879
 C     29  14  13     2.712892575415   106.58649366   178.76395472
 C     30  14  13     4.560507835333    27.10625047    82.12560436
 C     32  30  14     2.652673401891    87.90059683   149.76154742
 C     33  32  30     2.609133588376   120.14881443   359.74174632
 C     34  33  32     4.627519515267   152.49203239     2.45173620
 C     31  29  14     2.585449236669   108.16950133     0.70383075
 C     14  13  12     2.600716325456   169.26375223   353.09862627
 C     30  14  13     2.609536633043    14.68948582   353.70041132
 N     34  33  32     2.556154803934   120.85575621     0.19603406
 C     37  14  29     2.654530526499   126.01551127   180.90772073
 C     15  14  13     2.582293994346    81.61824056   183.09049352
 C      2   1   3     8.029564866989   151.76358458   142.21176359
 C     41  15  14     2.758391104639   111.05201287   175.08990246
 C     42   2   1     4.559821839776    41.78584867   165.86514307
 C     44  42   2     2.652129475853    87.95153797   233.97558675
 C     45  44  42     2.611027836043   120.11137308     0.19721020
 C     42   2   1     4.629866436820   135.97209175    76.17999217
 C     43  41  15     2.559561325344   106.26758155     0.30894352
 C     15  14  13     2.584127074516   171.87382904   332.35056460
 C     42   2   1     2.611386828803    32.59078432   214.72042226
 C      9   2   1     2.655043698059   126.98745415   191.46116096
 N     42   2   1     2.556355970587   113.57249190   103.91658137
 H      1   2   3     2.046130150569   108.59977687   161.16060640
 H      2   1   3     2.040730117440   113.03293655   163.53640227
 H      4   3   1     2.046912757850   121.00863261   179.57431611
 H      5   4   3     2.045159546085   122.80280584   179.45962699
 H      6   5   4     2.062849664631   104.44165888   100.06151229
 H      6   5   4     2.059467722896    84.66271335   209.54348713
 H      6   5   4     2.058679480563   133.88171647   322.32171005
 H      7   2   1     2.040541119952   126.66122480    37.61416932
 H     10   1   2     2.047954897149   118.76066461    71.93784846
 H     12   9   2     1.920524309565   125.29023241   180.00180175
 H     14  13  12     1.917952867083    44.97226959   359.42596618
 H     18  14  13     2.046330847636   128.03556573   234.20482432
 H     19  17  13     2.042592906181   126.41830519   178.11313280
 H     21  20  18     2.047649722989   121.05669627   180.67006309
 H     22  21  20     2.045596898814   122.73097286   180.59748951
 H     23  18  14     2.063779938267   103.92715769   234.93429879
 H     23  18  14     2.057669673245   134.19244188    12.25587044
 H     23  18  14     2.059486796529    84.85857450   125.45241208
 H     24  19  17     2.041046823986   127.28078426   178.44613241
 H     26  18  14     2.047344503340   118.76995697   244.94906660
 H     30  14  13     2.046012340948   127.99711412   279.66882698
 H     31  29  14     2.040450114918   125.22293469   180.92530585
 H     33  32  30     2.046930203877   121.01964473   180.74284758
 H     34  33  32     2.045617847496   122.70821597   180.59516895
 H     35  34  33     2.064814429233   105.73575241    97.19771933
 H     35  34  33     2.058786158072    84.05943581   206.43036958
 H     35  34  33     2.058418400901   133.08365142   318.50306270
 H     36  31  29     2.039845353366   126.61599965   178.98859863
 H     38  30  73     2.047975821711   118.77264435   359.90091293
 H     42   2   1     2.045020725966   119.31790784   320.54811182
 H     43  41  15     2.041436952892   126.36969097   182.06329380
 H     45  44  42     2.047097678177   121.10105945   179.58025624
 H     46  45  44     2.045051284662   122.72144639   179.46906377
 H     47  42   2     2.062723288131   106.65128841   315.16475048
 H     47  42   2     2.057569012371   132.46019523    94.52397119
 H     47  42   2     2.058915377895    83.63838232   206.04504406
 H     48  43  41     2.041664347903   127.23657387   181.62955349
 H     50  42   2     2.046925842384   118.77001737    94.71359229

---------------------
BASIS SET INFORMATION
---------------------
There are 3 groups of distinct atoms

 Group   1 Type C   : 17s4p1d contracted to 3s2p1d pattern {881/31/1}
 Group   2 Type N   : 17s4p1d contracted to 3s2p1d pattern {881/31/1}
 Group   3 Type H   : 4s1p contracted to 2s1p pattern {31/1}

Atom   0C    basis set group =>   1
Atom   1N    basis set group =>   2
Atom   2C    basis set group =>   1
Atom   3N    basis set group =>   2
Atom   4C    basis set group =>   1
Atom   5N    basis set group =>   2
Atom   6C    basis set group =>   1
Atom   7N    basis set group =>   2
Atom   8C    basis set group =>   1
Atom   9N    basis set group =>   2
Atom  10C    basis set group =>   1
Atom  11N    basis set group =>   2
Atom  12C    basis set group =>   1
Atom  13N    basis set group =>   2
Atom  14C    basis set group =>   1
Atom  15N    basis set group =>   2
Atom  16C    basis set group =>   1
Atom  17C    basis set group =>   1
Atom  18C    basis set group =>   1
Atom  19C    basis set group =>   1
Atom  20C    basis set group =>   1
Atom  21C    basis set group =>   1
Atom  22C    basis set group =>   1
Atom  23C    basis set group =>   1
Atom  24C    basis set group =>   1
Atom  25C    basis set group =>   1
Atom  26C    basis set group =>   1
Atom  27C    basis set group =>   1
Atom  28C    basis set group =>   1
Atom  29C    basis set group =>   1
Atom  30C    basis set group =>   1
Atom  31C    basis set group =>   1
Atom  32C    basis set group =>   1
Atom  33C    basis set group =>   1
Atom  34C    basis set group =>   1
Atom  35C    basis set group =>   1
Atom  36C    basis set group =>   1
Atom  37C    basis set group =>   1
Atom  38C    basis set group =>   1
Atom  39C    basis set group =>   1
Atom  40C    basis set group =>   1
Atom  41C    basis set group =>   1
Atom  42C    basis set group =>   1
Atom  43C    basis set group =>   1
Atom  44C    basis set group =>   1
Atom  45C    basis set group =>   1
Atom  46C    basis set group =>   1
Atom  47C    basis set group =>   1
Atom  48C    basis set group =>   1
Atom  49C    basis set group =>   1
Atom  50C    basis set group =>   1
Atom  51C    basis set group =>   1
Atom  52H    basis set group =>   3
Atom  53H    basis set group =>   3
Atom  54H    basis set group =>   3
Atom  55H    basis set group =>   3
Atom  56H    basis set group =>   3
Atom  57H    basis set group =>   3
Atom  58H    basis set group =>   3
Atom  59H    basis set group =>   3
Atom  60H    basis set group =>   3
Atom  61H    basis set group =>   3
Atom  62H    basis set group =>   3
Atom  63H    basis set group =>   3
Atom  64H    basis set group =>   3
Atom  65H    basis set group =>   3
Atom  66H    basis set group =>   3
Atom  67H    basis set group =>   3
Atom  68H    basis set group =>   3
Atom  69H    basis set group =>   3
Atom  70H    basis set group =>   3
Atom  71H    basis set group =>   3
Atom  72H    basis set group =>   3
Atom  73H    basis set group =>   3
Atom  74H    basis set group =>   3
Atom  75H    basis set group =>   3
Atom  76H    basis set group =>   3
Atom  77H    basis set group =>   3
Atom  78H    basis set group =>   3
Atom  79H    basis set group =>   3
Atom  80H    basis set group =>   3
Atom  81H    basis set group =>   3
Atom  82H    basis set group =>   3
Atom  83H    basis set group =>   3
Atom  84H    basis set group =>   3
Atom  85H    basis set group =>   3
Atom  86H    basis set group =>   3
Atom  87H    basis set group =>   3
Atom  88H    basis set group =>   3
Atom  89H    basis set group =>   3


           ************************************************************
           *        Program running with 8 parallel MPI-processes     *
           *              working on a common directory               *
           ************************************************************
------------------------------------------------------------------------------
                           ORCA GTO INTEGRAL CALCULATION
------------------------------------------------------------------------------
------------------------------------------------------------------------------
                   ___                                                        
                  /   \      - P O W E R E D   B Y -                         
                 /     \                                                     
                 |  |  |   _    _      __       _____    __    __             
                 |  |  |  | |  | |    /  \     |  _  \  |  |  /  |          
                  \  \/   | |  | |   /    \    | | | |  |  | /  /          
                 / \  \   | |__| |  /  /\  \   | |_| |  |  |/  /          
                |  |  |   |  __  | /  /__\  \  |    /   |      \           
                |  |  |   | |  | | |   __   |  |    \   |  |\   \          
                \     /   | |  | | |  |  |  |  | |\  \  |  | \   \       
                 \___/    |_|  |_| |__|  |__|  |_| \__\ |__|  \__/        
                                                                              
                      - O R C A' S   B I G   F R I E N D -                    
                                      &                                       
                       - I N T E G R A L  F E E D E R -                       
                                                                              
 v1 FN, 2020, v2 2021                                                         
------------------------------------------------------------------------------


Reading SHARK input file /scratch/chu_02/allen/tmpyp4_amber_gaff2/conf1/conf1/Conf310.orca.SHARKINP.tmp ... ok
----------------------
SHARK INTEGRAL PACKAGE
----------------------

Number of atoms                             ...     90
Number of basis functions                   ...   1230
Number of shells                            ...    738
Maximum angular momentum                    ...      2
Integral batch strategy                     ... SHARK/LIBINT Hybrid
RI-J (if used) integral strategy            ... SPLIT-RIJ (Revised 2003 algorithm where possible)
Printlevel                                  ...      1
Contraction scheme used                     ... PARTIAL GENERAL contraction
Coulomb Range Separation                    ... NOT USED
Exchange Range Separation                   ... NOT USED
Finite Nucleus Model                        ... NOT USED
Auxiliary Coulomb fitting basis             ... NOT available
Auxiliary J/K fitting basis                 ... NOT available
Auxiliary Correlation fitting basis         ... NOT available
Auxiliary 'external' fitting basis          ... NOT available
Integral threshold                          ...     2.500000e-11
Primitive cut-off                           ...     2.500000e-12
Primitive pair pre-selection threshold      ...     2.500000e-12

Calculating pre-screening integrals         ... done (  0.1 sec) Dimension = 738
Calculating pre-screening integrals (ORCA)  ... done (  0.3 sec) Dimension = 426
Organizing shell pair data                  ... done (  0.5 sec)
Shell pair information
Total number of shell pairs                 ...    272691
Shell pairs after pre-screening             ...     71601
Total number of primitive shell pairs       ...    422091
Primitive shell pairs kept                  ...     92383
          la=0 lb=0:  29409 shell pairs
          la=1 lb=0:  25971 shell pairs
          la=1 lb=1:   4700 shell pairs
          la=2 lb=0:   7866 shell pairs
          la=2 lb=1:   3124 shell pairs
          la=2 lb=2:    531 shell pairs

Calculating one electron integrals          ... done (  0.2 sec)
Calculating Nuclear repulsion               ... done (  0.0 sec) ENN=   6226.391676269708 Eh

SHARK setup successfully completed in   1.6 seconds

Maximum memory used throughout the entire GTOINT-calculation: 99.0 MB


           ************************************************************
           *        Program running with 8 parallel MPI-processes     *
           *              working on a common directory               *
           ************************************************************
-------------------------------------------------------------------------------
                                 ORCA SCF
-------------------------------------------------------------------------------

------------
SCF SETTINGS
------------
Hamiltonian:
 Ab initio Hamiltonian  Method          .... Hartree-Fock(GTOs)


General Settings:
 Integral files         IntName         .... /scratch/chu_02/allen/tmpyp4_amber_gaff2/conf1/conf1/Conf310.orca
 Hartree-Fock type      HFTyp           .... RHF
 Total Charge           Charge          ....    0
 Multiplicity           Mult            ....    1
 Number of Electrons    NEL             ....  358
 Basis Dimension        Dim             ....  918
 Nuclear Repulsion      ENuc            ....   6226.3916762697 Eh

Convergence Acceleration:
 DIIS                   CNVDIIS         .... on
   Start iteration      DIISMaxIt       ....    12
   Startup error        DIISStart       ....  0.200000
   # of expansion vecs  DIISMaxEq       ....     5
   Bias factor          DIISBfac        ....   1.050
   Max. coefficient     DIISMaxC        ....  10.000
 Trust-Rad. Augm. Hess. CNVTRAH         .... auto
   Auto Start mean grad. ratio tolernc. ....  1.125000
   Auto Start start iteration           ....    20
   Auto Start num. interpolation iter.  ....    10
   Max. Number of Micro iterations      ....    16
   Max. Number of Macro iterations      .... Maxiter - #DIIS iter
   Number of Davidson start vectors     ....     2
   Converg. threshold I  (grad. norm)   ....   1.000e-05
   Converg. threshold II (energy diff.) ....   1.000e-08
   Grad. Scal. Fac. for Micro threshold ....   0.100
   Minimum threshold for Micro iter.    ....   0.010
   NR start threshold (gradient norm)   ....   0.001
   Initial trust radius                 ....   0.400
   Minimum AH scaling param. (alpha)    ....   1.000
   Maximum AH scaling param. (alpha)    .... 1000.000
   Orbital update algorithm             .... Taylor
   White noise on init. David. guess    .... on
   Maximum white noise                  ....   0.010
   Quad. conv. algorithm                .... NR
 SOSCF                  CNVSOSCF        .... on
   Start iteration      SOSCFMaxIt      ....   150
   Startup grad/error   SOSCFStart      ....  0.003300
 Level Shifting         CNVShift        .... on
   Level shift para.    LevelShift      ....    0.2500
   Turn off err/grad.   ShiftErr        ....    0.0010
 Zerner damping         CNVZerner       .... off
 Static damping         CNVDamp         .... on
   Fraction old density DampFac         ....    0.7000
   Max. Damping (<1)    DampMax         ....    0.9800
   Min. Damping (>=0)   DampMin         ....    0.0000
   Turn off err/grad.   DampErr         ....    0.1000
 Fernandez-Rico         CNVRico         .... off

SCF Procedure:
 Maximum # iterations   MaxIter         ....   125
 SCF integral mode      SCFMode         .... Direct
   Integral package                     .... SHARK and LIBINT hybrid scheme
 Reset frequency        DirectResetFreq ....    20
 Integral Threshold     Thresh          ....  2.500e-11 Eh
 Primitive CutOff       TCut            ....  2.500e-12 Eh

Convergence Tolerance:
 Convergence Check Mode ConvCheckMode   .... Total+1el-Energy
 Convergence forced     ConvForced      .... 1
 Energy Change          TolE            ....  1.000e-08 Eh
 1-El. energy change                    ....  1.000e-05 Eh
 Orbital Gradient       TolG            ....  1.000e-05
 Orbital Rotation angle TolX            ....  1.000e-05
 DIIS Error             TolErr          ....  5.000e-07


Diagonalization of the overlap matrix:
Smallest eigenvalue                        ... 2.248e-04
Time for diagonalization                   ...    0.211 sec
Threshold for overlap eigenvalues          ... 1.000e-08
Number of eigenvalues below threshold      ... 0
Time for construction of square roots      ...    0.123 sec
Total time needed                          ...    0.338 sec

Time for model grid setup =    1.321 sec

------------------------------
INITIAL GUESS: MODEL POTENTIAL
------------------------------
Loading Hartree-Fock densities                     ... done
Calculating cut-offs                               ... done
Initializing the effective Hamiltonian             ... done
Setting up the integral package (SHARK)            ... done
Starting the Coulomb interaction                   ... done (   1.6 sec)
Reading the grid                                   ... done
Mapping shells                                     ... done
Starting the XC term evaluation                    ... done (   0.3 sec)
Transforming the Hamiltonian                       ... done (   0.1 sec)
Diagonalizing the Hamiltonian                      ... done (   0.2 sec)
Back transforming the eigenvectors                 ... done (   0.0 sec)
Now organizing SCF variables                       ... done
                      ------------------
                      INITIAL GUESS DONE (   3.6 sec)
                      ------------------
--------------
SCF ITERATIONS
--------------
ITER       Energy         Delta-E        Max-DP      RMS-DP      [F,P]     Damp
               ***  Starting incremental Fock matrix formation  ***
  0  -2121.6862733298   0.000000000000 0.06885602  0.00120726  0.2327340 0.7000
  1  -2122.3485127213  -0.662239391502 0.05221556  0.00097979  0.1440479 0.7000
                               ***Turning on DIIS***
  2  -2122.7597853988  -0.411272677518 0.11636909  0.00222135  0.0802422 0.0000
  3  -2117.7978718603   4.961913538533 0.03018924  0.00067593  0.0441708 0.0000
  4  -2123.4256812615  -5.627809401265 0.00881092  0.00022689  0.0071980 0.0000
  5  -2123.5988409680  -0.173159706492 0.00511363  0.00013383  0.0049730 0.0000
  6  -2123.5814231128   0.017417855184 0.00341565  0.00008653  0.0019353 0.0000
  7  -2123.6841890380  -0.102765925181 0.00288876  0.00006809  0.0015172 0.0000
  8  -2123.6997548786  -0.015565840617 0.00298052  0.00006379  0.0014098 0.0000
  9  -2123.6657056040   0.034049274651 0.00239860  0.00004370  0.0011140 0.0000
 10  -2123.6779555251  -0.012249921077 0.00492763  0.00008671  0.0008511 0.0000
                      *** Initiating the SOSCF procedure ***
                           *** Shutting down DIIS ***
                      *** Re-Reading the Fockian *** 
                      *** Removing any level shift *** 
ITER      Energy       Delta-E        Grad      Rot      Max-DP    RMS-DP
 11  -2123.56489108   0.1130644431  0.000267  0.000267  0.000276  0.000006
               *** Restarting incremental Fock matrix formation ***
 12  -2123.62911911  -0.0642280320  0.000866  0.005839  0.001137  0.000028
 13  -2123.62918992  -0.0000708023  0.000957  0.025632  0.005292  0.000101
 14  -2123.62929194  -0.0001020211  0.000444  0.002045  0.000521  0.000011
 15  -2123.62930559  -0.0000136546  0.000181  0.003278  0.000839  0.000015
 16  -2123.62931343  -0.0000078394  0.000135  0.004364  0.000767  0.000016
 17  -2123.62931774  -0.0000043057  0.000137  0.003288  0.000453  0.000010
 18  -2123.62931990  -0.0000021583  0.000069  0.001564  0.000232  0.000005
 19  -2123.62932098  -0.0000010835  0.000060  0.000505  0.000169  0.000003
 20  -2123.62932132  -0.0000003363  0.000026  0.000511  0.000132  0.000002
 21  -2123.62932147  -0.0000001518  0.000020  0.000185  0.000065  0.000001
 22  -2123.62932155  -0.0000000848  0.000016  0.000386  0.000103  0.000002
 23  -2123.62932162  -0.0000000640  0.000010  0.000122  0.000047  0.000001
 24  -2123.62932163  -0.0000000193  0.000005  0.000077  0.000026  0.000000
 25  -2123.62932165  -0.0000000104  0.000004  0.000045  0.000017  0.000000
                  ***Gradient check signals convergence***
              ***Rediagonalizing the Fockian in SOSCF/NRSCF***

               *****************************************************
               *                     SUCCESS                       *
               *           SCF CONVERGED AFTER  26 CYCLES          *
               *****************************************************


----------------
TOTAL SCF ENERGY
----------------

Total Energy       :        -2123.62932165 Eh          -57786.89167 eV

Components:
Nuclear Repulsion  :         6226.39167627 Eh          169428.73110 eV
Electronic Energy  :        -8350.02099792 Eh         -227215.62277 eV
One Electron Energy:       -15293.83109783 Eh         -416166.30166 eV
Two Electron Energy:         6943.81009990 Eh          188950.67889 eV

Virial components:
Potential Energy   :        -4245.64657854 Eh         -115529.91683 eV
Kinetic Energy     :         2122.01725689 Eh           57743.02516 eV
Virial Ratio       :            2.00075969


---------------
SCF CONVERGENCE
---------------

  Last Energy change         ...   -6.1082e-09  Tolerance :   1.0000e-08
  Last MAX-Density change    ...    1.1286e-05  Tolerance :   1.0000e-07
  Last RMS-Density change    ...    1.8990e-07  Tolerance :   5.0000e-09
  Last Orbital Gradient      ...    2.0340e-06  Tolerance :   1.0000e-05
  Last Orbital Rotation      ...    4.3567e-05  Tolerance :   1.0000e-05

             **** THE GBW FILE WAS UPDATED (/scratch/chu_02/allen/tmpyp4_amber_gaff2/conf1/conf1/Conf310.orca.gbw) ****
             **** DENSITY /scratch/chu_02/allen/tmpyp4_amber_gaff2/conf1/conf1/Conf310.orca.scfp WAS UPDATED ****
             **** ENERGY FILE WAS UPDATED (/scratch/chu_02/allen/tmpyp4_amber_gaff2/conf1/conf1/Conf310.orca.en.tmp) ****
             **** THE GBW FILE WAS UPDATED (/scratch/chu_02/allen/tmpyp4_amber_gaff2/conf1/conf1/Conf310.orca.gbw) ****
             **** DENSITY /scratch/chu_02/allen/tmpyp4_amber_gaff2/conf1/conf1/Conf310.orca.scfp WAS UPDATED ****
----------------
ORBITAL ENERGIES
----------------

  NO   OCC          E(Eh)            E(eV) 
   0   2.0000     -15.653362      -425.9496 
   1   2.0000     -15.639182      -425.5638 
   2   2.0000     -15.628676      -425.2779 
   3   2.0000     -15.608193      -424.7205 
   4   2.0000     -15.521742      -422.3681 
   5   2.0000     -15.515592      -422.2007 
   6   2.0000     -15.447269      -420.3416 
   7   2.0000     -15.443788      -420.2468 
   8   2.0000     -11.311549      -307.8029 
   9   2.0000     -11.307898      -307.7035 
  10   2.0000     -11.305398      -307.6355 
  11   2.0000     -11.302501      -307.5567 
  12   2.0000     -11.296102      -307.3826 
  13   2.0000     -11.295700      -307.3716 
  14   2.0000     -11.292790      -307.2924 
  15   2.0000     -11.286831      -307.1303 
  16   2.0000     -11.284814      -307.0754 
  17   2.0000     -11.284075      -307.0553 
  18   2.0000     -11.271075      -306.7016 
  19   2.0000     -11.269302      -306.6533 
  20   2.0000     -11.257087      -306.3209 
  21   2.0000     -11.244630      -305.9819 
  22   2.0000     -11.243731      -305.9575 
  23   2.0000     -11.242636      -305.9277 
  24   2.0000     -11.234697      -305.7117 
  25   2.0000     -11.234109      -305.6957 
  26   2.0000     -11.233198      -305.6708 
  27   2.0000     -11.226887      -305.4991 
  28   2.0000     -11.226707      -305.4942 
  29   2.0000     -11.217039      -305.2312 
  30   2.0000     -11.211816      -305.0890 
  31   2.0000     -11.211439      -305.0788 
  32   2.0000     -11.204984      -304.9031 
  33   2.0000     -11.204116      -304.8795 
  34   2.0000     -11.191844      -304.5456 
  35   2.0000     -11.191484      -304.5358 
  36   2.0000     -11.179111      -304.1991 
  37   2.0000     -11.176654      -304.1322 
  38   2.0000     -11.176340      -304.1237 
  39   2.0000     -11.173483      -304.0459 
  40   2.0000     -11.167361      -303.8793 
  41   2.0000     -11.166799      -303.8640 
  42   2.0000     -11.166050      -303.8437 
  43   2.0000     -11.165480      -303.8282 
  44   2.0000     -11.163429      -303.7723 
  45   2.0000     -11.163212      -303.7664 
  46   2.0000     -11.150463      -303.4195 
  47   2.0000     -11.149133      -303.3833 
  48   2.0000     -11.147389      -303.3359 
  49   2.0000     -11.145962      -303.2970 
  50   2.0000     -11.138829      -303.1030 
  51   2.0000     -11.134675      -302.9899 
  52   2.0000      -1.337840       -36.4045 
  53   2.0000      -1.325663       -36.0731 
  54   2.0000      -1.316669       -35.8284 
  55   2.0000      -1.300018       -35.3753 
  56   2.0000      -1.221285       -33.2329 
  57   2.0000      -1.211409       -32.9641 
  58   2.0000      -1.164478       -31.6871 
  59   2.0000      -1.156133       -31.4600 
  60   2.0000      -1.124528       -30.6000 
  61   2.0000      -1.113735       -30.3063 
  62   2.0000      -1.106020       -30.0963 
  63   2.0000      -1.092765       -29.7356 
  64   2.0000      -1.061093       -28.8738 
  65   2.0000      -1.049554       -28.5598 
  66   2.0000      -1.041323       -28.3358 
  67   2.0000      -1.029927       -28.0257 
  68   2.0000      -1.026549       -27.9338 
  69   2.0000      -1.012360       -27.5477 
  70   2.0000      -1.009360       -27.4661 
  71   2.0000      -0.994769       -27.0690 
  72   2.0000      -0.985674       -26.8215 
  73   2.0000      -0.974291       -26.5118 
  74   2.0000      -0.972742       -26.4697 
  75   2.0000      -0.958798       -26.0902 
  76   2.0000      -0.951485       -25.8912 
  77   2.0000      -0.945996       -25.7419 
  78   2.0000      -0.938258       -25.5313 
  79   2.0000      -0.922619       -25.1057 
  80   2.0000      -0.895624       -24.3712 
  81   2.0000      -0.885778       -24.1032 
  82   2.0000      -0.876362       -23.8470 
  83   2.0000      -0.869030       -23.6475 
  84   2.0000      -0.862540       -23.4709 
  85   2.0000      -0.855084       -23.2680 
  86   2.0000      -0.848293       -23.0832 
  87   2.0000      -0.840810       -22.8796 
  88   2.0000      -0.821820       -22.3629 
  89   2.0000      -0.798755       -21.7352 
  90   2.0000      -0.796556       -21.6754 
  91   2.0000      -0.741142       -20.1675 
  92   2.0000      -0.734155       -19.9774 
  93   2.0000      -0.730579       -19.8801 
  94   2.0000      -0.722274       -19.6541 
  95   2.0000      -0.719489       -19.5783 
  96   2.0000      -0.712754       -19.3950 
  97   2.0000      -0.705814       -19.2062 
  98   2.0000      -0.700251       -19.0548 
  99   2.0000      -0.694954       -18.9107 
 100   2.0000      -0.689793       -18.7702 
 101   2.0000      -0.681337       -18.5401 
 102   2.0000      -0.678824       -18.4717 
 103   2.0000      -0.673640       -18.3307 
 104   2.0000      -0.670172       -18.2363 
 105   2.0000      -0.667011       -18.1503 
 106   2.0000      -0.664359       -18.0781 
 107   2.0000      -0.660101       -17.9623 
 108   2.0000      -0.657576       -17.8936 
 109   2.0000      -0.656732       -17.8706 
 110   2.0000      -0.651426       -17.7262 
 111   2.0000      -0.648856       -17.6563 
 112   2.0000      -0.644750       -17.5445 
 113   2.0000      -0.637407       -17.3447 
 114   2.0000      -0.634903       -17.2766 
 115   2.0000      -0.626837       -17.0571 
 116   2.0000      -0.622784       -16.9468 
 117   2.0000      -0.616320       -16.7709 
 118   2.0000      -0.612389       -16.6640 
 119   2.0000      -0.610681       -16.6175 
 120   2.0000      -0.608544       -16.5593 
 121   2.0000      -0.602614       -16.3980 
 122   2.0000      -0.594511       -16.1775 
 123   2.0000      -0.594344       -16.1729 
 124   2.0000      -0.591019       -16.0825 
 125   2.0000      -0.584942       -15.9171 
 126   2.0000      -0.578379       -15.7385 
 127   2.0000      -0.575022       -15.6471 
 128   2.0000      -0.565947       -15.4002 
 129   2.0000      -0.559068       -15.2130 
 130   2.0000      -0.553898       -15.0723 
 131   2.0000      -0.548663       -14.9299 
 132   2.0000      -0.541900       -14.7459 
 133   2.0000      -0.537066       -14.6143 
 134   2.0000      -0.534169       -14.5355 
 135   2.0000      -0.529472       -14.4077 
 136   2.0000      -0.525673       -14.3043 
 137   2.0000      -0.522729       -14.2242 
 138   2.0000      -0.518865       -14.1190 
 139   2.0000      -0.517321       -14.0770 
 140   2.0000      -0.509688       -13.8693 
 141   2.0000      -0.507382       -13.8066 
 142   2.0000      -0.506802       -13.7908 
 143   2.0000      -0.501330       -13.6419 
 144   2.0000      -0.500028       -13.6065 
 145   2.0000      -0.498095       -13.5539 
 146   2.0000      -0.494149       -13.4465 
 147   2.0000      -0.490594       -13.3497 
 148   2.0000      -0.488758       -13.2998 
 149   2.0000      -0.469247       -12.7688 
 150   2.0000      -0.461969       -12.5708 
 151   2.0000      -0.453612       -12.3434 
 152   2.0000      -0.448318       -12.1994 
 153   2.0000      -0.446520       -12.1504 
 154   2.0000      -0.446226       -12.1424 
 155   2.0000      -0.439365       -11.9557 
 156   2.0000      -0.435075       -11.8390 
 157   2.0000      -0.430441       -11.7129 
 158   2.0000      -0.395365       -10.7584 
 159   2.0000      -0.383949       -10.4478 
 160   2.0000      -0.379343       -10.3224 
 161   2.0000      -0.371447       -10.1076 
 162   2.0000      -0.369722       -10.0607 
 163   2.0000      -0.359960        -9.7950 
 164   2.0000      -0.353096        -9.6082 
 165   2.0000      -0.339731        -9.2445 
 166   2.0000      -0.337264        -9.1774 
 167   2.0000      -0.334717        -9.1081 
 168   2.0000      -0.329044        -8.9538 
 169   2.0000      -0.300129        -8.1669 
 170   2.0000      -0.299283        -8.1439 
 171   2.0000      -0.287888        -7.8338 
 172   2.0000      -0.286153        -7.7866 
 173   2.0000      -0.257020        -6.9939 
 174   2.0000      -0.247158        -6.7255 
 175   2.0000      -0.188801        -5.1375 
 176   2.0000      -0.178833        -4.8663 
 177   2.0000      -0.069050        -1.8789 
 178   2.0000      -0.055969        -1.5230 
 179   0.0000       0.029917         0.8141 
 180   0.0000       0.069487         1.8908 
 181   0.0000       0.092780         2.5247 
 182   0.0000       0.100911         2.7459 
 183   0.0000       0.124144         3.3781 
 184   0.0000       0.133902         3.6436 
 185   0.0000       0.141659         3.8547 
 186   0.0000       0.154762         4.2113 
 187   0.0000       0.156066         4.2468 
 188   0.0000       0.161922         4.4061 
 189   0.0000       0.162575         4.4239 
 190   0.0000       0.167727         4.5641 
 191   0.0000       0.177601         4.8328 
 192   0.0000       0.194429         5.2907 
 193   0.0000       0.197830         5.3832 
 194   0.0000       0.202052         5.4981 
 195   0.0000       0.205649         5.5960 
 196   0.0000       0.207836         5.6555 
 197   0.0000       0.210864         5.7379 
 198   0.0000       0.217234         5.9112 
 199   0.0000       0.222191         6.0461 
 200   0.0000       0.229440         6.2434 
 201   0.0000       0.237076         6.4512 
 202   0.0000       0.241818         6.5802 
 203   0.0000       0.247091         6.7237 
 204   0.0000       0.251982         6.8568 
 205   0.0000       0.253827         6.9070 
 206   0.0000       0.255449         6.9511 
 207   0.0000       0.259195         7.0531 
 208   0.0000       0.262971         7.1558 
 209   0.0000       0.264049         7.1851 
 210   0.0000       0.266488         7.2515 
 211   0.0000       0.269865         7.3434 
 212   0.0000       0.271347         7.3837 
 213   0.0000       0.275065         7.4849 
 214   0.0000       0.277476         7.5505 
 215   0.0000       0.279247         7.5987 
 216   0.0000       0.281678         7.6649 
 217   0.0000       0.282116         7.6768 
 218   0.0000       0.284375         7.7382 
 219   0.0000       0.287371         7.8198 
 220   0.0000       0.290472         7.9041 
 221   0.0000       0.292644         7.9633 
 222   0.0000       0.293564         7.9883 
 223   0.0000       0.295341         8.0366 
 224   0.0000       0.298659         8.1269 
 225   0.0000       0.300537         8.1780 
 226   0.0000       0.305680         8.3180 
 227   0.0000       0.307361         8.3637 
 228   0.0000       0.309488         8.4216 
 229   0.0000       0.313275         8.5247 
 230   0.0000       0.314925         8.5695 
 231   0.0000       0.320673         8.7260 
 232   0.0000       0.324586         8.8324 
 233   0.0000       0.329999         8.9797 
 234   0.0000       0.332754         9.0547 
 235   0.0000       0.339871         9.2484 
 236   0.0000       0.355355         9.6697 
 237   0.0000       0.384510        10.4630 
 238   0.0000       0.395340        10.7577 
 239   0.0000       0.399216        10.8632 
 240   0.0000       0.404679        11.0119 
 241   0.0000       0.413805        11.2602 
 242   0.0000       0.419324        11.4104 
 243   0.0000       0.424696        11.5566 
 244   0.0000       0.428135        11.6501 
 245   0.0000       0.431862        11.7516 
 246   0.0000       0.433858        11.8059 
 247   0.0000       0.438263        11.9257 
 248   0.0000       0.440556        11.9881 
 249   0.0000       0.443928        12.0799 
 250   0.0000       0.449278        12.2255 
 251   0.0000       0.456249        12.4152 
 252   0.0000       0.457639        12.4530 
 253   0.0000       0.463262        12.6060 
 254   0.0000       0.470176        12.7941 
 255   0.0000       0.474697        12.9172 
 256   0.0000       0.482999        13.1431 
 257   0.0000       0.484987        13.1972 
 258   0.0000       0.492540        13.4027 
 259   0.0000       0.496978        13.5235 
 260   0.0000       0.500561        13.6209 
 261   0.0000       0.502758        13.6807 
 262   0.0000       0.507254        13.8031 
 263   0.0000       0.509954        13.8765 
 264   0.0000       0.511250        13.9118 
 265   0.0000       0.515071        14.0158 
 266   0.0000       0.518598        14.1118 
 267   0.0000       0.522967        14.2307 
 268   0.0000       0.535732        14.5780 
 269   0.0000       0.538084        14.6420 
 270   0.0000       0.541888        14.7455 
 271   0.0000       0.544484        14.8162 
 272   0.0000       0.545570        14.8457 
 273   0.0000       0.553885        15.0720 
 274   0.0000       0.560140        15.2422 
 275   0.0000       0.564824        15.3696 
 276   0.0000       0.572570        15.5804 
 277   0.0000       0.578118        15.7314 
 278   0.0000       0.580433        15.7944 
 279   0.0000       0.584327        15.9003 
 280   0.0000       0.586361        15.9557 
 281   0.0000       0.590851        16.0779 
 282   0.0000       0.593321        16.1451 
 283   0.0000       0.597365        16.2551 
 284   0.0000       0.599369        16.3097 
 285   0.0000       0.600177        16.3317 
 286   0.0000       0.606733        16.5100 
 287   0.0000       0.610168        16.6035 
 288   0.0000       0.611838        16.6490 
 289   0.0000       0.617451        16.8017 
 290   0.0000       0.622431        16.9372 
 291   0.0000       0.627717        17.0810 
 292   0.0000       0.636720        17.3260 
 293   0.0000       0.637614        17.3503 
 294   0.0000       0.644903        17.5487 
 295   0.0000       0.650916        17.7123 
 296   0.0000       0.655623        17.8404 
 297   0.0000       0.658793        17.9267 
 298   0.0000       0.662233        18.0203 
 299   0.0000       0.664957        18.0944 
 300   0.0000       0.670095        18.2342 
 301   0.0000       0.671408        18.2699 
 302   0.0000       0.679743        18.4968 
 303   0.0000       0.682300        18.5663 
 304   0.0000       0.685309        18.6482 
 305   0.0000       0.686568        18.6825 
 306   0.0000       0.689328        18.7576 
 307   0.0000       0.691800        18.8248 
 308   0.0000       0.697338        18.9755 
 309   0.0000       0.698298        19.0017 
 310   0.0000       0.702427        19.1140 
 311   0.0000       0.704793        19.1784 
 312   0.0000       0.706343        19.2206 
 313   0.0000       0.708025        19.2663 
 314   0.0000       0.711917        19.3722 
 315   0.0000       0.713895        19.4261 
 316   0.0000       0.717124        19.5139 
 317   0.0000       0.718462        19.5503 
 318   0.0000       0.720393        19.6029 
 319   0.0000       0.722530        19.6610 
 320   0.0000       0.727395        19.7934 
 321   0.0000       0.730615        19.8810 
 322   0.0000       0.732314        19.9273 
 323   0.0000       0.734128        19.9766 
 324   0.0000       0.739281        20.1169 
 325   0.0000       0.742616        20.2076 
 326   0.0000       0.742819        20.2131 
 327   0.0000       0.744585        20.2612 
 328   0.0000       0.746813        20.3218 
 329   0.0000       0.748839        20.3769 
 330   0.0000       0.752987        20.4898 
 331   0.0000       0.754894        20.5417 
 332   0.0000       0.758447        20.6384 
 333   0.0000       0.762942        20.7607 
 334   0.0000       0.765982        20.8434 
 335   0.0000       0.773253        21.0413 
 336   0.0000       0.777607        21.1598 
 337   0.0000       0.780235        21.2313 
 338   0.0000       0.785533        21.3754 
 339   0.0000       0.788679        21.4611 
 340   0.0000       0.788898        21.4670 
 341   0.0000       0.792772        21.5724 
 342   0.0000       0.796587        21.6762 
 343   0.0000       0.800917        21.7941 
 344   0.0000       0.804811        21.9000 
 345   0.0000       0.806801        21.9542 
 346   0.0000       0.810203        22.0467 
 347   0.0000       0.810792        22.0628 
 348   0.0000       0.814116        22.1532 
 349   0.0000       0.816237        22.2109 
 350   0.0000       0.820059        22.3149 
 351   0.0000       0.824430        22.4339 
 352   0.0000       0.825600        22.4657 
 353   0.0000       0.827932        22.5292 
 354   0.0000       0.829878        22.5821 
 355   0.0000       0.830823        22.6078 
 356   0.0000       0.832281        22.6475 
 357   0.0000       0.834731        22.7142 
 358   0.0000       0.837830        22.7985 
 359   0.0000       0.838972        22.8296 
 360   0.0000       0.840219        22.8635 
 361   0.0000       0.841717        22.9043 
 362   0.0000       0.842454        22.9243 
 363   0.0000       0.845762        23.0143 
 364   0.0000       0.847034        23.0490 
 365   0.0000       0.848421        23.0867 
 366   0.0000       0.851971        23.1833 
 367   0.0000       0.856044        23.2941 
 368   0.0000       0.859522        23.3888 
 369   0.0000       0.863589        23.4994 
 370   0.0000       0.864587        23.5266 
 371   0.0000       0.870693        23.6928 
 372   0.0000       0.873580        23.7713 
 373   0.0000       0.878987        23.9185 
 374   0.0000       0.880172        23.9507 
 375   0.0000       0.881723        23.9929 
 376   0.0000       0.884524        24.0691 
 377   0.0000       0.888439        24.1757 
 378   0.0000       0.891983        24.2721 
 379   0.0000       0.893515        24.3138 
 380   0.0000       0.898284        24.4436 
 381   0.0000       0.899544        24.4778 
 382   0.0000       0.903347        24.5813 
 383   0.0000       0.904008        24.5993 
 384   0.0000       0.904168        24.6037 
 385   0.0000       0.906028        24.6543 
 386   0.0000       0.908750        24.7284 
 387   0.0000       0.910385        24.7728 
 388   0.0000       0.911646        24.8071 
 389   0.0000       0.914964        24.8974 
 390   0.0000       0.918317        24.9887 
 391   0.0000       0.919638        25.0246 
 392   0.0000       0.923225        25.1222 
 393   0.0000       0.926937        25.2233 
 394   0.0000       0.927359        25.2347 
 395   0.0000       0.930865        25.3301 
 396   0.0000       0.934054        25.4169 
 397   0.0000       0.935464        25.4553 
 398   0.0000       0.937376        25.5073 
 399   0.0000       0.941986        25.6327 
 400   0.0000       0.942700        25.6522 
 401   0.0000       0.947167        25.7737 
 402   0.0000       0.949497        25.8371 
 403   0.0000       0.954088        25.9620 
 404   0.0000       0.955639        26.0043 
 405   0.0000       0.957635        26.0586 
 406   0.0000       0.960115        26.1261 
 407   0.0000       0.963296        26.2126 
 408   0.0000       0.965584        26.2749 
 409   0.0000       0.971697        26.4412 
 410   0.0000       0.975101        26.5339 
 411   0.0000       0.978097        26.6154 
 412   0.0000       0.981729        26.7142 
 413   0.0000       0.985609        26.8198 
 414   0.0000       0.988325        26.8937 
 415   0.0000       0.991290        26.9744 
 416   0.0000       0.999581        27.2000 
 417   0.0000       1.002308        27.2742 
 418   0.0000       1.006579        27.3904 
 419   0.0000       1.014898        27.6168 
 420   0.0000       1.022560        27.8253 
 421   0.0000       1.026669        27.9371 
 422   0.0000       1.031854        28.0782 
 423   0.0000       1.039933        28.2980 
 424   0.0000       1.044954        28.4346 
 425   0.0000       1.048743        28.5378 
 426   0.0000       1.053984        28.6804 
 427   0.0000       1.062819        28.9208 
 428   0.0000       1.064542        28.9676 
 429   0.0000       1.070487        29.1294 
 430   0.0000       1.077043        29.3078 
 431   0.0000       1.081019        29.4160 
 432   0.0000       1.084922        29.5222 
 433   0.0000       1.089192        29.6384 
 434   0.0000       1.098730        29.8980 
 435   0.0000       1.104950        30.0672 
 436   0.0000       1.108120        30.1535 
 437   0.0000       1.109766        30.1983 
 438   0.0000       1.115965        30.3669 
 439   0.0000       1.116961        30.3940 
 440   0.0000       1.120932        30.5021 
 441   0.0000       1.124400        30.5965 
 442   0.0000       1.128699        30.7135 
 443   0.0000       1.129881        30.7456 
 444   0.0000       1.133503        30.8442 
 445   0.0000       1.134088        30.8601 
 446   0.0000       1.135793        30.9065 
 447   0.0000       1.141513        31.0621 
 448   0.0000       1.143633        31.1198 
 449   0.0000       1.146910        31.2090 
 450   0.0000       1.151299        31.3284 
 451   0.0000       1.153446        31.3869 
 452   0.0000       1.154437        31.4138 
 453   0.0000       1.156915        31.4813 
 454   0.0000       1.160007        31.5654 
 455   0.0000       1.168456        31.7953 
 456   0.0000       1.172766        31.9126 
 457   0.0000       1.177294        32.0358 
 458   0.0000       1.180844        32.1324 
 459   0.0000       1.184929        32.2436 
 460   0.0000       1.187941        32.3255 
 461   0.0000       1.191918        32.4337 
 462   0.0000       1.201531        32.6953 
 463   0.0000       1.203061        32.7369 
 464   0.0000       1.206855        32.8402 
 465   0.0000       1.207511        32.8581 
 466   0.0000       1.213944        33.0331 
 467   0.0000       1.215762        33.0826 
 468   0.0000       1.221410        33.2363 
 469   0.0000       1.230168        33.4746 
 470   0.0000       1.230840        33.4929 
 471   0.0000       1.233782        33.5729 
 472   0.0000       1.235248        33.6128 
 473   0.0000       1.237698        33.6795 
 474   0.0000       1.242251        33.8034 
 475   0.0000       1.247234        33.9390 
 476   0.0000       1.251602        34.0578 
 477   0.0000       1.252631        34.0858 
 478   0.0000       1.253647        34.1135 
 479   0.0000       1.256221        34.1835 
 480   0.0000       1.259838        34.2819 
 481   0.0000       1.264184        34.4002 
 482   0.0000       1.269279        34.5388 
 483   0.0000       1.272152        34.6170 
 484   0.0000       1.274030        34.6681 
 485   0.0000       1.275666        34.7126 
 486   0.0000       1.280456        34.8430 
 487   0.0000       1.283919        34.9372 
 488   0.0000       1.288980        35.0749 
 489   0.0000       1.291249        35.1367 
 490   0.0000       1.293542        35.1991 
 491   0.0000       1.301095        35.4046 
 492   0.0000       1.301501        35.4156 
 493   0.0000       1.309698        35.6387 
 494   0.0000       1.311160        35.6785 
 495   0.0000       1.314442        35.7678 
 496   0.0000       1.316292        35.8181 
 497   0.0000       1.322101        35.9762 
 498   0.0000       1.324718        36.0474 
 499   0.0000       1.329677        36.1824 
 500   0.0000       1.333432        36.2845 
 501   0.0000       1.337500        36.3952 
 502   0.0000       1.342074        36.5197 
 503   0.0000       1.347165        36.6582 
 504   0.0000       1.350286        36.7432 
 505   0.0000       1.352691        36.8086 
 506   0.0000       1.354020        36.8447 
 507   0.0000       1.356030        36.8995 
 508   0.0000       1.360568        37.0229 
 509   0.0000       1.362218        37.0678 
 510   0.0000       1.365939        37.1691 
 511   0.0000       1.368112        37.2282 
[...]
 76 H s       :     0.889512  s :     0.889512
      pz      :     0.022020  p :     0.079645
      px      :     0.043413
      py      :     0.014212
 77 H s       :     0.887535  s :     0.887535
      pz      :     0.047751  p :     0.079027
      px      :     0.015015
      py      :     0.016261
 78 H s       :     0.887955  s :     0.887955
      pz      :     0.025764  p :     0.078970
      px      :     0.020521
      py      :     0.032685
 79 H s       :     0.909438  s :     0.909438
      pz      :     0.021997  p :     0.086586
      px      :     0.021732
      py      :     0.042857
 80 H s       :     0.868678  s :     0.868678
      pz      :     0.039047  p :     0.084363
      px      :     0.030053
      py      :     0.015263
 81 H s       :     0.887155  s :     0.887155
      pz      :     0.037775  p :     0.083967
      px      :     0.016164
      py      :     0.030027
 82 H s       :     0.915624  s :     0.915624
      pz      :     0.022076  p :     0.086805
      px      :     0.031451
      py      :     0.033278
 83 H s       :     0.873173  s :     0.873173
      pz      :     0.039239  p :     0.084009
      px      :     0.015267
      py      :     0.029504
 84 H s       :     0.887166  s :     0.887166
      pz      :     0.035768  p :     0.083614
      px      :     0.031706
      py      :     0.016140
 85 H s       :     0.893559  s :     0.893559
      pz      :     0.022491  p :     0.079745
      px      :     0.014088
      py      :     0.043166
 86 H s       :     0.890969  s :     0.890969
      pz      :     0.024722  p :     0.078838
      px      :     0.032981
      py      :     0.021135
 87 H s       :     0.890125  s :     0.890125
      pz      :     0.047980  p :     0.078711
      px      :     0.015599
      py      :     0.015132
 88 H s       :     0.912719  s :     0.912719
      pz      :     0.021935  p :     0.086992
      px      :     0.042655
      py      :     0.022402
 89 H s       :     0.871800  s :     0.871800
      pz      :     0.037930  p :     0.083874
      px      :     0.030486
      py      :     0.015457


                      *****************************
                      * MAYER POPULATION ANALYSIS *
                      *****************************

  NA   - Mulliken gross atomic population
  ZA   - Total nuclear charge
  QA   - Mulliken gross atomic charge
  VA   - Mayer's total valence
  BVA  - Mayer's bonded valence
  FA   - Mayer's free valence

  ATOM       NA         ZA         QA         VA         BVA        FA
  0 C      5.7949     6.0000     0.2051     3.8370     3.8370    -0.0000
  1 N      7.4491     7.0000    -0.4491     3.3450     3.3450    -0.0000
  2 C      6.0644     6.0000    -0.0644     3.9194     3.9194    -0.0000
  3 N      7.3366     7.0000    -0.3366     3.4519     3.4519    -0.0000
  4 C      6.0636     6.0000    -0.0636     3.9847     3.9847     0.0000
  5 N      7.5610     7.0000    -0.5610     3.0904     3.0904     0.0000
  6 C      6.0819     6.0000    -0.0819     4.0049     4.0049     0.0000
  7 N      7.3391     7.0000    -0.3391     3.4379     3.4379     0.0000
  8 C      5.7976     6.0000     0.2024     3.8334     3.8334     0.0000
  9 N      7.5628     7.0000    -0.5628     3.0818     3.0818     0.0000
 10 C      5.8824     6.0000     0.1176     3.9022     3.9022     0.0000
 11 N      7.4374     7.0000    -0.4374     3.3842     3.3842    -0.0000
 12 C      6.0741     6.0000    -0.0741     3.9176     3.9176     0.0000
 13 N      7.4356     7.0000    -0.4356     3.3993     3.3993     0.0000
 14 C      5.7652     6.0000     0.2348     3.7856     3.7856     0.0000
 15 N      7.4411     7.0000    -0.4411     3.3707     3.3707     0.0000
 16 C      5.7684     6.0000     0.2316     3.7849     3.7849     0.0000
 17 C      6.0885     6.0000    -0.0885     4.0039     4.0039    -0.0000
 18 C      6.1914     6.0000    -0.1914     3.7645     3.7645    -0.0000
 19 C      5.7777     6.0000     0.2223     3.8690     3.8690     0.0000
 20 C      5.7885     6.0000     0.2115     3.8265     3.8265     0.0000
 21 C      6.0835     6.0000    -0.0835     3.9092     3.9092    -0.0000
 22 C      6.0870     6.0000    -0.0870     3.9826     3.9826    -0.0000
 23 C      6.0450     6.0000    -0.0450     3.9910     3.9910     0.0000
 24 C      5.7982     6.0000     0.2018     3.8224     3.8224    -0.0000
 25 C      5.8862     6.0000     0.1138     3.8896     3.8896    -0.0000
 26 C      6.0734     6.0000    -0.0734     3.9047     3.9047    -0.0000
 27 C      5.7831     6.0000     0.2169     3.8747     3.8747     0.0000
 28 C      6.0559     6.0000    -0.0559     3.9882     3.9882     0.0000
 29 C      6.1825     6.0000    -0.1825     3.7393     3.7393     0.0000
 30 C      5.7602     6.0000     0.2398     3.7951     3.7951    -0.0000
 31 C      5.7805     6.0000     0.2195     3.8235     3.8235    -0.0000
 32 C      6.0634     6.0000    -0.0634     3.9203     3.9203    -0.0000
 33 C      6.0730     6.0000    -0.0730     3.9801     3.9801    -0.0000
 34 C      6.0496     6.0000    -0.0496     3.9888     3.9888     0.0000
 35 C      5.7868     6.0000     0.2132     3.8217     3.8217     0.0000
 36 C      5.8883     6.0000     0.1117     3.8847     3.8847     0.0000
 37 C      6.0656     6.0000    -0.0656     3.9176     3.9176    -0.0000
 38 C      5.7647     6.0000     0.2353     3.8007     3.8007     0.0000
 39 C      6.0606     6.0000    -0.0606     3.9879     3.9879    -0.0000
 40 C      6.1853     6.0000    -0.1853     3.7353     3.7353    -0.0000
 41 C      5.7782     6.0000     0.2218     3.8830     3.8830    -0.0000
 42 C      5.7998     6.0000     0.2002     3.8270     3.8270    -0.0000
 43 C      6.0733     6.0000    -0.0733     3.9017     3.9017    -0.0000
 44 C      6.0900     6.0000    -0.0900     3.9855     3.9855     0.0000
 45 C      6.0567     6.0000    -0.0567     3.9924     3.9924     0.0000
 46 C      5.7937     6.0000     0.2063     3.8272     3.8272    -0.0000
 47 C      5.8843     6.0000     0.1157     3.8938     3.8938    -0.0000
 48 C      6.0719     6.0000    -0.0719     3.9062     3.9062    -0.0000
 49 C      5.7690     6.0000     0.2310     3.8887     3.8887     0.0000
 50 C      6.0500     6.0000    -0.0500     3.9905     3.9905     0.0000
 51 C      6.1913     6.0000    -0.1913     3.7369     3.7369    -0.0000
 52 H      0.9526     1.0000     0.0474     0.9856     0.9856    -0.0000
 53 H      1.0152     1.0000    -0.0152     0.9987     0.9987    -0.0000
 54 H      0.9545     1.0000     0.0455     1.0115     1.0115     0.0000
 55 H      0.9545     1.0000     0.0455     0.9863     0.9863    -0.0000
 56 H      0.9466     1.0000     0.0534     0.9706     0.9706    -0.0000
 57 H      0.9477     1.0000     0.0523     0.9827     0.9827    -0.0000
 58 H      0.9485     1.0000     0.0515     0.9858     0.9858    -0.0000
 59 H      1.0069     1.0000    -0.0069     1.0018     1.0018     0.0000
 60 H      0.9539     1.0000     0.0461     1.0084     1.0084     0.0000
 61 H      0.8282     1.0000     0.1718     1.0421     1.0421    -0.0000
 62 H      0.8259     1.0000     0.1741     1.0435     1.0435     0.0000
 63 H      0.9430     1.0000     0.0570     0.9853     0.9853     0.0000
 64 H      1.0129     1.0000    -0.0129     0.9958     0.9958    -0.0000
 65 H      0.9532     1.0000     0.0468     1.0095     1.0095    -0.0000
 66 H      0.9426     1.0000     0.0574     0.9851     0.9851    -0.0000
 67 H      0.9365     1.0000     0.0635     0.9720     0.9720    -0.0000
 68 H      0.9418     1.0000     0.0582     0.9868     0.9868    -0.0000
 69 H      0.9416     1.0000     0.0584     0.9830     0.9830    -0.0000
 70 H      1.0263     1.0000    -0.0263     0.9933     0.9933     0.0000
 71 H      0.9524     1.0000     0.0476     1.0063     1.0063     0.0000
 72 H      0.9374     1.0000     0.0626     0.9844     0.9844    -0.0000
 73 H      1.0115     1.0000    -0.0115     0.9995     0.9995    -0.0000
 74 H      0.9476     1.0000     0.0524     1.0101     1.0101    -0.0000
 75 H      0.9383     1.0000     0.0617     0.9849     0.9849     0.0000
 76 H      0.9327     1.0000     0.0673     0.9719     0.9719    -0.0000
 77 H      0.9378     1.0000     0.0622     0.9853     0.9853     0.0000
 78 H      0.9387     1.0000     0.0613     0.9850     0.9850     0.0000
 79 H      1.0146     1.0000    -0.0146     0.9988     0.9988    -0.0000
 80 H      0.9472     1.0000     0.0528     1.0071     1.0071    -0.0000
 81 H      0.9464     1.0000     0.0536     0.9856     0.9856    -0.0000
 82 H      1.0245     1.0000    -0.0245     0.9938     0.9938     0.0000
 83 H      0.9580     1.0000     0.0420     1.0089     1.0089    -0.0000
 84 H      0.9469     1.0000     0.0531     0.9854     0.9854    -0.0000
 85 H      0.9406     1.0000     0.0594     0.9716     0.9716    -0.0000
 86 H      0.9443     1.0000     0.0557     0.9839     0.9839    -0.0000
 87 H      0.9433     1.0000     0.0567     0.9856     0.9856    -0.0000
 88 H      1.0189     1.0000    -0.0189     0.9954     0.9954     0.0000
 89 H      0.9543     1.0000     0.0457     1.0069     1.0069    -0.0000

  Mayer bond orders larger than 0.100000
B(  0-C ,  1-N ) :   1.1019 B(  0-C , 17-C ) :   1.6712 B(  0-C , 52-H ) :   0.9688 
B(  1-N ,  8-C ) :   1.0955 B(  1-N , 10-C ) :   0.9708 B(  2-C , 12-C ) :   1.5262 
B(  2-C , 16-C ) :   1.3357 B(  2-C , 53-H ) :   0.9773 B(  3-N , 14-C ) :   1.2106 
B(  3-N , 16-C ) :   1.1937 B(  3-N , 61-H ) :   0.8990 B(  4-C ,  6-C ) :   1.2361 
B(  4-C , 17-C ) :   1.2343 B(  4-C , 18-C ) :   1.3474 B(  5-N , 19-C ) :   1.4360 
B(  5-N , 27-C ) :   1.3929 B(  6-C ,  8-C ) :   1.6728 B(  6-C , 54-H ) :   0.9688 
B(  7-N , 30-C ) :   1.1933 B(  7-N , 38-C ) :   1.1976 B(  7-N , 62-H ) :   0.8975 
B(  8-C , 55-H ) :   0.9701 B(  9-N , 41-C ) :   1.4001 B(  9-N , 49-C ) :   1.4226 
B( 10-C , 56-H ) :   0.9764 B( 10-C , 57-H ) :   0.9828 B( 10-C , 58-H ) :   0.9833 
B( 11-N , 20-C ) :   1.1292 B( 11-N , 24-C ) :   1.1181 B( 11-N , 25-C ) :   0.9580 
B( 12-C , 14-C ) :   1.3388 B( 12-C , 59-H ) :   0.9756 B( 13-N , 31-C ) :   1.1399 
B( 13-N , 35-C ) :   1.1331 B( 13-N , 36-C ) :   0.9523 B( 14-C , 18-C ) :   1.1687 
B( 15-N , 42-C ) :   1.1112 B( 15-N , 46-C ) :   1.1178 B( 15-N , 47-C ) :   0.9623 
B( 16-C , 51-C ) :   1.1884 B( 17-C , 60-H ) :   0.9693 B( 18-C , 19-C ) :   1.1774 
B( 19-C , 21-C ) :   1.2262 B( 20-C , 28-C ) :   1.6232 B( 20-C , 63-H ) :   0.9702 
B( 21-C , 26-C ) :   1.6314 B( 21-C , 64-H ) :   0.9722 B( 22-C , 23-C ) :   1.2881 
B( 22-C , 28-C ) :   1.2722 B( 22-C , 29-C ) :   1.2227 B( 23-C , 24-C ) :   1.6165 
B( 23-C , 65-H ) :   0.9707 B( 24-C , 66-H ) :   0.9693 B( 25-C , 67-H ) :   0.9761 
B( 25-C , 68-H ) :   0.9828 B( 25-C , 69-H ) :   0.9822 B( 26-C , 27-C ) :   1.2214 
B( 26-C , 70-H ) :   0.9723 B( 27-C , 29-C ) :   1.2231 B( 28-C , 71-H ) :   0.9716 
B( 29-C , 30-C ) :   1.2264 B( 30-C , 32-C ) :   1.2973 B( 31-C , 39-C ) :   1.6133 
B( 31-C , 72-H ) :   0.9690 B( 32-C , 37-C ) :   1.5614 B( 32-C , 73-H ) :   0.9781 
B( 33-C , 34-C ) :   1.2892 B( 33-C , 39-C ) :   1.2820 B( 33-C , 40-C ) :   1.2176 
B( 34-C , 35-C ) :   1.6099 B( 34-C , 74-H ) :   0.9701 B( 35-C , 75-H ) :   0.9691 
B( 36-C , 76-H ) :   0.9765 B( 36-C , 77-H ) :   0.9819 B( 36-C , 78-H ) :   0.9828 
B( 37-C , 38-C ) :   1.3000 B( 37-C , 79-H ) :   0.9773 B( 38-C , 40-C ) :   1.2199 
B( 39-C , 80-H ) :   0.9712 B( 40-C , 41-C ) :   1.2314 B( 41-C , 43-C ) :   1.2038 
B( 42-C , 50-C ) :   1.6346 B( 42-C , 81-H ) :   0.9696 B( 43-C , 48-C ) :   1.6477 
B( 43-C , 82-H ) :   0.9730 B( 44-C , 45-C ) :   1.2663 B( 44-C , 50-C ) :   1.2683 
B( 44-C , 51-C ) :   1.2604 B( 45-C , 46-C ) :   1.6348 B( 45-C , 83-H ) :   0.9715 
B( 46-C , 84-H ) :   0.9702 B( 47-C , 85-H ) :   0.9762 B( 47-C , 86-H ) :   0.9829 
B( 47-C , 87-H ) :   0.9825 B( 48-C , 49-C ) :   1.2054 B( 48-C , 88-H ) :   0.9743 
B( 49-C , 51-C ) :   1.2251 B( 50-C , 89-H ) :   0.9711 

-------
TIMINGS
-------

Total SCF time: 0 days 0 hours 39 min 41 sec 

Total time                  ....    2381.719 sec
Sum of individual times     ....    2378.819 sec  ( 99.9%)

Fock matrix formation       ....    2361.918 sec  ( 99.2%)
Diagonalization             ....       4.752 sec  (  0.2%)
Density matrix formation    ....       0.451 sec  (  0.0%)
Population analysis         ....       0.327 sec  (  0.0%)
Initial guess               ....       2.304 sec  (  0.1%)
Orbital Transformation      ....       0.000 sec  (  0.0%)
Orbital Orthonormalization  ....       0.000 sec  (  0.0%)
DIIS solution               ....       2.589 sec  (  0.1%)
SOSCF solution              ....       5.157 sec  (  0.2%)

Maximum memory used throughout the entire SCF-calculation: 304.2 MB


           ************************************************************
           *        Program running with 8 parallel MPI-processes     *
           *              working on a common directory               *
           ************************************************************

------------------------------------------------------------------------------
                                ORCA  MP2 
------------------------------------------------------------------------------

Freezing NCore=104 chemical core electrons

----------
MP2 ENERGY (disk based algorithm)
----------

Dimension of the basis                    ...  918
Memory devoted to MP2                     ... 7000 MB   
Data format for buffers                   ... DOUBLE
Compression type for matrix containers    ... UNCOMPRESSED

-------------------------------
PARTIAL EXCHANGE TRANSFORMATION
-------------------------------

Transformation type                        ... one-operator
Generation of integrals (i,mue|j,nue)      ... ON
Generation of integrals (mue,kappa|nue,tau)... OFF
Generation of integrals (i,mue|a,nue)      ... OFF
Dimension of the basis                     ...  918
Number of internal MOs                     ...  127 (  52- 178)
Pair cutoff                                ... 2.500e-12 Eh
Number of AO pairs in the trafo            ... 421821
Total Number of distinct AO pairs          ... 421821
Memory devoted for trafo                   ... 7000.0 MB 
Max. Number of MO pairs treated together   ... 1088      
Number Format for Storage                  ... Double (8 Byte)
Integral package used                      ... LIBINT

Starting integral evaluation:
    ... done with AO integral generation
Closing buffer AOK     (38.21 GB; CompressionRatio= 1.33)
Collecting buffer AOK 
Number of MO pairs included in the trafo   ... 8128
------------------------
SORTING OF (i,mue|j,nue)
------------------------

IBATCH = 1 of  1
Closing buffer KAO     (51.03 GB; CompressionRatio= 1.00)
Collecting buffer KAO 
N(AO-Batches) Done                         ... 173855822 
N(AO-Batches) Skipped                      ... 167350073 
N(IJ)-pairs Skipped                        ...         0 
TOTAL TIME for half transformation         ...  1443.540 sec
AO-integral generation                     ...   259.641 sec
Half transformation                        ...   484.460 sec
K-integral sorting                         ...   370.089 sec

Finished integral transformation - now doing MP2 part

OPERATOR COMBINATION   0   0: ij=( 52..178, 52..178)
Process 5:   Internal MO 132
Process 2:   Internal MO  84
Process 0:   Internal MO  54
Process 0:   Internal MO  57
Process 1:   Internal MO  69
Process 0:   Internal MO  60
Process 4:   Internal MO 117
Process 0:   Internal MO  63
Process 1:   Internal MO  72
Process 3:   Internal MO 102
Process 2:   Internal MO  87
Process 0:   Internal MO  66
Process 7:   Internal MO 165
Process 1:   Internal MO  75
Process 6:   Internal MO 150
Process 2:   Internal MO  90
Process 1:   Internal MO  78
Process 5:   Internal MO 135
Process 3:   Internal MO 105
Process 4:   Internal MO 120
Process 1:   Internal MO  81
Process 2:   Internal MO  93
Process 3:   Internal MO 108
Process 2:   Internal MO  96
Process 7:   Internal MO 168
Process 4:   Internal MO 123
Process 6:   Internal MO 153
Process 5:   Internal MO 138
Process 2:   Internal MO  99
Process 3:   Internal MO 111
Process 4:   Internal MO 126
Process 5:   Internal MO 141
Process 3:   Internal MO 114
Process 6:   Internal MO 156
Process 7:   Internal MO 171
Process 4:   Internal MO 129
Process 5:   Internal MO 144
Process 6:   Internal MO 159
Process 7:   Internal MO 174
Process 5:   Internal MO 147
Process 6:   Internal MO 162
Process 7:   Internal MO 177
-----------------------------------------------
 MP2 CORRELATION ENERGY   :     -7.286602043 Eh
-----------------------------------------------


-------
TIMINGS
-------
Total time                : 1601.278 sec
Integral trafo            : 1458.908 sec ( 91.1%)
K(i,j)                    :    9.014 sec (  0.6%)
T(i,j)                    :    0.111 sec (  0.0%)

---------------------------------------
MP2 TOTAL ENERGY:    -2130.915923695 Eh
---------------------------------------

Maximum memory used throughout the entire MP2-calculation: 6735.7 MB

-------------------------   --------------------
FINAL SINGLE POINT ENERGY     -2130.915923694649
-------------------------   --------------------


                            ***************************************
                            *     ORCA property calculations      *
                            ***************************************


  WARNING: The energy has been calculated at the MP2 level but the densities
           used in the property calculations are still SCF densities
           MP2 response densities have not been calculated 
           use %mp2 Density relaxed end
           or  %mp2 Density unrelaxed end

                                    ---------------------
                                    Active property flags
                                    ---------------------
   (+) Dipole Moment


------------------------------------------------------------------------------
                       ORCA ELECTRIC PROPERTIES CALCULATION
------------------------------------------------------------------------------

Dipole Moment Calculation                       ... on
Quadrupole Moment Calculation                   ... off
Polarizability Calculation                      ... off
GBWName                                         ... /scratch/chu_02/allen/tmpyp4_amber_gaff2/conf1/conf1/Conf310.orca.gbw
Electron density                                ... /scratch/chu_02/allen/tmpyp4_amber_gaff2/conf1/conf1/Conf310.orca.scfp
The origin for moment calculation is the CENTER OF MASS  = (-0.001014, -0.004714 -0.000447)

-------------
DIPOLE MOMENT
-------------
                                X             Y             Z
Electronic contribution:      0.85604      -2.40266      -0.05944
Nuclear contribution   :      0.01537       0.19668       0.07134
                        -----------------------------------------
Total Dipole Moment    :      0.87141      -2.20597       0.01190
                        -----------------------------------------
Magnitude (a.u.)       :      2.37188
Magnitude (Debye)      :      6.02884



--------------------
Rotational spectrum 
--------------------
 
Rotational constants in cm-1:     0.001500     0.001474     0.000762 
Rotational constants in MHz :    44.977016    44.190241    22.834395 

 Dipole components along the rotational axes: 
x,y,z [a.u.] :     1.496411    -1.840210     0.013686 
x,y,z [Debye]:     3.803576    -4.677442     0.034786 

 

Timings for individual modules:

Sum of individual times         ...     3988.509 sec (=  66.475 min)
GTO integral calculation        ...        2.840 sec (=   0.047 min)   0.1 %
SCF iterations                  ...     2383.032 sec (=  39.717 min)  59.7 %
MP2 module                      ...     1602.636 sec (=  26.711 min)  40.2 %
                             ****ORCA TERMINATED NORMALLY****
TOTAL RUN TIME: 0 days 1 hours 6 minutes 34 seconds 710 msec
# of primitive gaussian functions

