
                                 *****************
                                 * O   R   C   A *
                                 *****************

                                            #,                                       
                                            ###                                      
                                            ####                                     
                                            #####                                    
                                            ######                                   
                                           ########,                                 
                                     ,,################,,,,,                         
                               ,,#################################,,                 
                          ,,##########################################,,             
                       ,#########################################, ''#####,          
                    ,#############################################,,   '####,        
                  ,##################################################,,,,####,       
                ,###########''''           ''''###############################       
              ,#####''   ,,,,##########,,,,          '''####'''          '####       
            ,##' ,,,,###########################,,,                        '##       
           ' ,,###''''                  '''############,,,                           
         ,,##''                                '''############,,,,        ,,,,,,###''
      ,#''                                            '''#######################'''  
     '                                                          ''''####''''         
             ,#######,   #######,   ,#######,      ##                                
            ,#'     '#,  ##    ##  ,#'     '#,    #''#        ######   ,####,        
            ##       ##  ##   ,#'  ##            #'  '#       #        #'  '#        
            ##       ##  #######   ##           ,######,      #####,   #    #        
            '#,     ,#'  ##    ##  '#,     ,#' ,#      #,         ##   #,  ,#        
             '#######'   ##     ##  '#######'  #'      '#     #####' # '####'        



                  #######################################################
                  #                        -***-                        #
                  #          Department of theory and spectroscopy      #
                  #    Directorship and core code : Frank Neese         #
                  #        Max Planck Institute fuer Kohlenforschung    #
                  #                Kaiser Wilhelm Platz 1               #
                  #                 D-45470 Muelheim/Ruhr               #
                  #                      Germany                        #
                  #                                                     #
                  #                  All rights reserved                #
                  #                        -***-                        #
                  #######################################################


                         Program Version 5.0.4 -  RELEASE  -


 With contributions from (in alphabetic order):
   Daniel Aravena         : Magnetic Suceptibility
   Michael Atanasov       : Ab Initio Ligand Field Theory (pilot matlab implementation)
   Alexander A. Auer      : GIAO ZORA, VPT2 properties, NMR spectrum
   Ute Becker             : Parallelization
   Giovanni Bistoni       : ED, misc. LED, open-shell LED, HFLD
   Martin Brehm           : Molecular dynamics
   Dmytro Bykov           : SCF Hessian
   Vijay G. Chilkuri      : MRCI spin determinant printing, contributions to CSF-ICE
   Dipayan Datta          : RHF DLPNO-CCSD density
   Achintya Kumar Dutta   : EOM-CC, STEOM-CC
   Dmitry Ganyushin       : Spin-Orbit,Spin-Spin,Magnetic field MRCI
   Miquel Garcia          : C-PCM and meta-GGA Hessian, CC/C-PCM, Gaussian charge scheme
   Yang Guo               : DLPNO-NEVPT2, F12-NEVPT2, CIM, IAO-localization
   Andreas Hansen         : Spin unrestricted coupled pair/coupled cluster methods
   Benjamin Helmich-Paris : MC-RPA, TRAH-SCF, COSX integrals
   Lee Huntington         : MR-EOM, pCC
   Robert Izsak           : Overlap fitted RIJCOSX, COSX-SCS-MP3, EOM
   Marcus Kettner         : VPT2
   Christian Kollmar      : KDIIS, OOCD, Brueckner-CCSD(T), CCSD density, CASPT2, CASPT2-K
   Simone Kossmann        : Meta GGA functionals, TD-DFT gradient, OOMP2, MP2 Hessian
   Martin Krupicka        : Initial AUTO-CI
   Lucas Lang             : DCDCAS
   Marvin Lechner         : AUTO-CI (C++ implementation), FIC-MRCC
   Dagmar Lenk            : GEPOL surface, SMD
   Dimitrios Liakos       : Extrapolation schemes; Compound Job, initial MDCI parallelization
   Dimitrios Manganas     : Further ROCIS development; embedding schemes
   Dimitrios Pantazis     : SARC Basis sets
   Anastasios Papadopoulos: AUTO-CI, single reference methods and gradients
   Taras Petrenko         : DFT Hessian,TD-DFT gradient, ASA, ECA, R-Raman, ABS, FL, XAS/XES, NRVS
   Peter Pinski           : DLPNO-MP2, DLPNO-MP2 Gradient
   Christoph Reimann      : Effective Core Potentials
   Marius Retegan         : Local ZFS, SOC
   Christoph Riplinger    : Optimizer, TS searches, QM/MM, DLPNO-CCSD(T), (RO)-DLPNO pert. Triples
   Tobias Risthaus        : Range-separated hybrids, TD-DFT gradient, RPA, STAB
   Michael Roemelt        : Original ROCIS implementation
   Masaaki Saitow         : Open-shell DLPNO-CCSD energy and density
   Barbara Sandhoefer     : DKH picture change effects
   Avijit Sen             : IP-ROCIS
   Kantharuban Sivalingam : CASSCF convergence, NEVPT2, FIC-MRCI
   Bernardo de Souza      : ESD, SOC TD-DFT
   Georgi Stoychev        : AutoAux, RI-MP2 NMR, DLPNO-MP2 response
   Willem Van den Heuvel  : Paramagnetic NMR
   Boris Wezisla          : Elementary symmetry handling
   Frank Wennmohs         : Technical directorship


 We gratefully acknowledge several colleagues who have allowed us to
 interface, adapt or use parts of their codes:
   Stefan Grimme, W. Hujo, H. Kruse, P. Pracht,  : VdW corrections, initial TS optimization,
                  C. Bannwarth, S. Ehlert          DFT functionals, gCP, sTDA/sTD-DF
   Ed Valeev, F. Pavosevic, A. Kumar             : LibInt (2-el integral package), F12 methods
   Garnet Chan, S. Sharma, J. Yang, R. Olivares  : DMRG
   Ulf Ekstrom                                   : XCFun DFT Library
   Mihaly Kallay                                 : mrcc  (arbitrary order and MRCC methods)
   Jiri Pittner, Ondrej Demel                    : Mk-CCSD
   Frank Weinhold                                : gennbo (NPA and NBO analysis)
   Christopher J. Cramer and Donald G. Truhlar   : smd solvation model
   Lars Goerigk                                  : TD-DFT with DH, B97 family of functionals
   V. Asgeirsson, H. Jonsson                     : NEB implementation
   FAccTs GmbH                                   : IRC, NEB, NEB-TS, DLPNO-Multilevel, CI-OPT
                                                   MM, QMMM, 2- and 3-layer-ONIOM, Crystal-QMMM,
                                                   LR-CPCM, SF, NACMEs, symmetry and pop. for TD-DFT,
                                                   nearIR, NL-DFT gradient (VV10), updates on ESD,
                                                   ML-optimized integration grids
   S Lehtola, MJT Oliveira, MAL Marques          : LibXC Library
   Liviu Ungur et al                             : ANISO software


 Your calculation uses the libint2 library for the computation of 2-el integrals
 For citations please refer to: http://libint.valeyev.net

 Your ORCA version has been built with support for libXC version: 5.1.0
 For citations please refer to: https://tddft.org/programs/libxc/

 This ORCA versions uses:
   CBLAS   interface :  Fast vector & matrix operations
   LAPACKE interface :  Fast linear algebra routines
   SCALAPACK package :  Parallel linear algebra routines
   Shared memory     :  Shared parallel matrices
   BLAS/LAPACK       :  OpenBLAS 0.3.15  USE64BITINT DYNAMIC_ARCH NO_AFFINITY Sandybridge SINGLE_THREADED
        Core in use  :  Sandybridge
   Copyright (c) 2011-2014, The OpenBLAS Project


================================================================================

----- Orbital basis set information -----
Your calculation utilizes the basis: cc-pVDZ 
       H, B-Ne : Obtained from the ccRepo (grant-hill.group.shef.ac.uk/ccrepo) Feb. 2017
                 T. H. Dunning, Jr., J. Chem. Phys. 90, 1007 (1989)
            He : Obtained from the ccRepo (grant-hill.group.shef.ac.uk/ccrepo) Feb. 2017
                 D. E. Woon, T. H. Dunning, Jr., J. Chem. Phys. 100, 2975 (1994)
  Li-Be, Na-Mg : Obtained from the ccRepo (grant-hill.group.shef.ac.uk/ccrepo) Feb. 2017
                 B. P. Prascher, D. E. Woon, K. A. Peterson, T. H. Dunning, Jr., A. K. Wilson, Theor. Chem. Acc. 128, 69 (2011)
         Al-Ar : Obtained from the ccRepo (grant-hill.group.shef.ac.uk/ccrepo) Feb. 2017
                 D. E. Woon, T. H. Dunning, Jr., J. Chem. Phys. 98, 1358 (1993)
            Ca : Obtained from the Peterson Research Group Website (tyr0.chem.wsu.edu/~kipeters) Feb. 2017
                 J. Koput, K. A. Peterson, J. Phys. Chem. 106, 9595 (2002)
         Sc-Zn : Obtained from the ccRepo (grant-hill.group.shef.ac.uk/ccrepo) Feb. 2017
                 N. B. Balabanov, K. A. Peterson, J. Chem. Phys. 123, 064107 (2005)
                 N. B. Balabanov, K. A. Peterson, J. Chem. Phys. 125, 074110 (2006)
         Ga-Kr : Obtained from the ccRepo (grant-hill.group.shef.ac.uk/ccrepo) Feb. 2017
                 A. K. Wilson, D. E. Woon, K. A. Peterson, T. H. Dunning, Jr., J. Chem. Phys. 110, 7667 (1999)

================================================================================
                                        WARNINGS
                       Please study these warnings very carefully!
================================================================================


WARNING: No MP2 level density has been requested!
         To caclulate MP2 level properties use
         %mp2 Density relaxed end
         or
         %mp2 Density unrelaxed end

WARNING: Post HF methods need fully converged wavefunctions
  ===> : Setting SCFConvForced true
         You can overwrite this default with %scf ConvForced false 


INFO   : the flag for use of the SHARK integral package has been found!

================================================================================
                                       INPUT FILE
================================================================================
NAME = /scratch/allen/tmpyp4_amber_gaff2/2.Mdgx/conf11/conf11/Conf353.orca
|  1> ! PAL2
|  2> ! mp2 cc-pvdz TightSCF  NoKeepInts
|  3> 
|  4> %scf
|  5>   MaxCore 2000
|  6> end
|  7> %mp2
|  8>   MaxCore 2000
|  9> end
| 10> * xyz 0 1
| 11>    C       -3.04700         6.48200         0.28800
| 12>    C        1.47400         4.04100         0.05700
| 13>    C       -2.80200         4.09300         0.04900
| 14>    C       -4.19200         4.02000        -0.13300
| 15>    C       -4.95600         5.17000        -0.10200
| 16>    C       -5.22500         7.59400         0.10000
| 17>    C        0.13200         4.30700         0.06100
| 18>    C       -0.56900         3.05600         0.04700
| 19>    C        1.64900         2.61800         0.02300
| 20>    C       -2.23900         5.36100         0.26000
| 21>    N       -4.38300         6.37700         0.11000
| 22>    N        0.38800         2.06700         0.02500
| 23>    N       -2.01000         0.39500        -0.07500
| 24>    N       -0.38800        -2.07400        -0.02700
| 25>    N        2.01000        -0.40100         0.06500
| 26>    C       -1.96000         2.86100         0.02400
| 27>    C       -2.62300         1.61500        -0.01800
| 28>    C       -5.57300        -4.32900         1.06600
| 29>    C       -4.07300         1.47100         0.05600
| 30>    C       -4.10600        -2.75600        -0.02600
| 31>    C       -4.99500        -2.75700        -1.11100
| 32>    C       -6.13200        -3.54200        -1.07600
| 33>    C       -7.65100        -5.11300         0.04000
| 34>    C       -4.32400         0.14100         0.03700
| 35>    C       -3.02500        -0.52000        -0.04800
| 36>    C       -4.42200        -3.56600         1.07500
| 37>    N       -6.40700        -4.31300         0.00100
| 38>    C       -2.86700        -1.92200        -0.04000
| 39>    C       -1.65000        -2.62400        -0.02700
| 40>    C        3.56800        -6.14200        -1.04000
| 41>    C       -1.47600        -4.04900        -0.03400
| 42>    C        2.80300        -4.09900        -0.00800
| 43>    C        3.65700        -4.38400         1.06900
| 44>    C        4.42700        -5.53000         1.05900
| 45>    C        5.24500        -7.58800         0.01400
| 46>    C       -0.13400        -4.31500        -0.02200
| 47>    C        0.56800        -3.06400        -0.02700
| 48>    C        2.77500        -5.01200        -1.07400
| 49>    N        4.37600        -6.39100         0.01700
| 50>    C        1.95900        -2.86900        -0.00900
| 51>    C        2.62100        -1.62200         0.00900
| 52>    C        5.54300         4.33900        -1.13000
| 53>    C        4.07000        -1.47900        -0.09400
| 54>    C        4.10400         2.75100        -0.02100
| 55>    C        5.02700         2.72900         1.03600
| 56>    C        6.16600         3.50900         0.97800
| 57>    C        7.61900         5.15300        -0.11500
| 58>    C        4.32100        -0.14800        -0.09200
| 59>    C        3.02500         0.51400         0.01500
| 60>    C        4.38700         3.58200        -1.11500
| 61>    C        2.86600         1.91600         0.01300
| 62>    N        6.41300         4.29600        -0.09500
| 63>    H       -2.65800         7.47800         0.46000
| 64>    H        2.27400         4.76600         0.08100
| 65>    H       -4.68300         3.07200        -0.31000
| 66>    H       -6.02900         5.16500        -0.24600
| 67>    H       -5.33400         7.94300        -0.93000
| 68>    H       -6.20100         7.34900         0.51800
| 69>    H       -4.74100         8.36000         0.70500
| 70>    H       -0.33200         5.28200         0.06900
| 71>    H       -1.17400         5.48200         0.42100
| 72>    H        0.18200         1.07200         0.00500
| 73>    H       -0.18300        -1.08000        -0.02100
| 74>    H       -5.86400        -4.96200         1.89500
| 75>    H       -4.79400         2.27200         0.13900
| 76>    H       -4.80000        -2.16000        -1.99400
| 77>    H       -6.84100        -3.58200        -1.89300
| 78>    H       -8.42800        -4.53600         0.54600
| 79>    H       -7.95600        -5.33700        -0.98100
| 80>    H       -7.45600        -6.03700         0.58400
| 81>    H       -5.28700        -0.34400         0.10000
| 82>    H       -3.78000        -3.60100         1.94700
| 83>    H        3.58700        -6.86800        -1.84300
| 84>    H       -2.27600        -4.77400        -0.05000
| 85>    H        3.71400        -3.72400         1.92600
| 86>    H        5.09200        -5.79500         1.87100
| 87>    H        6.20500        -7.32900        -0.43900
| 88>    H        5.39300        -7.91700         1.04200
| 89>    H        4.75900        -8.37300        -0.56400
| 90>    H        0.32900        -5.29000        -0.00800
| 91>    H        2.14600        -4.84200        -1.94000
| 92>    H        5.80800         4.98600        -1.95600
| 93>    H        4.78800        -2.28100        -0.18500
| 94>    H        4.86000         2.11400         1.91200
| 95>    H        6.90100         3.53100         1.77200
| 96>    H        7.38300         6.10900         0.35600
| 97>    H        8.41400         4.65200         0.43500
| 98>    H        7.92100         5.31000        -1.15000
| 99>    H        5.28300         0.33600        -0.17900
|100>    H        3.72000         3.63200        -1.96700
|101> *
|102> 
|103>                          ****END OF INPUT****
================================================================================

                       ****************************
                       * Single Point Calculation *
                       ****************************

---------------------------------
CARTESIAN COORDINATES (ANGSTROEM)
---------------------------------
  C     -3.047000    6.482000    0.288000
  C      1.474000    4.041000    0.057000
  C     -2.802000    4.093000    0.049000
  C     -4.192000    4.020000   -0.133000
  C     -4.956000    5.170000   -0.102000
  C     -5.225000    7.594000    0.100000
  C      0.132000    4.307000    0.061000
  C     -0.569000    3.056000    0.047000
  C      1.649000    2.618000    0.023000
  C     -2.239000    5.361000    0.260000
  N     -4.383000    6.377000    0.110000
  N      0.388000    2.067000    0.025000
  N     -2.010000    0.395000   -0.075000
  N     -0.388000   -2.074000   -0.027000
  N      2.010000   -0.401000    0.065000
  C     -1.960000    2.861000    0.024000
  C     -2.623000    1.615000   -0.018000
  C     -5.573000   -4.329000    1.066000
  C     -4.073000    1.471000    0.056000
  C     -4.106000   -2.756000   -0.026000
  C     -4.995000   -2.757000   -1.111000
  C     -6.132000   -3.542000   -1.076000
  C     -7.651000   -5.113000    0.040000
  C     -4.324000    0.141000    0.037000
  C     -3.025000   -0.520000   -0.048000
  C     -4.422000   -3.566000    1.075000
  N     -6.407000   -4.313000    0.001000
  C     -2.867000   -1.922000   -0.040000
  C     -1.650000   -2.624000   -0.027000
  C      3.568000   -6.142000   -1.040000
  C     -1.476000   -4.049000   -0.034000
  C      2.803000   -4.099000   -0.008000
  C      3.657000   -4.384000    1.069000
  C      4.427000   -5.530000    1.059000
  C      5.245000   -7.588000    0.014000
  C     -0.134000   -4.315000   -0.022000
  C      0.568000   -3.064000   -0.027000
  C      2.775000   -5.012000   -1.074000
  N      4.376000   -6.391000    0.017000
  C      1.959000   -2.869000   -0.009000
  C      2.621000   -1.622000    0.009000
  C      5.543000    4.339000   -1.130000
  C      4.070000   -1.479000   -0.094000
  C      4.104000    2.751000   -0.021000
  C      5.027000    2.729000    1.036000
  C      6.166000    3.509000    0.978000
  C      7.619000    5.153000   -0.115000
  C      4.321000   -0.148000   -0.092000
  C      3.025000    0.514000    0.015000
  C      4.387000    3.582000   -1.115000
  C      2.866000    1.916000    0.013000
  N      6.413000    4.296000   -0.095000
  H     -2.658000    7.478000    0.460000
  H      2.274000    4.766000    0.081000
  H     -4.683000    3.072000   -0.310000
  H     -6.029000    5.165000   -0.246000
  H     -5.334000    7.943000   -0.930000
  H     -6.201000    7.349000    0.518000
  H     -4.741000    8.360000    0.705000
  H     -0.332000    5.282000    0.069000
  H     -1.174000    5.482000    0.421000
  H      0.182000    1.072000    0.005000
  H     -0.183000   -1.080000   -0.021000
  H     -5.864000   -4.962000    1.895000
  H     -4.794000    2.272000    0.139000
  H     -4.800000   -2.160000   -1.994000
  H     -6.841000   -3.582000   -1.893000
  H     -8.428000   -4.536000    0.546000
  H     -7.956000   -5.337000   -0.981000
  H     -7.456000   -6.037000    0.584000
  H     -5.287000   -0.344000    0.100000
  H     -3.780000   -3.601000    1.947000
  H      3.587000   -6.868000   -1.843000
  H     -2.276000   -4.774000   -0.050000
  H      3.714000   -3.724000    1.926000
  H      5.092000   -5.795000    1.871000
  H      6.205000   -7.329000   -0.439000
  H      5.393000   -7.917000    1.042000
  H      4.759000   -8.373000   -0.564000
  H      0.329000   -5.290000   -0.008000
  H      2.146000   -4.842000   -1.940000
  H      5.808000    4.986000   -1.956000
  H      4.788000   -2.281000   -0.185000
  H      4.860000    2.114000    1.912000
  H      6.901000    3.531000    1.772000
  H      7.383000    6.109000    0.356000
  H      8.414000    4.652000    0.435000
  H      7.921000    5.310000   -1.150000
  H      5.283000    0.336000   -0.179000
  H      3.720000    3.632000   -1.967000

----------------------------
CARTESIAN COORDINATES (A.U.)
----------------------------
  NO LB      ZA    FRAG     MASS         X           Y           Z
   0 C     6.0000    0    12.011   -5.757996   12.249205    0.544241
   1 C     6.0000    0    12.011    2.785456    7.636383    0.107714
   2 C     6.0000    0    12.011   -5.295013    7.734649    0.092597
   3 C     6.0000    0    12.011   -7.921732    7.596699   -0.251334
   4 C     6.0000    0    12.011   -9.365483    9.769884   -0.192752
   5 C     6.0000    0    12.011   -9.873819   14.350580    0.188973
   6 C     6.0000    0    12.011    0.249444    8.139050    0.115273
   7 C     6.0000    0    12.011   -1.075254    5.775003    0.088817
   8 C     6.0000    0    12.011    3.116158    4.947303    0.043464
   9 C     6.0000    0    12.011   -4.231097   10.130822    0.491329
  10 N     7.0000    0    14.007   -8.282670   12.050784    0.207870
  11 N     7.0000    0    14.007    0.733214    3.906064    0.047243
  12 N     7.0000    0    14.007   -3.798350    0.746442   -0.141729
  13 N     7.0000    0    14.007   -0.733214   -3.919292   -0.051023
  14 N     7.0000    0    14.007    3.798350   -0.757780    0.122832
  15 C     6.0000    0    12.011   -3.703863    5.406506    0.045353
  16 C     6.0000    0    12.011   -4.956752    3.051908   -0.034015
  17 C     6.0000    0    12.011  -10.531444   -8.180624    2.014448
  18 C     6.0000    0    12.011   -7.696855    2.779787    0.105825
  19 C     6.0000    0    12.011   -7.759216   -5.208085   -0.049133
  20 C     6.0000    0    12.011   -9.439182   -5.209975   -2.099486
  21 C     6.0000    0    12.011  -11.587801   -6.693410   -2.033345
  22 C     6.0000    0    12.011  -14.458295   -9.662170    0.075589
  23 C     6.0000    0    12.011   -8.171176    0.266451    0.069920
  24 C     6.0000    0    12.011   -5.716422   -0.982658   -0.090707
  25 C     6.0000    0    12.011   -8.356369   -6.738763    2.031456
  26 N     7.0000    0    14.007  -12.107475   -8.150389    0.001890
  27 C     6.0000    0    12.011   -5.417845   -3.632054   -0.075589
  28 C     6.0000    0    12.011   -3.118048   -4.958641   -0.051023
  29 C     6.0000    0    12.011    6.742543  -11.606698   -1.965315
  30 C     6.0000    0    12.011   -2.789236   -7.651501   -0.064251
  31 C     6.0000    0    12.011    5.296902   -7.745987   -0.015118
  32 C     6.0000    0    12.011    6.910728   -8.284559    2.020117
  33 C     6.0000    0    12.011    8.365818  -10.450186    2.001220
  34 C     6.0000    0    12.011    9.911614  -14.339242    0.026456
  35 C     6.0000    0    12.011   -0.253223   -8.154168   -0.041574
  36 C     6.0000    0    12.011    1.073364   -5.790121   -0.051023
  37 C     6.0000    0    12.011    5.243990   -9.471307   -2.029566
  38 N     7.0000    0    14.007    8.269442  -12.077240    0.032125
  39 C     6.0000    0    12.011    3.701973   -5.421624   -0.017008
  40 C     6.0000    0    12.011    4.952972   -3.065136    0.017008
  41 C     6.0000    0    12.011   10.474752    8.199522   -2.135391
  42 C     6.0000    0    12.011    7.691185   -2.794905   -0.177634
  43 C     6.0000    0    12.011    7.755436    5.198637   -0.039684
  44 C     6.0000    0    12.011    9.499653    5.157063    1.957756
  45 C     6.0000    0    12.011   11.652051    6.631049    1.848152
  46 C     6.0000    0    12.011   14.397823    9.737759   -0.217319
  47 C     6.0000    0    12.011    8.165507   -0.279679   -0.173855
  48 C     6.0000    0    12.011    5.716422    0.971319    0.028346
  49 C     6.0000    0    12.011    8.290229    6.768999   -2.107045
  50 C     6.0000    0    12.011    5.415955    3.620715    0.024566
  51 N     7.0000    0    14.007   12.118814    8.118263   -0.179524
  52 H     1.0000    0     1.008   -5.022892   14.131372    0.869274
  53 H     1.0000    0     1.008    4.297237    9.006435    0.153068
  54 H     1.0000    0     1.008   -8.849587    5.805239   -0.585815
  55 H     1.0000    0     1.008  -11.393159    9.760435   -0.464873
  56 H     1.0000    0     1.008  -10.079799   15.010095   -1.757445
  57 H     1.0000    0     1.008  -11.718192   13.887597    0.978878
  58 H     1.0000    0     1.008   -8.959192   15.798110    1.332257
  59 H     1.0000    0     1.008   -0.627389    9.981533    0.130391
  60 H     1.0000    0     1.008   -2.218538   10.359479    0.795575
  61 H     1.0000    0     1.008    0.343930    2.025786    0.009449
  62 H     1.0000    0     1.008   -0.345820   -2.040904   -0.039684
  63 H     1.0000    0     1.008  -11.081354   -9.376821    3.581031
  64 H     1.0000    0     1.008   -9.059347    4.293458    0.262672
  65 H     1.0000    0     1.008   -9.070685   -4.081808   -3.768114
  66 H     1.0000    0     1.008  -12.927616   -6.768999   -3.577252
  67 H     1.0000    0     1.008  -15.926612   -8.571798    1.031790
  68 H     1.0000    0     1.008  -15.034661  -10.085468   -1.853821
  69 H     1.0000    0     1.008  -14.089798  -11.408277    1.103600
  70 H     1.0000    0     1.008   -9.990982   -0.650066    0.188973
  71 H     1.0000    0     1.008   -7.143165   -6.804904    3.679297
  72 H     1.0000    0     1.008    6.778448  -12.978639   -3.482765
  73 H     1.0000    0     1.008   -4.301017   -9.021553   -0.094486
  74 H     1.0000    0     1.008    7.018443   -7.037340    3.639613
  75 H     1.0000    0     1.008    9.622485  -10.950963    3.535678
  76 H     1.0000    0     1.008   11.725751  -13.849803   -0.829590
  77 H     1.0000    0     1.008   10.191293  -14.960962    1.969095
  78 H     1.0000    0     1.008    8.993207  -15.822677   -1.065806
  79 H     1.0000    0     1.008    0.621720   -9.996651   -0.015118
  80 H     1.0000    0     1.008    4.055352   -9.150054   -3.666069
  81 H     1.0000    0     1.008   10.975529    9.422175   -3.696304
  82 H     1.0000    0     1.008    9.048009   -4.310465   -0.349599
  83 H     1.0000    0     1.008    9.184069    3.994881    3.613156
  84 H     1.0000    0     1.008   13.041000    6.672623    3.348595
  85 H     1.0000    0     1.008   13.951848   11.544337    0.672743
  86 H     1.0000    0     1.008   15.900156    8.791006    0.822031
  87 H     1.0000    0     1.008   14.968521   10.034446   -2.173185
  88 H     1.0000    0     1.008    9.983423    0.634948   -0.338261
  89 H     1.0000    0     1.008    7.029781    6.863485   -3.717091

--------------------------------
INTERNAL COORDINATES (ANGSTROEM)
--------------------------------
 C      0   0   0     0.000000000000     0.00000000     0.00000000
 C      1   0   0     5.143081080442     0.00000000     0.00000000
 C      1   2   0     2.413393254321    55.70133279     0.00000000
 C      3   1   2     1.403763869032    87.92517890   186.94078167
 C      4   3   1     1.380998551773   120.10482912     0.15535493
 C      5   4   3     2.447231292706   152.55938767     1.56475196
 C      2   1   3     1.368114030335    17.31619846     2.59742455
 C      7   2   1     1.434084376876   108.05010202   187.49310202
 C      2   1   3     1.434123425651   125.39906956   354.71249524
 C      1   2   3     1.382132048684    25.87479996     7.77455015
 N      1   2   3     1.351889418555   145.68352684   347.68808368
 N      9   2   1     1.376127174356   106.58526707     1.70129686
 N     12   9   2     2.925062050624   168.53581413   171.12065651
 N     13  12   9     2.954513327098    91.55032014    11.12112580
 N     14  13  12     2.925371258490    88.43092389   359.84326247
 C      8   7   2     1.404790019896   127.24786865   181.11170171
 C     13  12   9     1.366535034311    81.72106996   188.00453233
 C     14  13  12     5.758810554272    80.56209567   166.76250791
 C     17  13  12     1.459010623676   111.08861209   183.82872609
 C     18  14  13     2.412235892279    27.27532823    36.33507194
 C     20  18  14     1.402692767501    87.95206320   148.94598259
 C     21  20  18     1.382106725257   120.14573887   359.70382047
 C     18  14  13     2.446510985056   144.15733107    82.80075377
 C     19  17  13     1.353610726908   106.29293361   359.75308708
 C     13  12   9     1.366813447402   172.21332906    33.46711076
 C     18  14  13     1.380960173213    15.08449437   309.23336894
 N     22  21  20     1.352773077792   120.73759875     0.27865223
 C     25  13  17     1.410897586645   125.60330303   182.37774668
 C     14  13  12     1.376642291955    80.24689249   177.85461986
 C     14  13  12     5.764089607215   164.51507311   312.20821879
 C     29  14  13     1.435600919476   106.58649366   178.76395472
 C     30  14  13     2.413316804732    27.10625047    82.12560436
 C     32  30  14     1.403734305344    87.90059683   149.76154742
 C     33  32  30     1.380694028378   120.14881443   359.74174632
 C     34  33  32     2.448777858443   152.49203239     2.45173620
 C     31  29  14     1.368160809262   108.16950133     0.70383075
 C     14  13  12     1.376239804685   169.26375223   353.09862627
 C     30  14  13     1.380907310430    14.68948582   353.70041132
 N     34  33  32     1.352658863128   120.85575621     0.19603406
 C     37  14  29     1.404717053360   126.01551127   180.90772073
 C     15  14  13     1.366491126938    81.61824056   183.09049352
 C      2   1   3     4.249062720177   145.19048826   149.71192527
 C     41  15  14     1.459677704153   111.05201287   175.08990246
 C     42   2   1     2.412953791518    41.78584867   176.53753998
 C     44  42   2     1.403446472082    87.95153797   233.97558675
 C     45  44  42     1.381696421071   120.11137308     0.19721020
 C     42   2   1     2.450019795838   135.97209175    86.85238908
 C     43  41  15     1.354461516618   106.26758155     0.30894352
 C     15  14  13     1.367461151185   171.87382904   332.35056460
 C     42   2   1     1.381886391857    32.59078432   225.39281917
 C      9   2   1     1.404988612053   126.98745415   182.70563439
 N     42   2   1     1.352765315936   113.57249190   114.58897828
 H      1   2   3     1.083014773676    97.34713600   176.23745850
 H      2   1   3     1.079907866440   109.36380507   177.13199073
 H      4   3   1     1.082180206805   121.06604829   179.47409906
 H      5   4   3     1.082631054423   122.78375287   179.43119878
 H      6   5   4     1.092969349982   104.44543102   100.13518321
 H      6   5   4     1.089644437420    84.68740905   209.57320247
 H      6   5   4     1.089512276204   133.89966164   322.43722656
 H      7   2   1     1.079807853278   126.66122480     7.73151580
 H     60   7   2     0.934274049731   125.68645820   207.40129536
 H     12   9   2     1.016297692608   125.29023241   180.00180175
 H     14  13  12     1.014936943854    44.97226959   359.42596618
 H     18  14  13     1.082871645210   128.03556573   234.20482432
 H     55   4   3     0.924079000952   137.17331393    61.53891221
 H     21  20  18     1.083569563987   121.05669627   180.67006309
 H     22  21  20     1.082483256222   122.73097286   180.59748951
 H     23  18  14     1.092105306278   103.92715769   234.93429879
 H     23  18  14     1.088871893291   134.19244188    12.25587044
 H     23  18  14     1.089833473518    84.85857450   125.45241208
 H     24  19  17     1.080075460327   127.28078426   178.44613241
 H     26  18  14     1.083408048706   118.76995697   244.94906660
 H     30  14  13     1.082703098730   127.99711412   279.66882698
 H     31  29  14     1.079759695488   125.22293469   180.92530585
 H     33  32  30     1.083188810873   121.01964473   180.74284758
 H     34  33  32     1.082494341787   122.70821597   180.59516895
 H     35  34  33     1.092652735319   105.73575241    97.19771933
 H     35  34  33     1.089462711615    84.05943581   206.43036958
 H     35  34  33     1.089268102902   133.08365142   318.50306270
 H     36  31  29     1.079439669458   126.61599965   178.98859863
 H     38  30  73     1.083742127999   118.77264435   359.90091293
 H     42   2   1     1.082178358682   119.31790784   331.22050873
 H     43  41  15     1.080281907652   126.36969097   182.06329380
 H     45  44  42     1.083277434455   121.10105945   179.58025624
 H     46  45  44     1.082194529648   122.72144639   179.46906377
 H     47  42   2     1.091546151109   106.65128841   315.16475048
 H     47  42   2     1.088818625851   132.46019523    94.52397119
 H     47  42   2     1.089531091801    83.63838232   206.04504406
 H     48  43  41     1.080402239909   127.23657387   181.62955349
 H     50  42   2     1.083186502870   118.77001737    94.71359229

---------------------------
INTERNAL COORDINATES (A.U.)
---------------------------
 C      0   0   0     0.000000000000     0.00000000     0.00000000
 C      1   0   0     9.719014726587     0.00000000     0.00000000
 C      1   2   0     4.560652304119    55.70133279     0.00000000
 C      3   1   2     2.652729269164    87.92517890   186.94078167
 C      4   3   1     2.609709054193   120.10482912     0.15535493
 C      5   4   3     4.624596929577   152.55938767     1.56475196
 C      2   1   3     2.585360837309    17.31619846     2.59742455
 C      7   2   1     2.710026725231   108.05010202   187.49310202
 C      2   1   3     2.710100516721   125.39906956   354.71249524
 C      1   2   3     2.611851052929    25.87479996     7.77455015
 N      1   2   3     2.554700764414   145.68352684   347.68808368
 N      9   2   1     2.600503484979   106.58526707     1.70129686
 N     12   9   2     5.527566200405   168.53581413   171.12065651
 N     13  12   9     5.583221047236    91.55032014    11.12112580
 N     14  13  12     5.528150518591    88.43092389   359.84326247
 C      8   7   2     2.654668413270   127.24786865   181.11170171
 C     13  12   9     2.582376967257    81.72106996   188.00453233
 C     14  13  12    10.882574804710    80.56209567   166.76250791
 C     17  13  12     2.757130505230   111.08861209   183.82872609
 C     18  14  13     4.558465206823    27.27532823    36.33507194
 C     20  18  14     2.650705180609    87.95206320   148.94598259
 C     21  20  18     2.611803198586   120.14573887   359.70382047
 C     18  14  13     4.623235745386   144.15733107    82.80075377
 C     19  17  13     2.557953565794   106.29293361   359.75308708
 C     13  12   9     2.582903091751   172.21332906    33.46711076
 C     18  14  13     2.609636529225    15.08449437   309.23336894
 N     22  21  20     2.556370638369   120.73759875     0.27865223
 C     25  13  17     2.666210041769   125.60330303   182.37774668
 C     14  13  12     2.601476916169    80.24689249   177.85461986
 C     14  13  12    10.892550769017   164.51507311   312.20821879
 C     29  14  13     2.712892575415   106.58649366   178.76395472
 C     30  14  13     4.560507835333    27.10625047    82.12560436
 C     32  30  14     2.652673401891    87.90059683   149.76154742
 C     33  32  30     2.609133588376   120.14881443   359.74174632
 C     34  33  32     4.627519515267   152.49203239     2.45173620
 C     31  29  14     2.585449236669   108.16950133     0.70383075
 C     14  13  12     2.600716325456   169.26375223   353.09862627
 C     30  14  13     2.609536633043    14.68948582   353.70041132
 N     34  33  32     2.556154803934   120.85575621     0.19603406
 C     37  14  29     2.654530526499   126.01551127   180.90772073
 C     15  14  13     2.582293994346    81.61824056   183.09049352
 C      2   1   3     8.029564866989   145.19048826   149.71192527
 C     41  15  14     2.758391104639   111.05201287   175.08990246
 C     42   2   1     4.559821839776    41.78584867   176.53753998
 C     44  42   2     2.652129475853    87.95153797   233.97558675
 C     45  44  42     2.611027836043   120.11137308     0.19721020
 C     42   2   1     4.629866436820   135.97209175    86.85238908
 C     43  41  15     2.559561325344   106.26758155     0.30894352
 C     15  14  13     2.584127074516   171.87382904   332.35056460
 C     42   2   1     2.611386828803    32.59078432   225.39281917
 C      9   2   1     2.655043698059   126.98745415   182.70563439
 N     42   2   1     2.556355970587   113.57249190   114.58897828
 H      1   2   3     2.046601321238    97.34713600   176.23745850
 H      2   1   3     2.040730117440   109.36380507   177.13199073
 H      4   3   1     2.045024218411   121.06604829   179.47409906
 H      5   4   3     2.045876196937   122.78375287   179.43119878
 H      6   5   4     2.065412744236   104.44543102   100.13518321
 H      6   5   4     2.059129570074    84.68740905   209.57320247
 H      6   5   4     2.058879821571   133.89966164   322.43722656
 H      7   2   1     2.040541119952   126.66122480     7.73151580
 H     60   7   2     1.765522088020   125.68645820   207.40129536
 H     12   9   2     1.920524309565   125.29023241   180.00180175
 H     14  13  12     1.917952867083    44.97226959   359.42596618
 H     18  14  13     2.046330847636   128.03556573   234.20482432
 H     55   4   3     1.746256237906   137.17331393    61.53891221
 H     21  20  18     2.047649722989   121.05669627   180.67006309
 H     22  21  20     2.045596898814   122.73097286   180.59748951
 H     23  18  14     2.063779938267   103.92715769   234.93429879
 H     23  18  14     2.057669673245   134.19244188    12.25587044
 H     23  18  14     2.059486796529    84.85857450   125.45241208
 H     24  19  17     2.041046823986   127.28078426   178.44613241
 H     26  18  14     2.047344503340   118.76995697   244.94906660
 H     30  14  13     2.046012340948   127.99711412   279.66882698
 H     31  29  14     2.040450114918   125.22293469   180.92530585
 H     33  32  30     2.046930203877   121.01964473   180.74284758
 H     34  33  32     2.045617847496   122.70821597   180.59516895
 H     35  34  33     2.064814429233   105.73575241    97.19771933
 H     35  34  33     2.058786158072    84.05943581   206.43036958
 H     35  34  33     2.058418400901   133.08365142   318.50306270
 H     36  31  29     2.039845353366   126.61599965   178.98859863
 H     38  30  73     2.047975821711   118.77264435   359.90091293
 H     42   2   1     2.045020725966   119.31790784   331.22050873
 H     43  41  15     2.041436952892   126.36969097   182.06329380
 H     45  44  42     2.047097678177   121.10105945   179.58025624
 H     46  45  44     2.045051284662   122.72144639   179.46906377
 H     47  42   2     2.062723288131   106.65128841   315.16475048
 H     47  42   2     2.057569012371   132.46019523    94.52397119
 H     47  42   2     2.058915377895    83.63838232   206.04504406
 H     48  43  41     2.041664347903   127.23657387   181.62955349
 H     50  42   2     2.046925842384   118.77001737    94.71359229

---------------------
BASIS SET INFORMATION
---------------------
There are 3 groups of distinct atoms

 Group   1 Type C   : 17s4p1d contracted to 3s2p1d pattern {881/31/1}
 Group   2 Type N   : 17s4p1d contracted to 3s2p1d pattern {881/31/1}
 Group   3 Type H   : 4s1p contracted to 2s1p pattern {31/1}

Atom   0C    basis set group =>   1
Atom   1N    basis set group =>   2
Atom   2C    basis set group =>   1
Atom   3N    basis set group =>   2
Atom   4C    basis set group =>   1
Atom   5N    basis set group =>   2
Atom   6C    basis set group =>   1
Atom   7N    basis set group =>   2
Atom   8C    basis set group =>   1
Atom   9N    basis set group =>   2
Atom  10C    basis set group =>   1
Atom  11N    basis set group =>   2
Atom  12C    basis set group =>   1
Atom  13N    basis set group =>   2
Atom  14C    basis set group =>   1
Atom  15N    basis set group =>   2
Atom  16C    basis set group =>   1
Atom  17C    basis set group =>   1
Atom  18C    basis set group =>   1
Atom  19C    basis set group =>   1
Atom  20C    basis set group =>   1
Atom  21C    basis set group =>   1
Atom  22C    basis set group =>   1
Atom  23C    basis set group =>   1
Atom  24C    basis set group =>   1
Atom  25C    basis set group =>   1
Atom  26C    basis set group =>   1
Atom  27C    basis set group =>   1
Atom  28C    basis set group =>   1
Atom  29C    basis set group =>   1
Atom  30C    basis set group =>   1
Atom  31C    basis set group =>   1
Atom  32C    basis set group =>   1
Atom  33C    basis set group =>   1
Atom  34C    basis set group =>   1
Atom  35C    basis set group =>   1
Atom  36C    basis set group =>   1
Atom  37C    basis set group =>   1
Atom  38C    basis set group =>   1
Atom  39C    basis set group =>   1
Atom  40C    basis set group =>   1
Atom  41C    basis set group =>   1
Atom  42C    basis set group =>   1
Atom  43C    basis set group =>   1
Atom  44C    basis set group =>   1
Atom  45C    basis set group =>   1
Atom  46C    basis set group =>   1
Atom  47C    basis set group =>   1
Atom  48C    basis set group =>   1
Atom  49C    basis set group =>   1
Atom  50C    basis set group =>   1
Atom  51C    basis set group =>   1
Atom  52H    basis set group =>   3
Atom  53H    basis set group =>   3
Atom  54H    basis set group =>   3
Atom  55H    basis set group =>   3
Atom  56H    basis set group =>   3
Atom  57H    basis set group =>   3
Atom  58H    basis set group =>   3
Atom  59H    basis set group =>   3
Atom  60H    basis set group =>   3
Atom  61H    basis set group =>   3
Atom  62H    basis set group =>   3
Atom  63H    basis set group =>   3
Atom  64H    basis set group =>   3
Atom  65H    basis set group =>   3
Atom  66H    basis set group =>   3
Atom  67H    basis set group =>   3
Atom  68H    basis set group =>   3
Atom  69H    basis set group =>   3
Atom  70H    basis set group =>   3
Atom  71H    basis set group =>   3
Atom  72H    basis set group =>   3
Atom  73H    basis set group =>   3
Atom  74H    basis set group =>   3
Atom  75H    basis set group =>   3
Atom  76H    basis set group =>   3
Atom  77H    basis set group =>   3
Atom  78H    basis set group =>   3
Atom  79H    basis set group =>   3
Atom  80H    basis set group =>   3
Atom  81H    basis set group =>   3
Atom  82H    basis set group =>   3
Atom  83H    basis set group =>   3
Atom  84H    basis set group =>   3
Atom  85H    basis set group =>   3
Atom  86H    basis set group =>   3
Atom  87H    basis set group =>   3
Atom  88H    basis set group =>   3
Atom  89H    basis set group =>   3


           ************************************************************
           *        Program running with 8 parallel MPI-processes     *
           *              working on a common directory               *
           ************************************************************
------------------------------------------------------------------------------
                           ORCA GTO INTEGRAL CALCULATION
------------------------------------------------------------------------------
------------------------------------------------------------------------------
                   ___                                                        
                  /   \      - P O W E R E D   B Y -                         
                 /     \                                                     
                 |  |  |   _    _      __       _____    __    __             
                 |  |  |  | |  | |    /  \     |  _  \  |  |  /  |          
                  \  \/   | |  | |   /    \    | | | |  |  | /  /          
                 / \  \   | |__| |  /  /\  \   | |_| |  |  |/  /          
                |  |  |   |  __  | /  /__\  \  |    /   |      \           
                |  |  |   | |  | | |   __   |  |    \   |  |\   \          
                \     /   | |  | | |  |  |  |  | |\  \  |  | \   \       
                 \___/    |_|  |_| |__|  |__|  |_| \__\ |__|  \__/        
                                                                              
                      - O R C A' S   B I G   F R I E N D -                    
                                      &                                       
                       - I N T E G R A L  F E E D E R -                       
                                                                              
 v1 FN, 2020, v2 2021                                                         
------------------------------------------------------------------------------


Reading SHARK input file /scratch/chu_02/allen/tmpyp4_amber_gaff2/conf1/conf1/Conf353.orca.SHARKINP.tmp ... ok
----------------------
SHARK INTEGRAL PACKAGE
----------------------

Number of atoms                             ...     90
Number of basis functions                   ...   1230
Number of shells                            ...    738
Maximum angular momentum                    ...      2
Integral batch strategy                     ... SHARK/LIBINT Hybrid
RI-J (if used) integral strategy            ... SPLIT-RIJ (Revised 2003 algorithm where possible)
Printlevel                                  ...      1
Contraction scheme used                     ... PARTIAL GENERAL contraction
Coulomb Range Separation                    ... NOT USED
Exchange Range Separation                   ... NOT USED
Finite Nucleus Model                        ... NOT USED
Auxiliary Coulomb fitting basis             ... NOT available
Auxiliary J/K fitting basis                 ... NOT available
Auxiliary Correlation fitting basis         ... NOT available
Auxiliary 'external' fitting basis          ... NOT available
Integral threshold                          ...     2.500000e-11
Primitive cut-off                           ...     2.500000e-12
Primitive pair pre-selection threshold      ...     2.500000e-12

Calculating pre-screening integrals         ... done (  0.1 sec) Dimension = 738
Calculating pre-screening integrals (ORCA)  ... done (  0.3 sec) Dimension = 426
Organizing shell pair data                  ... done (  0.5 sec)
Shell pair information
Total number of shell pairs                 ...    272691
Shell pairs after pre-screening             ...     71724
Total number of primitive shell pairs       ...    422091
Primitive shell pairs kept                  ...     92637
          la=0 lb=0:  29436 shell pairs
          la=1 lb=0:  26039 shell pairs
          la=1 lb=1:   4700 shell pairs
          la=2 lb=0:   7892 shell pairs
          la=2 lb=1:   3128 shell pairs
          la=2 lb=2:    529 shell pairs

Calculating one electron integrals          ... done (  0.2 sec)
Calculating Nuclear repulsion               ... done (  0.0 sec) ENN=   6235.309124015313 Eh

SHARK setup successfully completed in   1.6 seconds

Maximum memory used throughout the entire GTOINT-calculation: 99.1 MB


           ************************************************************
           *        Program running with 8 parallel MPI-processes     *
           *              working on a common directory               *
           ************************************************************
-------------------------------------------------------------------------------
                                 ORCA SCF
-------------------------------------------------------------------------------

------------
SCF SETTINGS
------------
Hamiltonian:
 Ab initio Hamiltonian  Method          .... Hartree-Fock(GTOs)


General Settings:
 Integral files         IntName         .... /scratch/chu_02/allen/tmpyp4_amber_gaff2/conf1/conf1/Conf353.orca
 Hartree-Fock type      HFTyp           .... RHF
 Total Charge           Charge          ....    0
 Multiplicity           Mult            ....    1
 Number of Electrons    NEL             ....  358
 Basis Dimension        Dim             ....  918
 Nuclear Repulsion      ENuc            ....   6235.3091240153 Eh

Convergence Acceleration:
 DIIS                   CNVDIIS         .... on
   Start iteration      DIISMaxIt       ....    12
   Startup error        DIISStart       ....  0.200000
   # of expansion vecs  DIISMaxEq       ....     5
   Bias factor          DIISBfac        ....   1.050
   Max. coefficient     DIISMaxC        ....  10.000
 Trust-Rad. Augm. Hess. CNVTRAH         .... auto
   Auto Start mean grad. ratio tolernc. ....  1.125000
   Auto Start start iteration           ....    20
   Auto Start num. interpolation iter.  ....    10
   Max. Number of Micro iterations      ....    16
   Max. Number of Macro iterations      .... Maxiter - #DIIS iter
   Number of Davidson start vectors     ....     2
   Converg. threshold I  (grad. norm)   ....   1.000e-05
   Converg. threshold II (energy diff.) ....   1.000e-08
   Grad. Scal. Fac. for Micro threshold ....   0.100
   Minimum threshold for Micro iter.    ....   0.010
   NR start threshold (gradient norm)   ....   0.001
   Initial trust radius                 ....   0.400
   Minimum AH scaling param. (alpha)    ....   1.000
   Maximum AH scaling param. (alpha)    .... 1000.000
   Orbital update algorithm             .... Taylor
   White noise on init. David. guess    .... on
   Maximum white noise                  ....   0.010
   Quad. conv. algorithm                .... NR
 SOSCF                  CNVSOSCF        .... on
   Start iteration      SOSCFMaxIt      ....   150
   Startup grad/error   SOSCFStart      ....  0.003300
 Level Shifting         CNVShift        .... on
   Level shift para.    LevelShift      ....    0.2500
   Turn off err/grad.   ShiftErr        ....    0.0010
 Zerner damping         CNVZerner       .... off
 Static damping         CNVDamp         .... on
   Fraction old density DampFac         ....    0.7000
   Max. Damping (<1)    DampMax         ....    0.9800
   Min. Damping (>=0)   DampMin         ....    0.0000
   Turn off err/grad.   DampErr         ....    0.1000
 Fernandez-Rico         CNVRico         .... off

SCF Procedure:
 Maximum # iterations   MaxIter         ....   125
 SCF integral mode      SCFMode         .... Direct
   Integral package                     .... SHARK and LIBINT hybrid scheme
 Reset frequency        DirectResetFreq ....    20
 Integral Threshold     Thresh          ....  2.500e-11 Eh
 Primitive CutOff       TCut            ....  2.500e-12 Eh

Convergence Tolerance:
 Convergence Check Mode ConvCheckMode   .... Total+1el-Energy
 Convergence forced     ConvForced      .... 1
 Energy Change          TolE            ....  1.000e-08 Eh
 1-El. energy change                    ....  1.000e-05 Eh
 Orbital Gradient       TolG            ....  1.000e-05
 Orbital Rotation angle TolX            ....  1.000e-05
 DIIS Error             TolErr          ....  5.000e-07


Diagonalization of the overlap matrix:
Smallest eigenvalue                        ... 1.671e-04
Time for diagonalization                   ...    0.214 sec
Threshold for overlap eigenvalues          ... 1.000e-08
Number of eigenvalues below threshold      ... 0
Time for construction of square roots      ...    0.120 sec
Total time needed                          ...    0.338 sec

Time for model grid setup =    1.375 sec

------------------------------
INITIAL GUESS: MODEL POTENTIAL
------------------------------
Loading Hartree-Fock densities                     ... done
Calculating cut-offs                               ... done
Initializing the effective Hamiltonian             ... done
Setting up the integral package (SHARK)            ... done
Starting the Coulomb interaction                   ... done (   1.6 sec)
Reading the grid                                   ... done
Mapping shells                                     ... done
Starting the XC term evaluation                    ... done (   0.3 sec)
Transforming the Hamiltonian                       ... done (   0.1 sec)
Diagonalizing the Hamiltonian                      ... done (   0.2 sec)
Back transforming the eigenvectors                 ... done (   0.0 sec)
Now organizing SCF variables                       ... done
                      ------------------
                      INITIAL GUESS DONE (   3.7 sec)
                      ------------------
--------------
SCF ITERATIONS
--------------
ITER       Energy         Delta-E        Max-DP      RMS-DP      [F,P]     Damp
               ***  Starting incremental Fock matrix formation  ***
  0  -2121.5965033073   0.000000000000 0.07956928  0.00129333  0.2311052 0.7000
  1  -2122.2373372098  -0.640833902526 0.06423510  0.00105587  0.1434469 0.7000
                               ***Turning on DIIS***
  2  -2122.6374061415  -0.400068931704 0.14056949  0.00239018  0.0803188 0.0000
  3  -2118.0497439661   4.587662175420 0.08694725  0.00072513  0.0433989 0.0000
  4  -2123.3386214672  -5.288877501111 0.02473234  0.00023798  0.0093269 0.0000
  5  -2123.4657172718  -0.127095804646 0.01202824  0.00013588  0.0048112 0.0000
  6  -2123.4496284616   0.016088810280 0.00757808  0.00008667  0.0022473 0.0000
  7  -2123.5411770585  -0.091548596894 0.00476638  0.00006785  0.0016325 0.0000
  8  -2123.5471526777  -0.005975619257 0.00379646  0.00006474  0.0015291 0.0000
  9  -2123.5209050650   0.026247612708 0.00268898  0.00004627  0.0012311 0.0000
 10  -2123.5283102244  -0.007405159409 0.00542137  0.00009715  0.0009652 0.0000
                      *** Initiating the SOSCF procedure ***
                           *** Shutting down DIIS ***
                      *** Re-Reading the Fockian *** 
                      *** Removing any level shift *** 
ITER      Energy       Delta-E        Grad      Rot      Max-DP    RMS-DP
 11  -2123.42342826   0.1048819633  0.000182  0.000182  0.000246  0.000005
               *** Restarting incremental Fock matrix formation ***
 12  -2123.48874539  -0.0653171242  0.000924  0.006187  0.001510  0.000036
 13  -2123.48885792  -0.0001125389  0.001131  0.030699  0.006864  0.000139
 14  -2123.48904311  -0.0001851888  0.000399  0.002032  0.000623  0.000013
 15  -2123.48905827  -0.0000151529  0.000174  0.002046  0.000482  0.000013
 16  -2123.48906469  -0.0000064223  0.000133  0.002052  0.000492  0.000008
 17  -2123.48906720  -0.0000025116  0.000121  0.001813  0.000285  0.000007
 18  -2123.48906830  -0.0000011052  0.000056  0.000920  0.000208  0.000004
 19  -2123.48906896  -0.0000006505  0.000042  0.001462  0.000231  0.000005
 20  -2123.48906937  -0.0000004189  0.000024  0.000865  0.000124  0.000003
 21  -2123.48906956  -0.0000001873  0.000027  0.001128  0.000159  0.000003
 22  -2123.48906975  -0.0000001881  0.000021  0.001018  0.000155  0.000003
 23  -2123.48906987  -0.0000001161  0.000015  0.000420  0.000070  0.000001
 24  -2123.48906992  -0.0000000496  0.000008  0.000292  0.000054  0.000001
 25  -2123.48906995  -0.0000000310  0.000008  0.000127  0.000039  0.000001
 26  -2123.48906996  -0.0000000161  0.000006  0.000076  0.000028  0.000000
 27  -2123.48906997  -0.0000000053  0.000003  0.000055  0.000020  0.000000
                  ***Gradient check signals convergence***
              ***Rediagonalizing the Fockian in SOSCF/NRSCF***

               *****************************************************
               *                     SUCCESS                       *
               *           SCF CONVERGED AFTER  28 CYCLES          *
               *****************************************************


----------------
TOTAL SCF ENERGY
----------------

Total Energy       :        -2123.48906997 Eh          -57783.07523 eV

Components:
Nuclear Repulsion  :         6235.30912402 Eh          169671.38719 eV
Electronic Energy  :        -8358.79819399 Eh         -227454.46242 eV
One Electron Energy:       -15311.09928705 Eh         -416636.19298 eV
Two Electron Energy:         6952.30109307 Eh          189181.73056 eV

Virial components:
Potential Energy   :        -4246.05032086 Eh         -115540.90322 eV
Kinetic Energy     :         2122.56125089 Eh           57757.82799 eV
Virial Ratio       :            2.00043712


---------------
SCF CONVERGENCE
---------------

  Last Energy change         ...   -4.4711e-09  Tolerance :   1.0000e-08
  Last MAX-Density change    ...    9.4906e-06  Tolerance :   1.0000e-07
  Last RMS-Density change    ...    1.7667e-07  Tolerance :   5.0000e-09
  Last Orbital Gradient      ...    1.7315e-06  Tolerance :   1.0000e-05
  Last Orbital Rotation      ...    4.0367e-05  Tolerance :   1.0000e-05

             **** THE GBW FILE WAS UPDATED (/scratch/chu_02/allen/tmpyp4_amber_gaff2/conf1/conf1/Conf353.orca.gbw) ****
             **** DENSITY /scratch/chu_02/allen/tmpyp4_amber_gaff2/conf1/conf1/Conf353.orca.scfp WAS UPDATED ****
             **** ENERGY FILE WAS UPDATED (/scratch/chu_02/allen/tmpyp4_amber_gaff2/conf1/conf1/Conf353.orca.en.tmp) ****
             **** THE GBW FILE WAS UPDATED (/scratch/chu_02/allen/tmpyp4_amber_gaff2/conf1/conf1/Conf353.orca.gbw) ****
             **** DENSITY /scratch/chu_02/allen/tmpyp4_amber_gaff2/conf1/conf1/Conf353.orca.scfp WAS UPDATED ****
----------------
ORBITAL ENERGIES
----------------

  NO   OCC          E(Eh)            E(eV) 
   0   2.0000     -15.680504      -426.6882 
   1   2.0000     -15.634262      -425.4299 
   2   2.0000     -15.631757      -425.3617 
   3   2.0000     -15.587598      -424.1601 
   4   2.0000     -15.525245      -422.4634 
   5   2.0000     -15.515327      -422.1935 
   6   2.0000     -15.453874      -420.5213 
   7   2.0000     -15.439775      -420.1376 
   8   2.0000     -11.330020      -308.3055 
   9   2.0000     -11.328937      -308.2760 
  10   2.0000     -11.328365      -308.2605 
  11   2.0000     -11.299498      -307.4750 
  12   2.0000     -11.298317      -307.4428 
  13   2.0000     -11.293257      -307.3051 
  14   2.0000     -11.291211      -307.2495 
  15   2.0000     -11.286819      -307.1300 
  16   2.0000     -11.286387      -307.1182 
  17   2.0000     -11.282711      -307.0182 
  18   2.0000     -11.269435      -306.6569 
  19   2.0000     -11.263854      -306.5050 
  20   2.0000     -11.262856      -306.4779 
  21   2.0000     -11.251258      -306.1623 
  22   2.0000     -11.247641      -306.0639 
  23   2.0000     -11.238037      -305.8025 
  24   2.0000     -11.236539      -305.7618 
  25   2.0000     -11.231328      -305.6200 
  26   2.0000     -11.230665      -305.6019 
  27   2.0000     -11.229678      -305.5751 
  28   2.0000     -11.229407      -305.5677 
  29   2.0000     -11.211352      -305.0764 
  30   2.0000     -11.209954      -305.0384 
  31   2.0000     -11.193238      -304.5835 
  32   2.0000     -11.191767      -304.5435 
  33   2.0000     -11.191384      -304.5330 
  34   2.0000     -11.188542      -304.4557 
  35   2.0000     -11.187988      -304.4406 
  36   2.0000     -11.187096      -304.4163 
  37   2.0000     -11.175094      -304.0898 
  38   2.0000     -11.173345      -304.0422 
  39   2.0000     -11.172401      -304.0165 
  40   2.0000     -11.170564      -303.9665 
  41   2.0000     -11.169684      -303.9425 
  42   2.0000     -11.168732      -303.9166 
  43   2.0000     -11.162069      -303.7353 
  44   2.0000     -11.160548      -303.6940 
  45   2.0000     -11.156721      -303.5898 
  46   2.0000     -11.156567      -303.5856 
  47   2.0000     -11.151569      -303.4496 
  48   2.0000     -11.146520      -303.3122 
  49   2.0000     -11.134971      -302.9980 
  50   2.0000     -11.129407      -302.8466 
  51   2.0000     -11.116709      -302.5010 
  52   2.0000      -1.360980       -37.0341 
  53   2.0000      -1.321468       -35.9590 
  54   2.0000      -1.319549       -35.9067 
  55   2.0000      -1.280137       -34.8343 
  56   2.0000      -1.226429       -33.3728 
  57   2.0000      -1.210111       -32.9288 
  58   2.0000      -1.173574       -31.9346 
  59   2.0000      -1.150763       -31.3139 
  60   2.0000      -1.144141       -31.1337 
  61   2.0000      -1.110471       -30.2175 
  62   2.0000      -1.108884       -30.1743 
  63   2.0000      -1.082625       -29.4597 
  64   2.0000      -1.076638       -29.2968 
  65   2.0000      -1.045644       -28.4534 
  66   2.0000      -1.044188       -28.4138 
  67   2.0000      -1.041485       -28.3403 
  68   2.0000      -1.015052       -27.6210 
  69   2.0000      -1.013355       -27.5748 
  70   2.0000      -1.008866       -27.4527 
  71   2.0000      -0.993834       -27.0436 
  72   2.0000      -0.985419       -26.8146 
  73   2.0000      -0.982041       -26.7227 
  74   2.0000      -0.973289       -26.4845 
  75   2.0000      -0.962146       -26.1813 
  76   2.0000      -0.954749       -25.9800 
  77   2.0000      -0.945934       -25.7402 
  78   2.0000      -0.937997       -25.5242 
  79   2.0000      -0.916729       -24.9455 
  80   2.0000      -0.911049       -24.7909 
  81   2.0000      -0.897633       -24.4258 
  82   2.0000      -0.877186       -23.8694 
  83   2.0000      -0.872574       -23.7439 
  84   2.0000      -0.870637       -23.6912 
  85   2.0000      -0.860471       -23.4146 
  86   2.0000      -0.842929       -22.9373 
  87   2.0000      -0.837265       -22.7831 
  88   2.0000      -0.828372       -22.5411 
  89   2.0000      -0.796445       -21.6724 
  90   2.0000      -0.788738       -21.4626 
  91   2.0000      -0.768054       -20.8998 
  92   2.0000      -0.753408       -20.5013 
  93   2.0000      -0.733994       -19.9730 
  94   2.0000      -0.727444       -19.7948 
  95   2.0000      -0.724858       -19.7244 
  96   2.0000      -0.719519       -19.5791 
  97   2.0000      -0.717616       -19.5273 
  98   2.0000      -0.713227       -19.4079 
  99   2.0000      -0.698637       -19.0109 
 100   2.0000      -0.698037       -18.9945 
 101   2.0000      -0.693213       -18.8633 
 102   2.0000      -0.685649       -18.6574 
 103   2.0000      -0.684719       -18.6322 
 104   2.0000      -0.678979       -18.4759 
 105   2.0000      -0.674465       -18.3531 
 106   2.0000      -0.672801       -18.3078 
 107   2.0000      -0.660402       -17.9704 
 108   2.0000      -0.658123       -17.9084 
 109   2.0000      -0.653065       -17.7708 
 110   2.0000      -0.651915       -17.7395 
 111   2.0000      -0.646661       -17.5965 
 112   2.0000      -0.645699       -17.5704 
 113   2.0000      -0.637843       -17.3566 
 114   2.0000      -0.635608       -17.2958 
 115   2.0000      -0.628081       -17.0909 
 116   2.0000      -0.622787       -16.9469 
 117   2.0000      -0.620437       -16.8830 
 118   2.0000      -0.613318       -16.6892 
 119   2.0000      -0.612525       -16.6677 
 120   2.0000      -0.611937       -16.6517 
 121   2.0000      -0.611313       -16.6347 
 122   2.0000      -0.600923       -16.3519 
 123   2.0000      -0.588678       -16.0187 
 124   2.0000      -0.581813       -15.8319 
 125   2.0000      -0.580834       -15.8053 
 126   2.0000      -0.580234       -15.7890 
 127   2.0000      -0.571543       -15.5525 
 128   2.0000      -0.567566       -15.4442 
 129   2.0000      -0.559910       -15.2359 
 130   2.0000      -0.554757       -15.0957 
 131   2.0000      -0.548206       -14.9174 
 132   2.0000      -0.542976       -14.7751 
 133   2.0000      -0.540810       -14.7162 
 134   2.0000      -0.538797       -14.6614 
 135   2.0000      -0.535880       -14.5820 
 136   2.0000      -0.531282       -14.4569 
 137   2.0000      -0.518165       -14.1000 
 138   2.0000      -0.517484       -14.0815 
 139   2.0000      -0.514179       -13.9915 
 140   2.0000      -0.512311       -13.9407 
 141   2.0000      -0.510182       -13.8828 
 142   2.0000      -0.508624       -13.8404 
 143   2.0000      -0.504471       -13.7274 
 144   2.0000      -0.502000       -13.6601 
 145   2.0000      -0.495309       -13.4780 
 146   2.0000      -0.488933       -13.3046 
 147   2.0000      -0.481199       -13.0941 
 148   2.0000      -0.476807       -12.9746 
 149   2.0000      -0.467935       -12.7332 
 150   2.0000      -0.466144       -12.6844 
 151   2.0000      -0.456624       -12.4254 
 152   2.0000      -0.451521       -12.2865 
 153   2.0000      -0.445205       -12.1146 
 154   2.0000      -0.438208       -11.9242 
 155   2.0000      -0.427459       -11.6318 
 156   2.0000      -0.409413       -11.1407 
 157   2.0000      -0.394134       -10.7249 
 158   2.0000      -0.390502       -10.6261 
 159   2.0000      -0.387985       -10.5576 
 160   2.0000      -0.379327       -10.3220 
 161   2.0000      -0.375019       -10.2048 
 162   2.0000      -0.367870       -10.0103 
 163   2.0000      -0.356862        -9.7107 
 164   2.0000      -0.355778        -9.6812 
 165   2.0000      -0.341904        -9.3037 
 166   2.0000      -0.337751        -9.1907 
 167   2.0000      -0.324976        -8.8431 
 168   2.0000      -0.320224        -8.7137 
 169   2.0000      -0.305689        -8.3182 
 170   2.0000      -0.299261        -8.1433 
 171   2.0000      -0.285373        -7.7654 
 172   2.0000      -0.278304        -7.5730 
 173   2.0000      -0.263469        -7.1694 
 174   2.0000      -0.241607        -6.5745 
 175   2.0000      -0.190021        -5.1707 
 176   2.0000      -0.181240        -4.9318 
 177   2.0000      -0.080123        -2.1802 
 178   2.0000      -0.059825        -1.6279 
 179   0.0000       0.028286         0.7697 
 180   0.0000       0.065153         1.7729 
 181   0.0000       0.090124         2.4524 
 182   0.0000       0.105788         2.8786 
 183   0.0000       0.116198         3.1619 
 184   0.0000       0.136819         3.7230 
 185   0.0000       0.139485         3.7956 
 186   0.0000       0.140586         3.8255 
 187   0.0000       0.164500         4.4763 
 188   0.0000       0.165018         4.4904 
 189   0.0000       0.165742         4.5101 
 190   0.0000       0.173984         4.7344 
 191   0.0000       0.179998         4.8980 
 192   0.0000       0.183411         4.9909 
 193   0.0000       0.189653         5.1607 
 194   0.0000       0.204672         5.5694 
 195   0.0000       0.205617         5.5951 
 196   0.0000       0.208060         5.6616 
 197   0.0000       0.208767         5.6808 
 198   0.0000       0.216197         5.8830 
 199   0.0000       0.228496         6.2177 
 200   0.0000       0.233392         6.3509 
 201   0.0000       0.234999         6.3946 
 202   0.0000       0.238972         6.5028 
 203   0.0000       0.239709         6.5228 
 204   0.0000       0.245903         6.6914 
 205   0.0000       0.254658         6.9296 
 206   0.0000       0.256485         6.9793 
 207   0.0000       0.257664         7.0114 
 208   0.0000       0.259268         7.0550 
 209   0.0000       0.260499         7.0885 
 210   0.0000       0.264486         7.1970 
 211   0.0000       0.265319         7.2197 
 212   0.0000       0.268440         7.3046 
 213   0.0000       0.269297         7.3280 
 214   0.0000       0.273298         7.4368 
 215   0.0000       0.275977         7.5097 
 216   0.0000       0.278519         7.5789 
 217   0.0000       0.281867         7.6700 
 218   0.0000       0.286604         7.7989 
 219   0.0000       0.288064         7.8386 
 220   0.0000       0.289665         7.8822 
 221   0.0000       0.292052         7.9472 
 222   0.0000       0.294921         8.0252 
 223   0.0000       0.296445         8.0667 
 224   0.0000       0.297413         8.0930 
 225   0.0000       0.300484         8.1766 
 226   0.0000       0.304693         8.2911 
 227   0.0000       0.308473         8.3940 
 228   0.0000       0.314153         8.5485 
 229   0.0000       0.324573         8.8321 
 230   0.0000       0.328435         8.9372 
 231   0.0000       0.335353         9.1254 
 232   0.0000       0.343320         9.3422 
 233   0.0000       0.356761         9.7080 
 234   0.0000       0.367715        10.0060 
 235   0.0000       0.368268        10.0211 
 236   0.0000       0.376145        10.2354 
 237   0.0000       0.390888        10.6366 
 238   0.0000       0.395870        10.7722 
 239   0.0000       0.399924        10.8825 
 240   0.0000       0.406496        11.0613 
 241   0.0000       0.410843        11.1796 
 242   0.0000       0.413115        11.2414 
 243   0.0000       0.420357        11.4385 
 244   0.0000       0.428826        11.6689 
 245   0.0000       0.435254        11.8439 
 246   0.0000       0.438072        11.9205 
 247   0.0000       0.440989        11.9999 
 248   0.0000       0.441446        12.0123 
 249   0.0000       0.449106        12.2208 
 250   0.0000       0.454852        12.3772 
 251   0.0000       0.463000        12.5989 
 252   0.0000       0.467798        12.7294 
 253   0.0000       0.469934        12.7876 
 254   0.0000       0.471296        12.8246 
 255   0.0000       0.474178        12.9030 
 256   0.0000       0.478052        13.0085 
 257   0.0000       0.480157        13.0657 
 258   0.0000       0.489927        13.3316 
 259   0.0000       0.494647        13.4600 
 260   0.0000       0.504137        13.7183 
 261   0.0000       0.505442        13.7538 
 262   0.0000       0.505764        13.7626 
 263   0.0000       0.512845        13.9552 
 264   0.0000       0.516202        14.0466 
 265   0.0000       0.521690        14.1959 
 266   0.0000       0.524139        14.2625 
 267   0.0000       0.528650        14.3853 
 268   0.0000       0.532922        14.5015 
 269   0.0000       0.536105        14.5882 
 270   0.0000       0.542291        14.7565 
 271   0.0000       0.551917        15.0184 
 272   0.0000       0.557731        15.1766 
 273   0.0000       0.560228        15.2446 
 274   0.0000       0.561328        15.2745 
 275   0.0000       0.567171        15.4335 
 276   0.0000       0.573490        15.6054 
 277   0.0000       0.574144        15.6232 
 278   0.0000       0.580074        15.7846 
 279   0.0000       0.585642        15.9361 
 280   0.0000       0.590921        16.0798 
 281   0.0000       0.593461        16.1489 
 282   0.0000       0.594994        16.1906 
 283   0.0000       0.595434        16.2026 
 284   0.0000       0.597868        16.2688 
 285   0.0000       0.603001        16.4085 
 286   0.0000       0.604673        16.4540 
 287   0.0000       0.609545        16.5866 
 288   0.0000       0.615589        16.7510 
 289   0.0000       0.623427        16.9643 
 290   0.0000       0.625623        17.0241 
 291   0.0000       0.629827        17.1385 
 292   0.0000       0.631024        17.1710 
 293   0.0000       0.636714        17.3259 
 294   0.0000       0.645438        17.5633 
 295   0.0000       0.648551        17.6480 
 296   0.0000       0.653411        17.7802 
 297   0.0000       0.656021        17.8512 
 298   0.0000       0.660870        17.9832 
 299   0.0000       0.664503        18.0821 
 300   0.0000       0.670217        18.2375 
 301   0.0000       0.675006        18.3679 
 302   0.0000       0.677398        18.4329 
 303   0.0000       0.679263        18.4837 
 304   0.0000       0.680847        18.5268 
 305   0.0000       0.684454        18.6250 
 306   0.0000       0.689092        18.7511 
 307   0.0000       0.693133        18.8611 
 308   0.0000       0.695441        18.9239 
 309   0.0000       0.700543        19.0627 
 310   0.0000       0.702882        19.1264 
 311   0.0000       0.704738        19.1769 
 312   0.0000       0.707729        19.2583 
 313   0.0000       0.710590        19.3361 
 314   0.0000       0.710717        19.3396 
 315   0.0000       0.714940        19.4545 
 316   0.0000       0.716863        19.5068 
 317   0.0000       0.718830        19.5604 
 318   0.0000       0.725311        19.7367 
 319   0.0000       0.727378        19.7930 
 320   0.0000       0.728170        19.8145 
 321   0.0000       0.729627        19.8542 
 322   0.0000       0.730879        19.8882 
 323   0.0000       0.732634        19.9360 
 324   0.0000       0.737596        20.0710 
 325   0.0000       0.742125        20.1942 
 326   0.0000       0.744170        20.2499 
 327   0.0000       0.749355        20.3910 
 328   0.0000       0.754131        20.5210 
 329   0.0000       0.756182        20.5768 
 330   0.0000       0.758668        20.6444 
 331   0.0000       0.764724        20.8092 
 332   0.0000       0.764999        20.8167 
 333   0.0000       0.768027        20.8991 
 334   0.0000       0.769558        20.9407 
 335   0.0000       0.775382        21.0992 
 336   0.0000       0.778311        21.1789 
 337   0.0000       0.781974        21.2786 
 338   0.0000       0.786856        21.4114 
 339   0.0000       0.789296        21.4778 
 340   0.0000       0.792169        21.5560 
 341   0.0000       0.796728        21.6801 
 342   0.0000       0.797930        21.7128 
 343   0.0000       0.803747        21.8711 
 344   0.0000       0.806932        21.9577 
 345   0.0000       0.808142        21.9907 
 346   0.0000       0.810302        22.0494 
 347   0.0000       0.814560        22.1653 
 348   0.0000       0.815883        22.2013 
 349   0.0000       0.816638        22.2219 
 350   0.0000       0.819812        22.3082 
 351   0.0000       0.822163        22.3722 
 352   0.0000       0.827047        22.5051 
 353   0.0000       0.828349        22.5405 
 354   0.0000       0.831384        22.6231 
 355   0.0000       0.832662        22.6579 
 356   0.0000       0.833401        22.6780 
 357   0.0000       0.836044        22.7499 
 358   0.0000       0.838948        22.8289 
 359   0.0000       0.841972        22.9112 
 360   0.0000       0.842771        22.9330 
 361   0.0000       0.843528        22.9536 
 362   0.0000       0.846446        23.0330 
 363   0.0000       0.849579        23.1182 
 364   0.0000       0.850491        23.1430 
 365   0.0000       0.857200        23.3256 
 366   0.0000       0.859015        23.3750 
 367   0.0000       0.863192        23.4886 
 368   0.0000       0.865030        23.5387 
 369   0.0000       0.869282        23.6544 
 370   0.0000       0.870389        23.6845 
 371   0.0000       0.875537        23.8246 
 372   0.0000       0.876427        23.8488 
 373   0.0000       0.877724        23.8841 
 374   0.0000       0.879202        23.9243 
 375   0.0000       0.882344        24.0098 
 376   0.0000       0.890006        24.2183 
 377   0.0000       0.890838        24.2409 
 378   0.0000       0.892576        24.2882 
 379   0.0000       0.895365        24.3641 
 380   0.0000       0.897469        24.4214 
 381   0.0000       0.898103        24.4386 
 382   0.0000       0.900551        24.5052 
 383   0.0000       0.902737        24.5647 
 384   0.0000       0.905347        24.6357 
 385   0.0000       0.907563        24.6960 
 386   0.0000       0.909417        24.7465 
 387   0.0000       0.911674        24.8079 
 388   0.0000       0.914384        24.8817 
 389   0.0000       0.918065        24.9818 
 390   0.0000       0.919945        25.0330 
 391   0.0000       0.925847        25.1936 
 392   0.0000       0.926827        25.2203 
 393   0.0000       0.928692        25.2710 
 394   0.0000       0.930387        25.3171 
 395   0.0000       0.932934        25.3864 
 396   0.0000       0.936578        25.4856 
 397   0.0000       0.941519        25.6200 
 398   0.0000       0.944566        25.7029 
 399   0.0000       0.946151        25.7461 
 400   0.0000       0.949163        25.8281 
 401   0.0000       0.952639        25.9226 
 402   0.0000       0.956360        26.0239 
 403   0.0000       0.957049        26.0426 
 404   0.0000       0.960877        26.1468 
 405   0.0000       0.964689        26.2505 
 406   0.0000       0.969784        26.3892 
 407   0.0000       0.979124        26.6433 
 408   0.0000       0.982110        26.7246 
 409   0.0000       0.986604        26.8469 
 410   0.0000       0.989006        26.9122 
 411   0.0000       0.994290        27.0560 
 412   0.0000       0.997343        27.1391 
 413   0.0000       1.004510        27.3341 
 414   0.0000       1.008772        27.4501 
 415   0.0000       1.015279        27.6272 
 416   0.0000       1.015354        27.6292 
 417   0.0000       1.022887        27.8342 
 418   0.0000       1.026260        27.9260 
 419   0.0000       1.030349        28.0372 
 420   0.0000       1.033800        28.1311 
 421   0.0000       1.039276        28.2801 
 422   0.0000       1.050064        28.5737 
 423   0.0000       1.052169        28.6310 
 424   0.0000       1.055053        28.7094 
 425   0.0000       1.072926        29.1958 
 426   0.0000       1.077519        29.3208 
 427   0.0000       1.079009        29.3613 
 428   0.0000       1.082549        29.4577 
 429   0.0000       1.084013        29.4975 
 430   0.0000       1.087955        29.6048 
 431   0.0000       1.094103        29.7721 
 432   0.0000       1.097416        29.8622 
 433   0.0000       1.104279        30.0490 
 434   0.0000       1.106273        30.1032 
 435   0.0000       1.112313        30.2676 
 436   0.0000       1.114507        30.3273 
 437   0.0000       1.118323        30.4311 
 438   0.0000       1.120251        30.4836 
 439   0.0000       1.120893        30.5010 
 440   0.0000       1.125899        30.6373 
 441   0.0000       1.131014        30.7765 
 442   0.0000       1.132496        30.8168 
 443   0.0000       1.135881        30.9089 
 444   0.0000       1.137459        30.9518 
 445   0.0000       1.140191        31.0262 
 446   0.0000       1.146720        31.2038 
 447   0.0000       1.150170        31.2977 
 448   0.0000       1.154322        31.4107 
 449   0.0000       1.159031        31.5388 
 450   0.0000       1.161799        31.6142 
 451   0.0000       1.165412        31.7125 
 452   0.0000       1.167544        31.7705 
 453   0.0000       1.167811        31.7778 
 454   0.0000       1.171052        31.8659 
 455   0.0000       1.175735        31.9934 
 456   0.0000       1.182847        32.1869 
 457   0.0000       1.191228        32.4150 
 458   0.0000       1.193341        32.4725 
 459   0.0000       1.198725        32.6190 
 460   0.0000       1.201835        32.7036 
 461   0.0000       1.204660        32.7805 
 462   0.0000       1.206970        32.8433 
 463   0.0000       1.207889        32.8683 
 464   0.0000       1.210639        32.9432 
 465   0.0000       1.215379        33.0722 
 466   0.0000       1.220411        33.2091 
 467   0.0000       1.225910        33.3587 
 468   0.0000       1.227656        33.4062 
 469   0.0000       1.230833        33.4927 
 470   0.0000       1.236948        33.6591 
 471   0.0000       1.238724        33.7074 
 472   0.0000       1.241215        33.7752 
 473   0.0000       1.241699        33.7884 
 474   0.0000       1.243600        33.8401 
 475   0.0000       1.247589        33.9486 
 476   0.0000       1.252716        34.0881 
 477   0.0000       1.252977        34.0952 
 478   0.0000       1.256114        34.1806 
 479   0.0000       1.259904        34.2837 
 480   0.0000       1.262597        34.3570 
 481   0.0000       1.270033        34.5594 
 482   0.0000       1.271281        34.5933 
 483   0.0000       1.273463        34.6527 
 484   0.0000       1.274435        34.6791 
 485   0.0000       1.282086        34.8873 
 486   0.0000       1.286910        35.0186 
 487   0.0000       1.288513        35.0622 
 488   0.0000       1.291671        35.1482 
 489   0.0000       1.297146        35.2971 
 490   0.0000       1.299285        35.3554 
 491   0.0000       1.302913        35.4541 
 492   0.0000       1.305094        35.5134 
 493   0.0000       1.309688        35.6384 
 494   0.0000       1.313533        35.7431 
 495   0.0000       1.317832        35.8600 
 496   0.0000       1.320035        35.9200 
 497   0.0000       1.324546        36.0427 
 498   0.0000       1.327430        36.1212 
 499   0.0000       1.330307        36.1995 
 500   0.0000       1.334592        36.3161 
 501   0.0000       1.338592        36.4249 
 502   0.0000       1.342507        36.5315 
 503   0.0000       1.347843        36.6767 
 504   0.0000       1.349160        36.7125 
 505   0.0000       1.351340        36.7718 
 506   0.0000       1.352656        36.8076 
 507   0.0000       1.357043        36.9270 
 508   0.0000       1.361580        37.0505 
[...]
 76 H s       :     0.885210  s :     0.885210
      pz      :     0.022124  p :     0.079787
      px      :     0.043622
      py      :     0.014042
 77 H s       :     0.884383  s :     0.884383
      pz      :     0.047988  p :     0.079304
      px      :     0.015024
      py      :     0.016292
 78 H s       :     0.884733  s :     0.884733
      pz      :     0.025889  p :     0.079275
      px      :     0.020452
      py      :     0.032934
 79 H s       :     0.910782  s :     0.910782
      pz      :     0.021784  p :     0.086291
      px      :     0.021657
      py      :     0.042850
 80 H s       :     0.864236  s :     0.864236
      pz      :     0.039405  p :     0.084853
      px      :     0.030298
      py      :     0.015150
 81 H s       :     0.886723  s :     0.886723
      pz      :     0.037833  p :     0.084131
      px      :     0.016178
      py      :     0.030120
 82 H s       :     0.916106  s :     0.916106
      pz      :     0.021955  p :     0.086723
      px      :     0.031660
      py      :     0.033108
 83 H s       :     0.873458  s :     0.873458
      pz      :     0.039273  p :     0.084106
      px      :     0.015276
      py      :     0.029557
 84 H s       :     0.886676  s :     0.886676
      pz      :     0.035766  p :     0.083418
      px      :     0.031696
      py      :     0.015955
 85 H s       :     0.892797  s :     0.892797
      pz      :     0.022490  p :     0.079785
      px      :     0.014068
      py      :     0.043228
 86 H s       :     0.891001  s :     0.891001
      pz      :     0.024731  p :     0.078827
      px      :     0.032980
      py      :     0.021116
 87 H s       :     0.889800  s :     0.889800
      pz      :     0.048023  p :     0.078745
      px      :     0.015585
      py      :     0.015138
 88 H s       :     0.910501  s :     0.910501
      pz      :     0.021621  p :     0.087025
      px      :     0.042946
      py      :     0.022458
 89 H s       :     0.870883  s :     0.870883
      pz      :     0.037971  p :     0.083867
      px      :     0.030512
      py      :     0.015383


                      *****************************
                      * MAYER POPULATION ANALYSIS *
                      *****************************

  NA   - Mulliken gross atomic population
  ZA   - Total nuclear charge
  QA   - Mulliken gross atomic charge
  VA   - Mayer's total valence
  BVA  - Mayer's bonded valence
  FA   - Mayer's free valence

  ATOM       NA         ZA         QA         VA         BVA        FA
  0 C      5.7746     6.0000     0.2254     3.8509     3.8509     0.0000
  1 N      7.4553     7.0000    -0.4553     3.3463     3.3463     0.0000
  2 C      6.0764     6.0000    -0.0764     3.9249     3.9249    -0.0000
  3 N      7.3416     7.0000    -0.3416     3.4560     3.4560     0.0000
  4 C      6.0803     6.0000    -0.0803     4.1419     4.1419    -0.0000
  5 N      7.5685     7.0000    -0.5685     3.0956     3.0956     0.0000
  6 C      6.1080     6.0000    -0.1080     3.9238     3.9238    -0.0000
  7 N      7.3411     7.0000    -0.3411     3.4320     3.4320     0.0000
  8 C      5.7858     6.0000     0.2142     3.8483     3.8483     0.0000
  9 N      7.5623     7.0000    -0.5623     3.0769     3.0769     0.0000
 10 C      5.8808     6.0000     0.1192     3.9093     3.9093     0.0000
 11 N      7.4384     7.0000    -0.4384     3.3785     3.3785    -0.0000
 12 C      6.0477     6.0000    -0.0477     3.8318     3.8318    -0.0000
 13 N      7.4292     7.0000    -0.4292     3.4293     3.4293     0.0000
 14 C      5.7898     6.0000     0.2102     3.8020     3.8020    -0.0000
 15 N      7.4409     7.0000    -0.4409     3.3725     3.3725    -0.0000
 16 C      5.7653     6.0000     0.2347     3.7760     3.7760    -0.0000
 17 C      6.1227     6.0000    -0.1227     3.9441     3.9441    -0.0000
 18 C      6.1591     6.0000    -0.1591     3.7459     3.7459    -0.0000
 19 C      5.7977     6.0000     0.2023     3.8747     3.8747    -0.0000
 20 C      5.7860     6.0000     0.2140     3.8290     3.8290    -0.0000
 21 C      6.0539     6.0000    -0.0539     3.8230     3.8230    -0.0000
 22 C      6.0897     6.0000    -0.0897     3.9824     3.9824     0.0000
 23 C      6.0396     6.0000    -0.0396     3.9926     3.9926    -0.0000
 24 C      5.8065     6.0000     0.1935     3.8211     3.8211    -0.0000
 25 C      5.8854     6.0000     0.1146     3.8914     3.8914    -0.0000
 26 C      6.0933     6.0000    -0.0933     3.9097     3.9097    -0.0000
 27 C      5.7840     6.0000     0.2160     3.8613     3.8613     0.0000
 28 C      6.0618     6.0000    -0.0618     3.9888     3.9888     0.0000
 29 C      6.1838     6.0000    -0.1838     3.7474     3.7474    -0.0000
 30 C      5.7537     6.0000     0.2463     3.7996     3.7996    -0.0000
 31 C      5.7693     6.0000     0.2307     3.8168     3.8168    -0.0000
 32 C      6.0615     6.0000    -0.0615     3.9233     3.9233     0.0000
 33 C      6.0597     6.0000    -0.0597     3.9708     3.9708     0.0000
 34 C      6.0511     6.0000    -0.0511     3.9833     3.9833    -0.0000
 35 C      5.7711     6.0000     0.2289     3.8162     3.8162     0.0000
 36 C      5.8919     6.0000     0.1081     3.8744     3.8744     0.0000
 37 C      6.0643     6.0000    -0.0643     3.9178     3.9178    -0.0000
 38 C      5.7690     6.0000     0.2310     3.8014     3.8014     0.0000
 39 C      6.0577     6.0000    -0.0577     3.9829     3.9829     0.0000
 40 C      6.1813     6.0000    -0.1813     3.7261     3.7261     0.0000
 41 C      5.7741     6.0000     0.2259     3.8877     3.8877     0.0000
 42 C      5.8027     6.0000     0.1973     3.8255     3.8255    -0.0000
 43 C      6.0726     6.0000    -0.0726     3.8999     3.8999    -0.0000
 44 C      6.0898     6.0000    -0.0898     3.9855     3.9855    -0.0000
 45 C      6.0618     6.0000    -0.0618     3.9917     3.9917     0.0000
 46 C      5.7882     6.0000     0.2118     3.8286     3.8286     0.0000
 47 C      5.8847     6.0000     0.1153     3.8929     3.8929    -0.0000
 48 C      6.0665     6.0000    -0.0665     3.9094     3.9094    -0.0000
 49 C      5.7617     6.0000     0.2383     3.8964     3.8964     0.0000
 50 C      6.0459     6.0000    -0.0459     3.9902     3.9902     0.0000
 51 C      6.1944     6.0000    -0.1944     3.7378     3.7378     0.0000
 52 H      0.9652     1.0000     0.0348     0.9856     0.9856     0.0000
 53 H      1.0182     1.0000    -0.0182     0.9992     0.9992    -0.0000
 54 H      0.9560     1.0000     0.0440     1.0280     1.0280     0.0000
 55 H      0.9667     1.0000     0.0333     0.9864     0.9864    -0.0000
 56 H      0.9508     1.0000     0.0492     0.9695     0.9695    -0.0000
 57 H      0.9519     1.0000     0.0481     0.9824     0.9824    -0.0000
 58 H      0.9539     1.0000     0.0461     0.9846     0.9846     0.0000
 59 H      1.0160     1.0000    -0.0160     0.9939     0.9939    -0.0000
 60 H      0.9536     1.0000     0.0464     1.0036     1.0036    -0.0000
 61 H      0.8290     1.0000     0.1710     1.0422     1.0422     0.0000
 62 H      0.8244     1.0000     0.1756     1.0436     1.0436     0.0000
 63 H      0.9446     1.0000     0.0554     0.9852     0.9852     0.0000
 64 H      1.0249     1.0000    -0.0249     0.9960     0.9960     0.0000
 65 H      0.9532     1.0000     0.0468     1.0101     1.0101    -0.0000
 66 H      0.9444     1.0000     0.0556     0.9855     0.9855    -0.0000
 67 H      0.9374     1.0000     0.0626     0.9719     0.9719     0.0000
 68 H      0.9428     1.0000     0.0572     0.9868     0.9868     0.0000
 69 H      0.9436     1.0000     0.0564     0.9828     0.9828    -0.0000
 70 H      1.0301     1.0000    -0.0301     0.9942     0.9942     0.0000
 71 H      0.9551     1.0000     0.0449     1.0058     1.0058     0.0000
 72 H      0.9283     1.0000     0.0717     0.9835     0.9835    -0.0000
 73 H      1.0079     1.0000    -0.0079     1.0010     1.0010     0.0000
 74 H      0.9392     1.0000     0.0608     1.0101     1.0101     0.0000
 75 H      0.9288     1.0000     0.0712     0.9838     0.9838    -0.0000
 76 H      0.9247     1.0000     0.0753     0.9721     0.9721     0.0000
 77 H      0.9317     1.0000     0.0683     0.9855     0.9855     0.0000
 78 H      0.9324     1.0000     0.0676     0.9854     0.9854     0.0000
 79 H      1.0167     1.0000    -0.0167     0.9974     0.9974     0.0000
 80 H      0.9383     1.0000     0.0617     1.0072     1.0072     0.0000
 81 H      0.9455     1.0000     0.0545     0.9856     0.9856     0.0000
 82 H      1.0250     1.0000    -0.0250     0.9934     0.9934    -0.0000
 83 H      0.9582     1.0000     0.0418     1.0083     1.0083     0.0000
 84 H      0.9458     1.0000     0.0542     0.9852     0.9852     0.0000
 85 H      0.9391     1.0000     0.0609     0.9716     0.9716     0.0000
 86 H      0.9445     1.0000     0.0555     0.9839     0.9839    -0.0000
 87 H      0.9427     1.0000     0.0573     0.9857     0.9857    -0.0000
 88 H      1.0143     1.0000    -0.0143     0.9968     0.9968    -0.0000
 89 H      0.9526     1.0000     0.0474     1.0074     1.0074    -0.0000

  Mayer bond orders larger than 0.100000
B(  0-C ,  1-N ) :   1.1025 B(  0-C , 17-C ) :   1.7184 B(  0-C , 52-H ) :   0.9610 
B(  1-N ,  8-C ) :   1.0893 B(  1-N , 10-C ) :   0.9777 B(  2-C , 12-C ) :   1.4847 
B(  2-C , 16-C ) :   1.3752 B(  2-C , 53-H ) :   0.9724 B(  3-N , 14-C ) :   1.2227 
B(  3-N , 16-C ) :   1.1801 B(  3-N , 61-H ) :   0.8985 B(  4-C ,  6-C ) :   1.2201 
B(  4-C , 17-C ) :   1.2214 B(  4-C , 18-C ) :   1.4797 B(  5-N , 19-C ) :   1.4589 
B(  5-N , 27-C ) :   1.3698 B(  6-C ,  8-C ) :   1.7250 B(  6-C , 54-H ) :   0.8729 
B(  7-N , 30-C ) :   1.1951 B(  7-N , 38-C ) :   1.1894 B(  7-N , 62-H ) :   0.8967 
B(  8-C , 55-H ) :   0.9618 B(  9-N , 41-C ) :   1.3938 B(  9-N , 49-C ) :   1.4257 
B( 10-C , 56-H ) :   0.9776 B( 10-C , 57-H ) :   0.9829 B( 10-C , 58-H ) :   0.9835 
B( 11-N , 20-C ) :   1.1315 B( 11-N , 24-C ) :   1.1069 B( 11-N , 25-C ) :   0.9601 
B( 12-C , 14-C ) :   1.3601 B( 12-C , 59-H ) :   0.9239 B( 13-N , 31-C ) :   1.1625 
B( 13-N , 35-C ) :   1.1613 B( 13-N , 36-C ) :   0.9409 B( 14-C , 18-C ) :   1.1160 
B( 15-N , 42-C ) :   1.1076 B( 15-N , 46-C ) :   1.1249 B( 15-N , 47-C ) :   0.9612 
B( 16-C , 51-C ) :   1.1670 B( 17-C , 60-H ) :   0.8833 B( 18-C , 19-C ) :   1.1131 
B( 19-C , 21-C ) :   1.2541 B( 20-C , 28-C ) :   1.6284 B( 20-C , 63-H ) :   0.9702 
B( 21-C , 26-C ) :   1.5785 B( 21-C , 64-H ) :   0.9162 B( 22-C , 23-C ) :   1.2898 
B( 22-C , 28-C ) :   1.2640 B( 22-C , 29-C ) :   1.2267 B( 23-C , 24-C ) :   1.6198 
B( 23-C , 65-H ) :   0.9703 B( 24-C , 66-H ) :   0.9695 B( 25-C , 67-H ) :   0.9761 
B( 25-C , 68-H ) :   0.9828 B( 25-C , 69-H ) :   0.9823 B( 26-C , 27-C ) :   1.2636 
B( 26-C , 70-H ) :   0.9663 B( 27-C , 29-C ) :   1.2045 B( 28-C , 71-H ) :   0.9720 
B( 29-C , 30-C ) :   1.2482 B( 30-C , 32-C ) :   1.2775 B( 31-C , 39-C ) :   1.5867 
B( 31-C , 72-H ) :   0.9681 B( 32-C , 37-C ) :   1.5812 B( 32-C , 73-H ) :   0.9786 
B( 33-C , 34-C ) :   1.3078 B( 33-C , 39-C ) :   1.3049 B( 33-C , 40-C ) :   1.1743 
B( 34-C , 35-C ) :   1.5843 B( 34-C , 74-H ) :   0.9696 B( 35-C , 75-H ) :   0.9681 
B( 36-C , 76-H ) :   0.9768 B( 36-C , 77-H ) :   0.9816 B( 36-C , 78-H ) :   0.9823 
B( 37-C , 38-C ) :   1.2838 B( 37-C , 79-H ) :   0.9764 B( 38-C , 40-C ) :   1.2351 
B( 39-C , 80-H ) :   0.9705 B( 40-C , 41-C ) :   1.2510 B( 41-C , 43-C ) :   1.1841 
B( 42-C , 50-C ) :   1.6331 B( 42-C , 81-H ) :   0.9696 B( 43-C , 48-C ) :   1.6688 
B( 43-C , 82-H ) :   0.9721 B( 44-C , 45-C ) :   1.2632 B( 44-C , 50-C ) :   1.2724 
B( 44-C , 51-C ) :   1.2608 B( 45-C , 46-C ) :   1.6345 B( 45-C , 83-H ) :   0.9719 
B( 46-C , 84-H ) :   0.9700 B( 47-C , 85-H ) :   0.9762 B( 47-C , 86-H ) :   0.9829 
B( 47-C , 87-H ) :   0.9824 B( 48-C , 49-C ) :   1.1875 B( 48-C , 88-H ) :   0.9749 
B( 49-C , 51-C ) :   1.2459 B( 50-C , 89-H ) :   0.9708 

-------
TIMINGS
-------

Total SCF time: 0 days 0 hours 44 min 33 sec 

Total time                  ....    2673.247 sec
Sum of individual times     ....    2670.364 sec  ( 99.9%)

Fock matrix formation       ....    2652.728 sec  ( 99.2%)
Diagonalization             ....       4.761 sec  (  0.2%)
Density matrix formation    ....       0.505 sec  (  0.0%)
Population analysis         ....       0.280 sec  (  0.0%)
Initial guess               ....       2.351 sec  (  0.1%)
Orbital Transformation      ....       0.000 sec  (  0.0%)
Orbital Orthonormalization  ....       0.000 sec  (  0.0%)
DIIS solution               ....       2.599 sec  (  0.1%)
SOSCF solution              ....       5.765 sec  (  0.2%)

Maximum memory used throughout the entire SCF-calculation: 304.3 MB


           ************************************************************
           *        Program running with 8 parallel MPI-processes     *
           *              working on a common directory               *
           ************************************************************

------------------------------------------------------------------------------
                                ORCA  MP2 
------------------------------------------------------------------------------

Freezing NCore=104 chemical core electrons

----------
MP2 ENERGY (disk based algorithm)
----------

Dimension of the basis                    ...  918
Memory devoted to MP2                     ... 7000 MB   
Data format for buffers                   ... DOUBLE
Compression type for matrix containers    ... UNCOMPRESSED

-------------------------------
PARTIAL EXCHANGE TRANSFORMATION
-------------------------------

Transformation type                        ... one-operator
Generation of integrals (i,mue|j,nue)      ... ON
Generation of integrals (mue,kappa|nue,tau)... OFF
Generation of integrals (i,mue|a,nue)      ... OFF
Dimension of the basis                     ...  918
Number of internal MOs                     ...  127 (  52- 178)
Pair cutoff                                ... 2.500e-12 Eh
Number of AO pairs in the trafo            ... 421821
Total Number of distinct AO pairs          ... 421821
Memory devoted for trafo                   ... 7000.0 MB 
Max. Number of MO pairs treated together   ... 1088      
Number Format for Storage                  ... Double (8 Byte)
Integral package used                      ... LIBINT

Starting integral evaluation:
    ... done with AO integral generation
Closing buffer AOK     (38.24 GB; CompressionRatio= 1.33)
Collecting buffer AOK 
Number of MO pairs included in the trafo   ... 8128
------------------------
SORTING OF (i,mue|j,nue)
------------------------

IBATCH = 1 of  1
Closing buffer KAO     (51.03 GB; CompressionRatio= 1.00)
Collecting buffer KAO 
N(AO-Batches) Done                         ... 175178309 
N(AO-Batches) Skipped                      ... 167300484 
N(IJ)-pairs Skipped                        ...         0 
TOTAL TIME for half transformation         ...   840.970 sec
AO-integral generation                     ...   204.671 sec
Half transformation                        ...   373.218 sec
K-integral sorting                         ...    69.516 sec

Finished integral transformation - now doing MP2 part

OPERATOR COMBINATION   0   0: ij=( 52..178, 52..178)
Process 5:   Internal MO 132
Process 2:   Internal MO  84
Process 0:   Internal MO  54
Process 0:   Internal MO  57
Process 1:   Internal MO  69
Process 0:   Internal MO  60
Process 4:   Internal MO 117
Process 0:   Internal MO  63
Process 1:   Internal MO  72
Process 3:   Internal MO 102
Process 2:   Internal MO  87
Process 0:   Internal MO  66
Process 7:   Internal MO 165
Process 1:   Internal MO  75
Process 6:   Internal MO 150
Process 2:   Internal MO  90
Process 1:   Internal MO  78
Process 5:   Internal MO 135
Process 3:   Internal MO 105
Process 4:   Internal MO 120
Process 1:   Internal MO  81
Process 2:   Internal MO  93
Process 3:   Internal MO 108
Process 2:   Internal MO  96
Process 7:   Internal MO 168
Process 4:   Internal MO 123
Process 6:   Internal MO 153
Process 5:   Internal MO 138
Process 2:   Internal MO  99
Process 3:   Internal MO 111
Process 4:   Internal MO 126
Process 5:   Internal MO 141
Process 3:   Internal MO 114
Process 6:   Internal MO 156
Process 7:   Internal MO 171
Process 4:   Internal MO 129
Process 5:   Internal MO 144
Process 6:   Internal MO 159
Process 7:   Internal MO 174
Process 5:   Internal MO 147
Process 6:   Internal MO 162
Process 7:   Internal MO 177
-----------------------------------------------
 MP2 CORRELATION ENERGY   :     -7.290183265 Eh
-----------------------------------------------


-------
TIMINGS
-------
Total time                :  969.993 sec
Integral trafo            :  847.994 sec ( 87.4%)
K(i,j)                    :    7.657 sec (  0.8%)
T(i,j)                    :    0.105 sec (  0.0%)

---------------------------------------
MP2 TOTAL ENERGY:    -2130.779253238 Eh
---------------------------------------

Maximum memory used throughout the entire MP2-calculation: 6735.8 MB

-------------------------   --------------------
FINAL SINGLE POINT ENERGY     -2130.779253237668
-------------------------   --------------------


                            ***************************************
                            *     ORCA property calculations      *
                            ***************************************


  WARNING: The energy has been calculated at the MP2 level but the densities
           used in the property calculations are still SCF densities
           MP2 response densities have not been calculated 
           use %mp2 Density relaxed end
           or  %mp2 Density unrelaxed end

                                    ---------------------
                                    Active property flags
                                    ---------------------
   (+) Dipole Moment


------------------------------------------------------------------------------
                       ORCA ELECTRIC PROPERTIES CALCULATION
------------------------------------------------------------------------------

Dipole Moment Calculation                       ... on
Quadrupole Moment Calculation                   ... off
Polarizability Calculation                      ... off
GBWName                                         ... /scratch/chu_02/allen/tmpyp4_amber_gaff2/conf1/conf1/Conf353.orca.gbw
Electron density                                ... /scratch/chu_02/allen/tmpyp4_amber_gaff2/conf1/conf1/Conf353.orca.scfp
The origin for moment calculation is the CENTER OF MASS  = (-0.001372, -0.005072  0.001646)

-------------
DIPOLE MOMENT
-------------
                                X             Y             Z
Electronic contribution:      2.87338      -4.38454      -0.07500
Nuclear contribution   :     -0.02850       0.16967       0.08911
                        -----------------------------------------
Total Dipole Moment    :      2.84488      -4.21487       0.01411
                        -----------------------------------------
Magnitude (a.u.)       :      5.08514
Magnitude (Debye)      :     12.92539



--------------------
Rotational spectrum 
--------------------
 
Rotational constants in cm-1:     0.001503     0.001478     0.000760 
Rotational constants in MHz :    45.072705    44.294839    22.782712 

 Dipole components along the rotational axes: 
x,y,z [a.u.] :     3.543973    -3.646725     0.017024 
x,y,z [Debye]:     9.008062    -9.269238     0.043272 

 

Timings for individual modules:

Sum of individual times         ...     3648.425 sec (=  60.807 min)
GTO integral calculation        ...        2.875 sec (=   0.048 min)   0.1 %
SCF iterations                  ...     2674.524 sec (=  44.575 min)  73.3 %
MP2 module                      ...      971.026 sec (=  16.184 min)  26.6 %
                             ****ORCA TERMINATED NORMALLY****
TOTAL RUN TIME: 0 days 1 hours 0 minutes 50 seconds 220 msec
# of primitive gaussian functions

