
                                 *****************
                                 * O   R   C   A *
                                 *****************

                                            #,                                       
                                            ###                                      
                                            ####                                     
                                            #####                                    
                                            ######                                   
                                           ########,                                 
                                     ,,################,,,,,                         
                               ,,#################################,,                 
                          ,,##########################################,,             
                       ,#########################################, ''#####,          
                    ,#############################################,,   '####,        
                  ,##################################################,,,,####,       
                ,###########''''           ''''###############################       
              ,#####''   ,,,,##########,,,,          '''####'''          '####       
            ,##' ,,,,###########################,,,                        '##       
           ' ,,###''''                  '''############,,,                           
         ,,##''                                '''############,,,,        ,,,,,,###''
      ,#''                                            '''#######################'''  
     '                                                          ''''####''''         
             ,#######,   #######,   ,#######,      ##                                
            ,#'     '#,  ##    ##  ,#'     '#,    #''#        ######   ,####,        
            ##       ##  ##   ,#'  ##            #'  '#       #        #'  '#        
            ##       ##  #######   ##           ,######,      #####,   #    #        
            '#,     ,#'  ##    ##  '#,     ,#' ,#      #,         ##   #,  ,#        
             '#######'   ##     ##  '#######'  #'      '#     #####' # '####'        



                  #######################################################
                  #                        -***-                        #
                  #          Department of theory and spectroscopy      #
                  #    Directorship and core code : Frank Neese         #
                  #        Max Planck Institute fuer Kohlenforschung    #
                  #                Kaiser Wilhelm Platz 1               #
                  #                 D-45470 Muelheim/Ruhr               #
                  #                      Germany                        #
                  #                                                     #
                  #                  All rights reserved                #
                  #                        -***-                        #
                  #######################################################


                         Program Version 5.0.4 -  RELEASE  -


 With contributions from (in alphabetic order):
   Daniel Aravena         : Magnetic Suceptibility
   Michael Atanasov       : Ab Initio Ligand Field Theory (pilot matlab implementation)
   Alexander A. Auer      : GIAO ZORA, VPT2 properties, NMR spectrum
   Ute Becker             : Parallelization
   Giovanni Bistoni       : ED, misc. LED, open-shell LED, HFLD
   Martin Brehm           : Molecular dynamics
   Dmytro Bykov           : SCF Hessian
   Vijay G. Chilkuri      : MRCI spin determinant printing, contributions to CSF-ICE
   Dipayan Datta          : RHF DLPNO-CCSD density
   Achintya Kumar Dutta   : EOM-CC, STEOM-CC
   Dmitry Ganyushin       : Spin-Orbit,Spin-Spin,Magnetic field MRCI
   Miquel Garcia          : C-PCM and meta-GGA Hessian, CC/C-PCM, Gaussian charge scheme
   Yang Guo               : DLPNO-NEVPT2, F12-NEVPT2, CIM, IAO-localization
   Andreas Hansen         : Spin unrestricted coupled pair/coupled cluster methods
   Benjamin Helmich-Paris : MC-RPA, TRAH-SCF, COSX integrals
   Lee Huntington         : MR-EOM, pCC
   Robert Izsak           : Overlap fitted RIJCOSX, COSX-SCS-MP3, EOM
   Marcus Kettner         : VPT2
   Christian Kollmar      : KDIIS, OOCD, Brueckner-CCSD(T), CCSD density, CASPT2, CASPT2-K
   Simone Kossmann        : Meta GGA functionals, TD-DFT gradient, OOMP2, MP2 Hessian
   Martin Krupicka        : Initial AUTO-CI
   Lucas Lang             : DCDCAS
   Marvin Lechner         : AUTO-CI (C++ implementation), FIC-MRCC
   Dagmar Lenk            : GEPOL surface, SMD
   Dimitrios Liakos       : Extrapolation schemes; Compound Job, initial MDCI parallelization
   Dimitrios Manganas     : Further ROCIS development; embedding schemes
   Dimitrios Pantazis     : SARC Basis sets
   Anastasios Papadopoulos: AUTO-CI, single reference methods and gradients
   Taras Petrenko         : DFT Hessian,TD-DFT gradient, ASA, ECA, R-Raman, ABS, FL, XAS/XES, NRVS
   Peter Pinski           : DLPNO-MP2, DLPNO-MP2 Gradient
   Christoph Reimann      : Effective Core Potentials
   Marius Retegan         : Local ZFS, SOC
   Christoph Riplinger    : Optimizer, TS searches, QM/MM, DLPNO-CCSD(T), (RO)-DLPNO pert. Triples
   Tobias Risthaus        : Range-separated hybrids, TD-DFT gradient, RPA, STAB
   Michael Roemelt        : Original ROCIS implementation
   Masaaki Saitow         : Open-shell DLPNO-CCSD energy and density
   Barbara Sandhoefer     : DKH picture change effects
   Avijit Sen             : IP-ROCIS
   Kantharuban Sivalingam : CASSCF convergence, NEVPT2, FIC-MRCI
   Bernardo de Souza      : ESD, SOC TD-DFT
   Georgi Stoychev        : AutoAux, RI-MP2 NMR, DLPNO-MP2 response
   Willem Van den Heuvel  : Paramagnetic NMR
   Boris Wezisla          : Elementary symmetry handling
   Frank Wennmohs         : Technical directorship


 We gratefully acknowledge several colleagues who have allowed us to
 interface, adapt or use parts of their codes:
   Stefan Grimme, W. Hujo, H. Kruse, P. Pracht,  : VdW corrections, initial TS optimization,
                  C. Bannwarth, S. Ehlert          DFT functionals, gCP, sTDA/sTD-DF
   Ed Valeev, F. Pavosevic, A. Kumar             : LibInt (2-el integral package), F12 methods
   Garnet Chan, S. Sharma, J. Yang, R. Olivares  : DMRG
   Ulf Ekstrom                                   : XCFun DFT Library
   Mihaly Kallay                                 : mrcc  (arbitrary order and MRCC methods)
   Jiri Pittner, Ondrej Demel                    : Mk-CCSD
   Frank Weinhold                                : gennbo (NPA and NBO analysis)
   Christopher J. Cramer and Donald G. Truhlar   : smd solvation model
   Lars Goerigk                                  : TD-DFT with DH, B97 family of functionals
   V. Asgeirsson, H. Jonsson                     : NEB implementation
   FAccTs GmbH                                   : IRC, NEB, NEB-TS, DLPNO-Multilevel, CI-OPT
                                                   MM, QMMM, 2- and 3-layer-ONIOM, Crystal-QMMM,
                                                   LR-CPCM, SF, NACMEs, symmetry and pop. for TD-DFT,
                                                   nearIR, NL-DFT gradient (VV10), updates on ESD,
                                                   ML-optimized integration grids
   S Lehtola, MJT Oliveira, MAL Marques          : LibXC Library
   Liviu Ungur et al                             : ANISO software


 Your calculation uses the libint2 library for the computation of 2-el integrals
 For citations please refer to: http://libint.valeyev.net

 Your ORCA version has been built with support for libXC version: 5.1.0
 For citations please refer to: https://tddft.org/programs/libxc/

 This ORCA versions uses:
   CBLAS   interface :  Fast vector & matrix operations
   LAPACKE interface :  Fast linear algebra routines
   SCALAPACK package :  Parallel linear algebra routines
   Shared memory     :  Shared parallel matrices
   BLAS/LAPACK       :  OpenBLAS 0.3.15  USE64BITINT DYNAMIC_ARCH NO_AFFINITY Sandybridge SINGLE_THREADED
        Core in use  :  Sandybridge
   Copyright (c) 2011-2014, The OpenBLAS Project


================================================================================

----- Orbital basis set information -----
Your calculation utilizes the basis: cc-pVDZ 
       H, B-Ne : Obtained from the ccRepo (grant-hill.group.shef.ac.uk/ccrepo) Feb. 2017
                 T. H. Dunning, Jr., J. Chem. Phys. 90, 1007 (1989)
            He : Obtained from the ccRepo (grant-hill.group.shef.ac.uk/ccrepo) Feb. 2017
                 D. E. Woon, T. H. Dunning, Jr., J. Chem. Phys. 100, 2975 (1994)
  Li-Be, Na-Mg : Obtained from the ccRepo (grant-hill.group.shef.ac.uk/ccrepo) Feb. 2017
                 B. P. Prascher, D. E. Woon, K. A. Peterson, T. H. Dunning, Jr., A. K. Wilson, Theor. Chem. Acc. 128, 69 (2011)
         Al-Ar : Obtained from the ccRepo (grant-hill.group.shef.ac.uk/ccrepo) Feb. 2017
                 D. E. Woon, T. H. Dunning, Jr., J. Chem. Phys. 98, 1358 (1993)
            Ca : Obtained from the Peterson Research Group Website (tyr0.chem.wsu.edu/~kipeters) Feb. 2017
                 J. Koput, K. A. Peterson, J. Phys. Chem. 106, 9595 (2002)
         Sc-Zn : Obtained from the ccRepo (grant-hill.group.shef.ac.uk/ccrepo) Feb. 2017
                 N. B. Balabanov, K. A. Peterson, J. Chem. Phys. 123, 064107 (2005)
                 N. B. Balabanov, K. A. Peterson, J. Chem. Phys. 125, 074110 (2006)
         Ga-Kr : Obtained from the ccRepo (grant-hill.group.shef.ac.uk/ccrepo) Feb. 2017
                 A. K. Wilson, D. E. Woon, K. A. Peterson, T. H. Dunning, Jr., J. Chem. Phys. 110, 7667 (1999)

================================================================================
                                        WARNINGS
                       Please study these warnings very carefully!
================================================================================


WARNING: No MP2 level density has been requested!
         To caclulate MP2 level properties use
         %mp2 Density relaxed end
         or
         %mp2 Density unrelaxed end

WARNING: Post HF methods need fully converged wavefunctions
  ===> : Setting SCFConvForced true
         You can overwrite this default with %scf ConvForced false 


INFO   : the flag for use of the SHARK integral package has been found!

================================================================================
                                       INPUT FILE
================================================================================
NAME = /scratch/allen/tmpyp4_amber_gaff2/2.Mdgx/conf11/conf11/Conf188.orca
|  1> ! PAL2
|  2> ! mp2 cc-pvdz TightSCF  NoKeepInts
|  3> 
|  4> %scf
|  5>   MaxCore 2000
|  6> end
|  7> %mp2
|  8>   MaxCore 2000
|  9> end
| 10> * xyz 0 1
| 11>    C       -4.95000         5.18300         0.19700
| 12>    C        1.47400         4.04100         0.05700
| 13>    C       -2.80200         4.09300         0.04900
| 14>    C       -2.22200         5.36500        -0.07200
| 15>    C       -3.01700         6.49400        -0.05200
| 16>    C       -5.18000         7.62400         0.13400
| 17>    C        0.13200         4.30700         0.06100
| 18>    C       -0.56900         3.05600         0.04700
| 19>    C        1.64900         2.61800         0.02300
| 20>    C       -4.19700         4.02500         0.18900
| 21>    N       -4.36000         6.39400         0.07700
| 22>    N        0.38800         2.06700         0.02500
| 23>    N       -2.01000         0.39500        -0.07500
| 24>    N       -0.38800        -2.07400        -0.02700
| 25>    N        2.01000        -0.40100         0.06500
| 26>    C       -1.96000         2.86100         0.02400
| 27>    C       -2.62300         1.61500        -0.01800
| 28>    C       -5.57300        -4.32900         1.06600
| 29>    C       -4.07300         1.47100         0.05600
| 30>    C       -4.10600        -2.75600        -0.02600
| 31>    C       -4.99500        -2.75700        -1.11100
| 32>    C       -6.13200        -3.54200        -1.07600
| 33>    C       -7.65100        -5.11300         0.04000
| 34>    C       -4.32400         0.14100         0.03700
| 35>    C       -3.02500        -0.52000        -0.04800
| 36>    C       -4.42200        -3.56600         1.07500
| 37>    N       -6.40700        -4.31300         0.00100
| 38>    C       -2.86700        -1.92200        -0.04000
| 39>    C       -1.65000        -2.62400        -0.02700
| 40>    C        3.56800        -6.14200        -1.04000
| 41>    C       -1.47600        -4.04900        -0.03400
| 42>    C        2.80300        -4.09900        -0.00800
| 43>    C        3.65700        -4.38400         1.06900
| 44>    C        4.42700        -5.53000         1.05900
| 45>    C        5.24500        -7.58800         0.01400
| 46>    C       -0.13400        -4.31500        -0.02200
| 47>    C        0.56800        -3.06400        -0.02700
| 48>    C        2.77500        -5.01200        -1.07400
| 49>    N        4.37600        -6.39100         0.01700
| 50>    C        1.95900        -2.86900        -0.00900
| 51>    C        2.62100        -1.62200         0.00900
| 52>    C        5.54300         4.33900        -1.13000
| 53>    C        4.07000        -1.47900        -0.09400
| 54>    C        4.10400         2.75100        -0.02100
| 55>    C        5.02700         2.72900         1.03600
| 56>    C        6.16600         3.50900         0.97800
| 57>    C        7.61900         5.15300        -0.11500
| 58>    C        4.32100        -0.14800        -0.09200
| 59>    C        3.02500         0.51400         0.01500
| 60>    C        4.38700         3.58200        -1.11500
| 61>    C        2.86600         1.91600         0.01300
| 62>    N        6.41300         4.29600        -0.09500
| 63>    H       -6.02900         5.17700         0.29000
| 64>    H        2.27400         4.76600         0.08100
| 65>    H       -1.15000         5.48400        -0.17400
| 66>    H       -2.61500         7.49600        -0.13400
| 67>    H       -5.21200         7.98400         1.16500
| 68>    H       -4.72800         8.37700        -0.51200
| 69>    H       -6.18600         7.39100        -0.21300
| 70>    H       -0.33200         5.28200         0.06900
| 71>    H       -4.70500         3.07100         0.27300
| 72>    H        0.18200         1.07200         0.00500
| 73>    H       -0.18300        -1.08000        -0.02100
| 74>    H       -5.86400        -4.96200         1.89500
| 75>    H       -4.79400         2.27200         0.13900
| 76>    H       -4.80000        -2.16000        -1.99400
| 77>    H       -6.84100        -3.58200        -1.89300
| 78>    H       -8.42800        -4.53600         0.54600
| 79>    H       -7.95600        -5.33700        -0.98100
| 80>    H       -7.45600        -6.03700         0.58400
| 81>    H       -5.28700        -0.34400         0.10000
| 82>    H       -3.78000        -3.60100         1.94700
| 83>    H        3.58700        -6.86800        -1.84300
| 84>    H       -2.27600        -4.77400        -0.05000
| 85>    H        3.71400        -3.72400         1.92600
| 86>    H        5.09200        -5.79500         1.87100
| 87>    H        6.20500        -7.32900        -0.43900
| 88>    H        5.39300        -7.91700         1.04200
| 89>    H        4.75900        -8.37300        -0.56400
| 90>    H        0.32900        -5.29000        -0.00800
| 91>    H        2.14600        -4.84200        -1.94000
| 92>    H        5.80800         4.98600        -1.95600
| 93>    H        4.78800        -2.28100        -0.18500
| 94>    H        4.86000         2.11400         1.91200
| 95>    H        6.90100         3.53100         1.77200
| 96>    H        7.38300         6.10900         0.35600
| 97>    H        8.41400         4.65200         0.43500
| 98>    H        7.92100         5.31000        -1.15000
| 99>    H        5.28300         0.33600        -0.17900
|100>    H        3.72000         3.63200        -1.96700
|101> *
|102> 
|103>                          ****END OF INPUT****
================================================================================

                       ****************************
                       * Single Point Calculation *
                       ****************************

---------------------------------
CARTESIAN COORDINATES (ANGSTROEM)
---------------------------------
  C     -4.950000    5.183000    0.197000
  C      1.474000    4.041000    0.057000
  C     -2.802000    4.093000    0.049000
  C     -2.222000    5.365000   -0.072000
  C     -3.017000    6.494000   -0.052000
  C     -5.180000    7.624000    0.134000
  C      0.132000    4.307000    0.061000
  C     -0.569000    3.056000    0.047000
  C      1.649000    2.618000    0.023000
  C     -4.197000    4.025000    0.189000
  N     -4.360000    6.394000    0.077000
  N      0.388000    2.067000    0.025000
  N     -2.010000    0.395000   -0.075000
  N     -0.388000   -2.074000   -0.027000
  N      2.010000   -0.401000    0.065000
  C     -1.960000    2.861000    0.024000
  C     -2.623000    1.615000   -0.018000
  C     -5.573000   -4.329000    1.066000
  C     -4.073000    1.471000    0.056000
  C     -4.106000   -2.756000   -0.026000
  C     -4.995000   -2.757000   -1.111000
  C     -6.132000   -3.542000   -1.076000
  C     -7.651000   -5.113000    0.040000
  C     -4.324000    0.141000    0.037000
  C     -3.025000   -0.520000   -0.048000
  C     -4.422000   -3.566000    1.075000
  N     -6.407000   -4.313000    0.001000
  C     -2.867000   -1.922000   -0.040000
  C     -1.650000   -2.624000   -0.027000
  C      3.568000   -6.142000   -1.040000
  C     -1.476000   -4.049000   -0.034000
  C      2.803000   -4.099000   -0.008000
  C      3.657000   -4.384000    1.069000
  C      4.427000   -5.530000    1.059000
  C      5.245000   -7.588000    0.014000
  C     -0.134000   -4.315000   -0.022000
  C      0.568000   -3.064000   -0.027000
  C      2.775000   -5.012000   -1.074000
  N      4.376000   -6.391000    0.017000
  C      1.959000   -2.869000   -0.009000
  C      2.621000   -1.622000    0.009000
  C      5.543000    4.339000   -1.130000
  C      4.070000   -1.479000   -0.094000
  C      4.104000    2.751000   -0.021000
  C      5.027000    2.729000    1.036000
  C      6.166000    3.509000    0.978000
  C      7.619000    5.153000   -0.115000
  C      4.321000   -0.148000   -0.092000
  C      3.025000    0.514000    0.015000
  C      4.387000    3.582000   -1.115000
  C      2.866000    1.916000    0.013000
  N      6.413000    4.296000   -0.095000
  H     -6.029000    5.177000    0.290000
  H      2.274000    4.766000    0.081000
  H     -1.150000    5.484000   -0.174000
  H     -2.615000    7.496000   -0.134000
  H     -5.212000    7.984000    1.165000
  H     -4.728000    8.377000   -0.512000
  H     -6.186000    7.391000   -0.213000
  H     -0.332000    5.282000    0.069000
  H     -4.705000    3.071000    0.273000
  H      0.182000    1.072000    0.005000
  H     -0.183000   -1.080000   -0.021000
  H     -5.864000   -4.962000    1.895000
  H     -4.794000    2.272000    0.139000
  H     -4.800000   -2.160000   -1.994000
  H     -6.841000   -3.582000   -1.893000
  H     -8.428000   -4.536000    0.546000
  H     -7.956000   -5.337000   -0.981000
  H     -7.456000   -6.037000    0.584000
  H     -5.287000   -0.344000    0.100000
  H     -3.780000   -3.601000    1.947000
  H      3.587000   -6.868000   -1.843000
  H     -2.276000   -4.774000   -0.050000
  H      3.714000   -3.724000    1.926000
  H      5.092000   -5.795000    1.871000
  H      6.205000   -7.329000   -0.439000
  H      5.393000   -7.917000    1.042000
  H      4.759000   -8.373000   -0.564000
  H      0.329000   -5.290000   -0.008000
  H      2.146000   -4.842000   -1.940000
  H      5.808000    4.986000   -1.956000
  H      4.788000   -2.281000   -0.185000
  H      4.860000    2.114000    1.912000
  H      6.901000    3.531000    1.772000
  H      7.383000    6.109000    0.356000
  H      8.414000    4.652000    0.435000
  H      7.921000    5.310000   -1.150000
  H      5.283000    0.336000   -0.179000
  H      3.720000    3.632000   -1.967000

----------------------------
CARTESIAN COORDINATES (A.U.)
----------------------------
  NO LB      ZA    FRAG     MASS         X           Y           Z
   0 C     6.0000    0    12.011   -9.354144    9.794451    0.372276
   1 C     6.0000    0    12.011    2.785456    7.636383    0.107714
   2 C     6.0000    0    12.011   -5.295013    7.734649    0.092597
   3 C     6.0000    0    12.011   -4.198971   10.138381   -0.136060
   4 C     6.0000    0    12.011   -5.701304   12.271882   -0.098266
   5 C     6.0000    0    12.011   -9.788781   14.407272    0.253223
   6 C     6.0000    0    12.011    0.249444    8.139050    0.115273
   7 C     6.0000    0    12.011   -1.075254    5.775003    0.088817
   8 C     6.0000    0    12.011    3.116158    4.947303    0.043464
   9 C     6.0000    0    12.011   -7.931181    7.606148    0.357158
  10 N     7.0000    0    14.007   -8.239206   12.082909    0.145509
  11 N     7.0000    0    14.007    0.733214    3.906064    0.047243
  12 N     7.0000    0    14.007   -3.798350    0.746442   -0.141729
  13 N     7.0000    0    14.007   -0.733214   -3.919292   -0.051023
  14 N     7.0000    0    14.007    3.798350   -0.757780    0.122832
  15 C     6.0000    0    12.011   -3.703863    5.406506    0.045353
  16 C     6.0000    0    12.011   -4.956752    3.051908   -0.034015
  17 C     6.0000    0    12.011  -10.531444   -8.180624    2.014448
  18 C     6.0000    0    12.011   -7.696855    2.779787    0.105825
  19 C     6.0000    0    12.011   -7.759216   -5.208085   -0.049133
  20 C     6.0000    0    12.011   -9.439182   -5.209975   -2.099486
  21 C     6.0000    0    12.011  -11.587801   -6.693410   -2.033345
  22 C     6.0000    0    12.011  -14.458295   -9.662170    0.075589
  23 C     6.0000    0    12.011   -8.171176    0.266451    0.069920
  24 C     6.0000    0    12.011   -5.716422   -0.982658   -0.090707
  25 C     6.0000    0    12.011   -8.356369   -6.738763    2.031456
  26 N     7.0000    0    14.007  -12.107475   -8.150389    0.001890
  27 C     6.0000    0    12.011   -5.417845   -3.632054   -0.075589
  28 C     6.0000    0    12.011   -3.118048   -4.958641   -0.051023
  29 C     6.0000    0    12.011    6.742543  -11.606698   -1.965315
  30 C     6.0000    0    12.011   -2.789236   -7.651501   -0.064251
  31 C     6.0000    0    12.011    5.296902   -7.745987   -0.015118
  32 C     6.0000    0    12.011    6.910728   -8.284559    2.020117
  33 C     6.0000    0    12.011    8.365818  -10.450186    2.001220
  34 C     6.0000    0    12.011    9.911614  -14.339242    0.026456
  35 C     6.0000    0    12.011   -0.253223   -8.154168   -0.041574
  36 C     6.0000    0    12.011    1.073364   -5.790121   -0.051023
  37 C     6.0000    0    12.011    5.243990   -9.471307   -2.029566
  38 N     7.0000    0    14.007    8.269442  -12.077240    0.032125
  39 C     6.0000    0    12.011    3.701973   -5.421624   -0.017008
  40 C     6.0000    0    12.011    4.952972   -3.065136    0.017008
  41 C     6.0000    0    12.011   10.474752    8.199522   -2.135391
  42 C     6.0000    0    12.011    7.691185   -2.794905   -0.177634
  43 C     6.0000    0    12.011    7.755436    5.198637   -0.039684
  44 C     6.0000    0    12.011    9.499653    5.157063    1.957756
  45 C     6.0000    0    12.011   11.652051    6.631049    1.848152
  46 C     6.0000    0    12.011   14.397823    9.737759   -0.217319
  47 C     6.0000    0    12.011    8.165507   -0.279679   -0.173855
  48 C     6.0000    0    12.011    5.716422    0.971319    0.028346
  49 C     6.0000    0    12.011    8.290229    6.768999   -2.107045
  50 C     6.0000    0    12.011    5.415955    3.620715    0.024566
  51 N     7.0000    0    14.007   12.118814    8.118263   -0.179524
  52 H     1.0000    0     1.008  -11.393159    9.783112    0.548021
  53 H     1.0000    0     1.008    4.297237    9.006435    0.153068
  54 H     1.0000    0     1.008   -2.173185   10.363258   -0.328812
  55 H     1.0000    0     1.008   -4.941634   14.165387   -0.253223
  56 H     1.0000    0     1.008   -9.849253   15.087573    2.201531
  57 H     1.0000    0     1.008   -8.934625   15.830236   -0.967540
  58 H     1.0000    0     1.008  -11.689846   13.966966   -0.402512
  59 H     1.0000    0     1.008   -0.627389    9.981533    0.130391
  60 H     1.0000    0     1.008   -8.891161    5.803349    0.515895
  61 H     1.0000    0     1.008    0.343930    2.025786    0.009449
  62 H     1.0000    0     1.008   -0.345820   -2.040904   -0.039684
  63 H     1.0000    0     1.008  -11.081354   -9.376821    3.581031
  64 H     1.0000    0     1.008   -9.059347    4.293458    0.262672
  65 H     1.0000    0     1.008   -9.070685   -4.081808   -3.768114
  66 H     1.0000    0     1.008  -12.927616   -6.768999   -3.577252
  67 H     1.0000    0     1.008  -15.926612   -8.571798    1.031790
  68 H     1.0000    0     1.008  -15.034661  -10.085468   -1.853821
  69 H     1.0000    0     1.008  -14.089798  -11.408277    1.103600
  70 H     1.0000    0     1.008   -9.990982   -0.650066    0.188973
  71 H     1.0000    0     1.008   -7.143165   -6.804904    3.679297
  72 H     1.0000    0     1.008    6.778448  -12.978639   -3.482765
  73 H     1.0000    0     1.008   -4.301017   -9.021553   -0.094486
  74 H     1.0000    0     1.008    7.018443   -7.037340    3.639613
  75 H     1.0000    0     1.008    9.622485  -10.950963    3.535678
  76 H     1.0000    0     1.008   11.725751  -13.849803   -0.829590
  77 H     1.0000    0     1.008   10.191293  -14.960962    1.969095
  78 H     1.0000    0     1.008    8.993207  -15.822677   -1.065806
  79 H     1.0000    0     1.008    0.621720   -9.996651   -0.015118
  80 H     1.0000    0     1.008    4.055352   -9.150054   -3.666069
  81 H     1.0000    0     1.008   10.975529    9.422175   -3.696304
  82 H     1.0000    0     1.008    9.048009   -4.310465   -0.349599
  83 H     1.0000    0     1.008    9.184069    3.994881    3.613156
  84 H     1.0000    0     1.008   13.041000    6.672623    3.348595
  85 H     1.0000    0     1.008   13.951848   11.544337    0.672743
  86 H     1.0000    0     1.008   15.900156    8.791006    0.822031
  87 H     1.0000    0     1.008   14.968521   10.034446   -2.173185
  88 H     1.0000    0     1.008    9.983423    0.634948   -0.338261
  89 H     1.0000    0     1.008    7.029781    6.863485   -3.717091

--------------------------------
INTERNAL COORDINATES (ANGSTROEM)
--------------------------------
 C      0   0   0     0.000000000000     0.00000000     0.00000000
 C      1   0   0     6.526219426283     0.00000000     0.00000000
 C      1   2   0     2.413277439500    16.96443280     0.00000000
 C      3   1   2     1.403219512407    87.92297033   347.57237467
 C      4   3   1     1.380965604206   120.12534671     0.13176492
 C      5   4   3     2.447460929208   152.54052669     1.66521383
 C      2   1   3     1.368114030335     1.55127785   128.77908727
 C      7   2   4     1.434084376876   108.05010202   165.75660605
 C      2   1   3     1.434123425651   107.11270615   353.00138584
 C      1   2   7     1.381317125066    46.88897753   137.51711333
 N      1   2   7     1.352413028627    74.05953445   321.76424670
 N      9   2   1     1.376127174356   106.58526707     0.37650753
 N     12   9   2     2.925062050624   168.53581413   171.12065651
 N     13  12   9     2.954513327098    91.55032014    11.12112580
 N     14  13  12     2.925371258490    88.43092389   359.84326247
 C      8   7   2     1.404790019896   127.24786865   181.11170171
 C     13  12   9     1.366535034311    81.72106996   188.00453233
 C     14  13  12     5.758810554272    80.56209567   166.76250791
 C     17  13  12     1.459010623676   111.08861209   183.82872609
 C     18  14  13     2.412235892279    27.27532823    36.33507194
 C     20  18  14     1.402692767501    87.95206320   148.94598259
 C     21  20  18     1.382106725257   120.14573887   359.70382047
 C     18  14  13     2.446510985056   144.15733107    82.80075377
 C     19  17  13     1.353610726908   106.29293361   359.75308708
 C     13  12   9     1.366813447402   172.21332906    33.46711076
 C     18  14  13     1.380960173213    15.08449437   309.23336894
 N     22  21  20     1.352773077792   120.73759875     0.27865223
 C     25  13  17     1.410897586645   125.60330303   182.37774668
 C     14  13  12     1.376642291955    80.24689249   177.85461986
 C     14  13  12     5.764089607215   164.51507311   312.20821879
 C     29  14  13     1.435600919476   106.58649366   178.76395472
 C     30  14  13     2.413316804732    27.10625047    82.12560436
 C     32  30  14     1.403734305344    87.90059683   149.76154742
 C     33  32  30     1.380694028378   120.14881443   359.74174632
 C     34  33  32     2.448777858443   152.49203239     2.45173620
 C     31  29  14     1.368160809262   108.16950133     0.70383075
 C     14  13  12     1.376239804685   169.26375223   353.09862627
 C     30  14  13     1.380907310430    14.68948582   353.70041132
 N     34  33  32     1.352658863128   120.85575621     0.19603406
 C     37  14  29     1.404717053360   126.01551127   180.90772073
 C     15  14  13     1.366491126938    81.61824056   183.09049352
 C      2   1   3     4.249062720177   159.44640485   124.34137747
 C     41  15  14     1.459677704153   111.05201287   175.08990246
 C     42   2   1     2.412953791518    41.78584867   202.29536313
 C     44  42   2     1.403446472082    87.95153797   233.97558675
 C     45  44  42     1.381696421071   120.11137308     0.19721020
 C     42   2   1     2.450019795838   135.97209175   112.61021223
 C     43  41  15     1.354461516618   106.26758155     0.30894352
 C     15  14  13     1.367461151185   171.87382904   332.35056460
 C     42   2   1     1.381886391857    32.59078432   251.15064232
 C      9   2   1     1.404988612053   126.98745415   181.38084506
 N     42   2   1     1.352765315936   113.57249190   140.34680142
 H      1   2   7     1.083017082044   168.97945995   156.64519263
 H      2   1   3     1.079907866440   127.67967176   174.51782842
 H      4   3   1     1.083396972490   121.10939431   179.62151266
 H      5   4   3     1.082742813414   122.80224823   179.50076031
 H      6   5   4     1.092513157816   104.46226873   100.10181411
 H      6   5   4     1.090242633545    84.68992623   209.52418440
 H      6   5   4     1.089373214284   133.88208354   322.28791658
 H     55   4   3     0.876913336653   150.64665030   315.13747595
 H     10   1   2     1.084083022651   118.80558748   176.11673605
 H     12   9   2     1.016297692608   125.29023241   180.00180175
 H     14  13  12     1.014936943854    44.97226959   359.42596618
 H     18  14  13     1.082871645210   128.03556573   234.20482432
 H     61  10   1     0.815032514689   154.30654479   150.01704728
 H     21  20  18     1.083569563987   121.05669627   180.67006309
 H     22  21  20     1.082483256222   122.73097286   180.59748951
 H     23  18  14     1.092105306278   103.92715769   234.93429879
 H     23  18  14     1.088871893291   134.19244188    12.25587044
 H     23  18  14     1.089833473518    84.85857450   125.45241208
 H     24  19  17     1.080075460327   127.28078426   178.44613241
 H     26  18  14     1.083408048706   118.76995697   244.94906660
 H     30  14  13     1.082703098730   127.99711412   279.66882698
 H     31  29  14     1.079759695488   125.22293469   180.92530585
 H     33  32  30     1.083188810873   121.01964473   180.74284758
 H     34  33  32     1.082494341787   122.70821597   180.59516895
 H     35  34  33     1.092652735319   105.73575241    97.19771933
 H     35  34  33     1.089462711615    84.05943581   206.43036958
 H     35  34  33     1.089268102902   133.08365142   318.50306270
 H     36  31  29     1.079439669458   126.61599965   178.98859863
 H     38  30  73     1.083742127999   118.77264435   359.90091293
 H     42   2   1     1.082178358682   119.31790784   356.97833187
 H     43  41  15     1.080281907652   126.36969097   182.06329380
 H     45  44  42     1.083277434455   121.10105945   179.58025624
 H     46  45  44     1.082194529648   122.72144639   179.46906377
 H     47  42   2     1.091546151109   106.65128841   315.16475048
 H     47  42   2     1.088818625851   132.46019523    94.52397119
 H     47  42   2     1.089531091801    83.63838232   206.04504406
 H     48  43  41     1.080402239909   127.23657387   181.62955349
 H     50  42   2     1.083186502870   118.77001737    94.71359229

---------------------------
INTERNAL COORDINATES (A.U.)
---------------------------
 C      0   0   0     0.000000000000     0.00000000     0.00000000
 C      1   0   0    12.332767405552     0.00000000     0.00000000
 C      1   2   0     4.560433445826    16.96443280     0.00000000
 C      3   1   2     2.651700584224    87.92297033   347.57237467
 C      4   3   1     2.609646792314   120.12534671     0.13176492
 C      5   4   3     4.625030879676   152.54052669     1.66521383
 C      2   1   3     2.585360837309     1.55127785   128.77908727
 C      7   2   4     2.710026725231   108.05010202   165.75660605
 C      2   1   3     2.710100516721   107.11270615   353.00138584
 C      1   2   7     2.610311070470    46.88897753   137.51711333
 N      1   2   7     2.555690244052    74.05953445   321.76424670
 N      9   2   1     2.600503484979   106.58526707     0.37650753
 N     12   9   2     5.527566200405   168.53581413   171.12065651
 N     13  12   9     5.583221047236    91.55032014    11.12112580
 N     14  13  12     5.528150518591    88.43092389   359.84326247
 C      8   7   2     2.654668413270   127.24786865   181.11170171
 C     13  12   9     2.582376967257    81.72106996   188.00453233
 C     14  13  12    10.882574804710    80.56209567   166.76250791
 C     17  13  12     2.757130505230   111.08861209   183.82872609
 C     18  14  13     4.558465206823    27.27532823    36.33507194
 C     20  18  14     2.650705180609    87.95206320   148.94598259
 C     21  20  18     2.611803198586   120.14573887   359.70382047
 C     18  14  13     4.623235745386   144.15733107    82.80075377
 C     19  17  13     2.557953565794   106.29293361   359.75308708
 C     13  12   9     2.582903091751   172.21332906    33.46711076
 C     18  14  13     2.609636529225    15.08449437   309.23336894
 N     22  21  20     2.556370638369   120.73759875     0.27865223
 C     25  13  17     2.666210041769   125.60330303   182.37774668
 C     14  13  12     2.601476916169    80.24689249   177.85461986
 C     14  13  12    10.892550769017   164.51507311   312.20821879
 C     29  14  13     2.712892575415   106.58649366   178.76395472
 C     30  14  13     4.560507835333    27.10625047    82.12560436
 C     32  30  14     2.652673401891    87.90059683   149.76154742
 C     33  32  30     2.609133588376   120.14881443   359.74174632
 C     34  33  32     4.627519515267   152.49203239     2.45173620
 C     31  29  14     2.585449236669   108.16950133     0.70383075
 C     14  13  12     2.600716325456   169.26375223   353.09862627
 C     30  14  13     2.609536633043    14.68948582   353.70041132
 N     34  33  32     2.556154803934   120.85575621     0.19603406
 C     37  14  29     2.654530526499   126.01551127   180.90772073
 C     15  14  13     2.582293994346    81.61824056   183.09049352
 C      2   1   3     8.029564866989   159.44640485   124.34137747
 C     41  15  14     2.758391104639   111.05201287   175.08990246
 C     42   2   1     4.559821839776    41.78584867   202.29536313
 C     44  42   2     2.652129475853    87.95153797   233.97558675
 C     45  44  42     2.611027836043   120.11137308     0.19721020
 C     42   2   1     4.629866436820   135.97209175   112.61021223
 C     43  41  15     2.559561325344   106.26758155     0.30894352
 C     15  14  13     2.584127074516   171.87382904   332.35056460
 C     42   2   1     2.611386828803    32.59078432   251.15064232
 C      9   2   1     2.655043698059   126.98745415   181.38084506
 N     42   2   1     2.556355970587   113.57249190   140.34680142
 H      1   2   7     2.046605683422   168.97945995   156.64519263
 H      2   1   3     2.040730117440   127.67967176   174.51782842
 H      4   3   1     2.047323572325   121.10939431   179.62151266
 H      5   4   3     2.046087390824   122.80224823   179.50076031
 H      6   5   4     2.064550665977   104.46226873   100.10181411
 H      6   5   4     2.060259996926    84.68992623   209.52418440
 H      6   5   4     2.058617032627   133.88208354   322.28791658
 H     55   4   3     1.657126049457   150.64665030   315.13747595
 H     10   1   2     2.048620019244   118.80558748   176.11673605
 H     12   9   2     1.920524309565   125.29023241   180.00180175
 H     14  13  12     1.917952867083    44.97226959   359.42596618
 H     18  14  13     2.046330847636   128.03556573   234.20482432
 H     61  10   1     1.540188243003   154.30654479   150.01704728
 H     21  20  18     2.047649722989   121.05669627   180.67006309
 H     22  21  20     2.045596898814   122.73097286   180.59748951
 H     23  18  14     2.063779938267   103.92715769   234.93429879
 H     23  18  14     2.057669673245   134.19244188    12.25587044
 H     23  18  14     2.059486796529    84.85857450   125.45241208
 H     24  19  17     2.041046823986   127.28078426   178.44613241
 H     26  18  14     2.047344503340   118.76995697   244.94906660
 H     30  14  13     2.046012340948   127.99711412   279.66882698
 H     31  29  14     2.040450114918   125.22293469   180.92530585
 H     33  32  30     2.046930203877   121.01964473   180.74284758
 H     34  33  32     2.045617847496   122.70821597   180.59516895
 H     35  34  33     2.064814429233   105.73575241    97.19771933
 H     35  34  33     2.058786158072    84.05943581   206.43036958
 H     35  34  33     2.058418400901   133.08365142   318.50306270
 H     36  31  29     2.039845353366   126.61599965   178.98859863
 H     38  30  73     2.047975821711   118.77264435   359.90091293
 H     42   2   1     2.045020725966   119.31790784   356.97833187
 H     43  41  15     2.041436952892   126.36969097   182.06329380
 H     45  44  42     2.047097678177   121.10105945   179.58025624
 H     46  45  44     2.045051284662   122.72144639   179.46906377
 H     47  42   2     2.062723288131   106.65128841   315.16475048
 H     47  42   2     2.057569012371   132.46019523    94.52397119
 H     47  42   2     2.058915377895    83.63838232   206.04504406
 H     48  43  41     2.041664347903   127.23657387   181.62955349
 H     50  42   2     2.046925842384   118.77001737    94.71359229

---------------------
BASIS SET INFORMATION
---------------------
There are 3 groups of distinct atoms

 Group   1 Type C   : 17s4p1d contracted to 3s2p1d pattern {881/31/1}
 Group   2 Type N   : 17s4p1d contracted to 3s2p1d pattern {881/31/1}
 Group   3 Type H   : 4s1p contracted to 2s1p pattern {31/1}

Atom   0C    basis set group =>   1
Atom   1N    basis set group =>   2
Atom   2C    basis set group =>   1
Atom   3N    basis set group =>   2
Atom   4C    basis set group =>   1
Atom   5N    basis set group =>   2
Atom   6C    basis set group =>   1
Atom   7N    basis set group =>   2
Atom   8C    basis set group =>   1
Atom   9N    basis set group =>   2
Atom  10C    basis set group =>   1
Atom  11N    basis set group =>   2
Atom  12C    basis set group =>   1
Atom  13N    basis set group =>   2
Atom  14C    basis set group =>   1
Atom  15N    basis set group =>   2
Atom  16C    basis set group =>   1
Atom  17C    basis set group =>   1
Atom  18C    basis set group =>   1
Atom  19C    basis set group =>   1
Atom  20C    basis set group =>   1
Atom  21C    basis set group =>   1
Atom  22C    basis set group =>   1
Atom  23C    basis set group =>   1
Atom  24C    basis set group =>   1
Atom  25C    basis set group =>   1
Atom  26C    basis set group =>   1
Atom  27C    basis set group =>   1
Atom  28C    basis set group =>   1
Atom  29C    basis set group =>   1
Atom  30C    basis set group =>   1
Atom  31C    basis set group =>   1
Atom  32C    basis set group =>   1
Atom  33C    basis set group =>   1
Atom  34C    basis set group =>   1
Atom  35C    basis set group =>   1
Atom  36C    basis set group =>   1
Atom  37C    basis set group =>   1
Atom  38C    basis set group =>   1
Atom  39C    basis set group =>   1
Atom  40C    basis set group =>   1
Atom  41C    basis set group =>   1
Atom  42C    basis set group =>   1
Atom  43C    basis set group =>   1
Atom  44C    basis set group =>   1
Atom  45C    basis set group =>   1
Atom  46C    basis set group =>   1
Atom  47C    basis set group =>   1
Atom  48C    basis set group =>   1
Atom  49C    basis set group =>   1
Atom  50C    basis set group =>   1
Atom  51C    basis set group =>   1
Atom  52H    basis set group =>   3
Atom  53H    basis set group =>   3
Atom  54H    basis set group =>   3
Atom  55H    basis set group =>   3
Atom  56H    basis set group =>   3
Atom  57H    basis set group =>   3
Atom  58H    basis set group =>   3
Atom  59H    basis set group =>   3
Atom  60H    basis set group =>   3
Atom  61H    basis set group =>   3
Atom  62H    basis set group =>   3
Atom  63H    basis set group =>   3
Atom  64H    basis set group =>   3
Atom  65H    basis set group =>   3
Atom  66H    basis set group =>   3
Atom  67H    basis set group =>   3
Atom  68H    basis set group =>   3
Atom  69H    basis set group =>   3
Atom  70H    basis set group =>   3
Atom  71H    basis set group =>   3
Atom  72H    basis set group =>   3
Atom  73H    basis set group =>   3
Atom  74H    basis set group =>   3
Atom  75H    basis set group =>   3
Atom  76H    basis set group =>   3
Atom  77H    basis set group =>   3
Atom  78H    basis set group =>   3
Atom  79H    basis set group =>   3
Atom  80H    basis set group =>   3
Atom  81H    basis set group =>   3
Atom  82H    basis set group =>   3
Atom  83H    basis set group =>   3
Atom  84H    basis set group =>   3
Atom  85H    basis set group =>   3
Atom  86H    basis set group =>   3
Atom  87H    basis set group =>   3
Atom  88H    basis set group =>   3
Atom  89H    basis set group =>   3


           ************************************************************
           *        Program running with 16 parallel MPI-processes    *
           *              working on a common directory               *
           ************************************************************
------------------------------------------------------------------------------
                           ORCA GTO INTEGRAL CALCULATION
------------------------------------------------------------------------------
------------------------------------------------------------------------------
                   ___                                                        
                  /   \      - P O W E R E D   B Y -                         
                 /     \                                                     
                 |  |  |   _    _      __       _____    __    __             
                 |  |  |  | |  | |    /  \     |  _  \  |  |  /  |          
                  \  \/   | |  | |   /    \    | | | |  |  | /  /          
                 / \  \   | |__| |  /  /\  \   | |_| |  |  |/  /          
                |  |  |   |  __  | /  /__\  \  |    /   |      \           
                |  |  |   | |  | | |   __   |  |    \   |  |\   \          
                \     /   | |  | | |  |  |  |  | |\  \  |  | \   \       
                 \___/    |_|  |_| |__|  |__|  |_| \__\ |__|  \__/        
                                                                              
                      - O R C A' S   B I G   F R I E N D -                    
                                      &                                       
                       - I N T E G R A L  F E E D E R -                       
                                                                              
 v1 FN, 2020, v2 2021                                                         
------------------------------------------------------------------------------


Reading SHARK input file /scratch/allen/tmpyp4_amber_gaff2/conf1/conf1/Conf188.orca.SHARKINP.tmp ... ok
----------------------
SHARK INTEGRAL PACKAGE
----------------------

Number of atoms                             ...     90
Number of basis functions                   ...   1230
Number of shells                            ...    738
Maximum angular momentum                    ...      2
Integral batch strategy                     ... SHARK/LIBINT Hybrid
RI-J (if used) integral strategy            ... SPLIT-RIJ (Revised 2003 algorithm where possible)
Printlevel                                  ...      1
Contraction scheme used                     ... PARTIAL GENERAL contraction
Coulomb Range Separation                    ... NOT USED
Exchange Range Separation                   ... NOT USED
Finite Nucleus Model                        ... NOT USED
Auxiliary Coulomb fitting basis             ... NOT available
Auxiliary J/K fitting basis                 ... NOT available
Auxiliary Correlation fitting basis         ... NOT available
Auxiliary 'external' fitting basis          ... NOT available
Integral threshold                          ...     2.500000e-11
Primitive cut-off                           ...     2.500000e-12
Primitive pair pre-selection threshold      ...     2.500000e-12

Calculating pre-screening integrals         ... done (  0.1 sec) Dimension = 738
Calculating pre-screening integrals (ORCA)  ... done (  0.3 sec) Dimension = 426
Organizing shell pair data                  ... done (  0.7 sec)
Shell pair information
Total number of shell pairs                 ...    272691
Shell pairs after pre-screening             ...     71730
Total number of primitive shell pairs       ...    422091
Primitive shell pairs kept                  ...     92641
          la=0 lb=0:  29439 shell pairs
          la=1 lb=0:  26036 shell pairs
          la=1 lb=1:   4699 shell pairs
          la=2 lb=0:   7897 shell pairs
          la=2 lb=1:   3130 shell pairs
          la=2 lb=2:    529 shell pairs

Calculating one electron integrals          ... done (  0.2 sec)
Calculating Nuclear repulsion               ... done (  0.0 sec) ENN=   6235.659924187358 Eh

SHARK setup successfully completed in   2.3 seconds

Maximum memory used throughout the entire GTOINT-calculation: 99.1 MB


           ************************************************************
           *        Program running with 16 parallel MPI-processes    *
           *              working on a common directory               *
           ************************************************************
-------------------------------------------------------------------------------
                                 ORCA SCF
-------------------------------------------------------------------------------

------------
SCF SETTINGS
------------
Hamiltonian:
 Ab initio Hamiltonian  Method          .... Hartree-Fock(GTOs)


General Settings:
 Integral files         IntName         .... /scratch/allen/tmpyp4_amber_gaff2/conf1/conf1/Conf188.orca
 Hartree-Fock type      HFTyp           .... RHF
 Total Charge           Charge          ....    0
 Multiplicity           Mult            ....    1
 Number of Electrons    NEL             ....  358
 Basis Dimension        Dim             ....  918
 Nuclear Repulsion      ENuc            ....   6235.6599241874 Eh

Convergence Acceleration:
 DIIS                   CNVDIIS         .... on
   Start iteration      DIISMaxIt       ....    12
   Startup error        DIISStart       ....  0.200000
   # of expansion vecs  DIISMaxEq       ....     5
   Bias factor          DIISBfac        ....   1.050
   Max. coefficient     DIISMaxC        ....  10.000
 Trust-Rad. Augm. Hess. CNVTRAH         .... auto
   Auto Start mean grad. ratio tolernc. ....  1.125000
   Auto Start start iteration           ....    20
   Auto Start num. interpolation iter.  ....    10
   Max. Number of Micro iterations      ....    16
   Max. Number of Macro iterations      .... Maxiter - #DIIS iter
   Number of Davidson start vectors     ....     2
   Converg. threshold I  (grad. norm)   ....   1.000e-05
   Converg. threshold II (energy diff.) ....   1.000e-08
   Grad. Scal. Fac. for Micro threshold ....   0.100
   Minimum threshold for Micro iter.    ....   0.010
   NR start threshold (gradient norm)   ....   0.001
   Initial trust radius                 ....   0.400
   Minimum AH scaling param. (alpha)    ....   1.000
   Maximum AH scaling param. (alpha)    .... 1000.000
   Orbital update algorithm             .... Taylor
   White noise on init. David. guess    .... on
   Maximum white noise                  ....   0.010
   Quad. conv. algorithm                .... NR
 SOSCF                  CNVSOSCF        .... on
   Start iteration      SOSCFMaxIt      ....   150
   Startup grad/error   SOSCFStart      ....  0.003300
 Level Shifting         CNVShift        .... on
   Level shift para.    LevelShift      ....    0.2500
   Turn off err/grad.   ShiftErr        ....    0.0010
 Zerner damping         CNVZerner       .... off
 Static damping         CNVDamp         .... on
   Fraction old density DampFac         ....    0.7000
   Max. Damping (<1)    DampMax         ....    0.9800
   Min. Damping (>=0)   DampMin         ....    0.0000
   Turn off err/grad.   DampErr         ....    0.1000
 Fernandez-Rico         CNVRico         .... off

SCF Procedure:
 Maximum # iterations   MaxIter         ....   125
 SCF integral mode      SCFMode         .... Direct
   Integral package                     .... SHARK and LIBINT hybrid scheme
 Reset frequency        DirectResetFreq ....    20
 Integral Threshold     Thresh          ....  2.500e-11 Eh
 Primitive CutOff       TCut            ....  2.500e-12 Eh

Convergence Tolerance:
 Convergence Check Mode ConvCheckMode   .... Total+1el-Energy
 Convergence forced     ConvForced      .... 1
 Energy Change          TolE            ....  1.000e-08 Eh
 1-El. energy change                    ....  1.000e-05 Eh
 Orbital Gradient       TolG            ....  1.000e-05
 Orbital Rotation angle TolX            ....  1.000e-05
 DIIS Error             TolErr          ....  5.000e-07


Diagonalization of the overlap matrix:
Smallest eigenvalue                        ... 1.678e-04
Time for diagonalization                   ...    0.435 sec
Threshold for overlap eigenvalues          ... 1.000e-08
Number of eigenvalues below threshold      ... 0
Time for construction of square roots      ...    0.269 sec
Total time needed                          ...    0.710 sec

Time for model grid setup =    1.293 sec

------------------------------
INITIAL GUESS: MODEL POTENTIAL
------------------------------
Loading Hartree-Fock densities                     ... done
Calculating cut-offs                               ... done
Initializing the effective Hamiltonian             ... done
Setting up the integral package (SHARK)            ... done
Starting the Coulomb interaction                   ... done (   1.4 sec)
Reading the grid                                   ... done
Mapping shells                                     ... done
Starting the XC term evaluation                    ... done (   0.2 sec)
Transforming the Hamiltonian                       ... done (   0.3 sec)
Diagonalizing the Hamiltonian                      ... done (   0.4 sec)
Back transforming the eigenvectors                 ... done (   0.1 sec)
Now organizing SCF variables                       ... done
                      ------------------
                      INITIAL GUESS DONE (   3.8 sec)
                      ------------------
--------------
SCF ITERATIONS
--------------
ITER       Energy         Delta-E        Max-DP      RMS-DP      [F,P]     Damp
               ***  Starting incremental Fock matrix formation  ***
  0  -2121.5622951406   0.000000000000 0.07495109  0.00130417  0.2310825 0.7000
  1  -2122.2009052768  -0.638610136120 0.06206191  0.00105896  0.1434450 0.7000
                               ***Turning on DIIS***
  2  -2122.5999793465  -0.399074069728 0.13519696  0.00240150  0.0803284 0.0000
  3  -2118.0464371761   4.553542170388 0.08586093  0.00072042  0.0433897 0.0000
  4  -2123.3056256510  -5.259188474898 0.02743525  0.00023796  0.0093832 0.0000
  5  -2123.4271039403  -0.121478289328 0.01213355  0.00013564  0.0048144 0.0000
  6  -2123.4109602039   0.016143736379 0.00695982  0.00008567  0.0022703 0.0000
  7  -2123.5025748149  -0.091614610959 0.00415544  0.00006677  0.0016396 0.0000
  8  -2123.5081724926  -0.005597677675 0.00334660  0.00006363  0.0015381 0.0000
  9  -2123.4823532688   0.025819223769 0.00269584  0.00004556  0.0012399 0.0000
 10  -2123.4895932007  -0.007239931925 0.00544437  0.00009560  0.0009746 0.0000
                      *** Initiating the SOSCF procedure ***
                           *** Shutting down DIIS ***
                      *** Re-Reading the Fockian *** 
                      *** Removing any level shift *** 
ITER      Energy       Delta-E        Grad      Rot      Max-DP    RMS-DP
 11  -2123.38443170   0.1051614984  0.000189  0.000189  0.000250  0.000005
               *** Restarting incremental Fock matrix formation ***
 12  -2123.44997705  -0.0655453434  0.000947  0.006338  0.001516  0.000035
 13  -2123.45008905  -0.0001120078  0.001150  0.031414  0.006926  0.000136
 14  -2123.45027273  -0.0001836792  0.000408  0.002125  0.000636  0.000013
 15  -2123.45028794  -0.0000152120  0.000174  0.001998  0.000477  0.000012
 16  -2123.45029418  -0.0000062379  0.000133  0.002040  0.000510  0.000008
 17  -2123.45029669  -0.0000025111  0.000117  0.001735  0.000281  0.000007
 18  -2123.45029776  -0.0000010682  0.000056  0.000855  0.000202  0.000003
 19  -2123.45029838  -0.0000006230  0.000042  0.001370  0.000221  0.000005
 20  -2123.45029878  -0.0000003968  0.000024  0.000781  0.000112  0.000003
 21  -2123.45029895  -0.0000001694  0.000026  0.001002  0.000145  0.000003
 22  -2123.45029912  -0.0000001696  0.000020  0.000979  0.000151  0.000003
 23  -2123.45029923  -0.0000001132  0.000014  0.000403  0.000068  0.000001
 24  -2123.45029928  -0.0000000425  0.000008  0.000301  0.000051  0.000001
 25  -2123.45029930  -0.0000000257  0.000007  0.000122  0.000038  0.000001
 26  -2123.45029931  -0.0000000122  0.000006  0.000076  0.000028  0.000000
 27  -2123.45029931   0.0000000012  0.000003  0.000058  0.000019  0.000000
                  ***Gradient check signals convergence***
              ***Rediagonalizing the Fockian in SOSCF/NRSCF***

               *****************************************************
               *                     SUCCESS                       *
               *           SCF CONVERGED AFTER  28 CYCLES          *
               *****************************************************


----------------
TOTAL SCF ENERGY
----------------

Total Energy       :        -2123.45029931 Eh          -57782.02023 eV

Components:
Nuclear Repulsion  :         6235.65992419 Eh          169680.93295 eV
Electronic Energy  :        -8359.11022350 Eh         -227462.95317 eV
One Electron Energy:       -15311.72755703 Eh         -416653.28907 eV
Two Electron Energy:         6952.61733353 Eh          189190.33590 eV

Virial components:
Potential Energy   :        -4246.08412989 Eh         -115541.82321 eV
Kinetic Energy     :         2122.63383057 Eh           57759.80298 eV
Virial Ratio       :            2.00038465


---------------
SCF CONVERGENCE
---------------

  Last Energy change         ...    2.8376e-10  Tolerance :   1.0000e-08
  Last MAX-Density change    ...    9.4403e-06  Tolerance :   1.0000e-07
  Last RMS-Density change    ...    1.7820e-07  Tolerance :   5.0000e-09
  Last Orbital Gradient      ...    1.6845e-06  Tolerance :   1.0000e-05
  Last Orbital Rotation      ...    4.1770e-05  Tolerance :   1.0000e-05

             **** THE GBW FILE WAS UPDATED (/scratch/allen/tmpyp4_amber_gaff2/conf1/conf1/Conf188.orca.gbw) ****
             **** DENSITY /scratch/allen/tmpyp4_amber_gaff2/conf1/conf1/Conf188.orca.scfp WAS UPDATED ****
             **** ENERGY FILE WAS UPDATED (/scratch/allen/tmpyp4_amber_gaff2/conf1/conf1/Conf188.orca.en.tmp) ****
             **** THE GBW FILE WAS UPDATED (/scratch/allen/tmpyp4_amber_gaff2/conf1/conf1/Conf188.orca.gbw) ****
             **** DENSITY /scratch/allen/tmpyp4_amber_gaff2/conf1/conf1/Conf188.orca.scfp WAS UPDATED ****
----------------
ORBITAL ENERGIES
----------------

  NO   OCC          E(Eh)            E(eV) 
   0   2.0000     -15.679676      -426.6657 
   1   2.0000     -15.633789      -425.4170 
   2   2.0000     -15.631884      -425.3652 
   3   2.0000     -15.588412      -424.1822 
   4   2.0000     -15.525011      -422.4570 
   5   2.0000     -15.515449      -422.1968 
   6   2.0000     -15.453659      -420.5154 
   7   2.0000     -15.439497      -420.1301 
   8   2.0000     -11.329313      -308.2863 
   9   2.0000     -11.328246      -308.2572 
  10   2.0000     -11.327843      -308.2463 
  11   2.0000     -11.299226      -307.4676 
  12   2.0000     -11.298404      -307.4452 
  13   2.0000     -11.292886      -307.2950 
  14   2.0000     -11.291245      -307.2504 
  15   2.0000     -11.286581      -307.1235 
  16   2.0000     -11.286336      -307.1168 
  17   2.0000     -11.281915      -306.9965 
  18   2.0000     -11.269739      -306.6652 
  19   2.0000     -11.263220      -306.4878 
  20   2.0000     -11.262227      -306.4608 
  21   2.0000     -11.250727      -306.1478 
  22   2.0000     -11.248830      -306.0962 
  23   2.0000     -11.237562      -305.7896 
  24   2.0000     -11.236651      -305.7648 
  25   2.0000     -11.231015      -305.6115 
  26   2.0000     -11.230304      -305.5921 
  27   2.0000     -11.229766      -305.5775 
  28   2.0000     -11.229599      -305.5729 
  29   2.0000     -11.211010      -305.0671 
  30   2.0000     -11.209458      -305.0249 
  31   2.0000     -11.194237      -304.6107 
  32   2.0000     -11.192204      -304.5554 
  33   2.0000     -11.191165      -304.5271 
  34   2.0000     -11.188259      -304.4480 
  35   2.0000     -11.188071      -304.4429 
  36   2.0000     -11.186791      -304.4081 
  37   2.0000     -11.174527      -304.0743 
  38   2.0000     -11.172313      -304.0141 
  39   2.0000     -11.171867      -304.0020 
  40   2.0000     -11.170725      -303.9709 
  41   2.0000     -11.168363      -303.9066 
  42   2.0000     -11.167721      -303.8891 
  43   2.0000     -11.161689      -303.7250 
  44   2.0000     -11.161200      -303.7117 
  45   2.0000     -11.156539      -303.5849 
  46   2.0000     -11.156516      -303.5842 
  47   2.0000     -11.151043      -303.4353 
  48   2.0000     -11.146954      -303.3240 
  49   2.0000     -11.135523      -303.0130 
  50   2.0000     -11.129923      -302.8606 
  51   2.0000     -11.118101      -302.5389 
  52   2.0000      -1.360268       -37.0148 
  53   2.0000      -1.321063       -35.9480 
  54   2.0000      -1.319660       -35.9098 
  55   2.0000      -1.280536       -34.8452 
  56   2.0000      -1.226091       -33.3636 
  57   2.0000      -1.210399       -32.9366 
  58   2.0000      -1.173311       -31.9274 
  59   2.0000      -1.150828       -31.3156 
  60   2.0000      -1.143516       -31.1167 
  61   2.0000      -1.110251       -30.2115 
  62   2.0000      -1.108882       -30.1742 
  63   2.0000      -1.081951       -29.4414 
  64   2.0000      -1.077619       -29.3235 
  65   2.0000      -1.045257       -28.4429 
  66   2.0000      -1.044308       -28.4171 
  67   2.0000      -1.040997       -28.3270 
  68   2.0000      -1.014991       -27.6193 
  69   2.0000      -1.014832       -27.6150 
  70   2.0000      -1.009145       -27.4602 
  71   2.0000      -0.993482       -27.0340 
  72   2.0000      -0.985664       -26.8213 
  73   2.0000      -0.981765       -26.7152 
  74   2.0000      -0.974052       -26.5053 
  75   2.0000      -0.962180       -26.1822 
  76   2.0000      -0.954736       -25.9797 
  77   2.0000      -0.946841       -25.7649 
  78   2.0000      -0.939400       -25.5624 
  79   2.0000      -0.916827       -24.9481 
  80   2.0000      -0.910507       -24.7762 
  81   2.0000      -0.898324       -24.4446 
  82   2.0000      -0.877187       -23.8695 
  83   2.0000      -0.872169       -23.7329 
  84   2.0000      -0.870884       -23.6980 
  85   2.0000      -0.861526       -23.4433 
  86   2.0000      -0.845487       -23.0069 
  87   2.0000      -0.838312       -22.8116 
  88   2.0000      -0.829228       -22.5644 
  89   2.0000      -0.796381       -21.6706 
  90   2.0000      -0.789287       -21.4776 
  91   2.0000      -0.774582       -21.0774 
  92   2.0000      -0.752955       -20.4889 
  93   2.0000      -0.734127       -19.9766 
  94   2.0000      -0.728495       -19.8233 
  95   2.0000      -0.726711       -19.7748 
  96   2.0000      -0.720481       -19.6053 
  97   2.0000      -0.717756       -19.5311 
  98   2.0000      -0.714026       -19.4296 
  99   2.0000      -0.699848       -19.0438 
 100   2.0000      -0.698300       -19.0017 
 101   2.0000      -0.694553       -18.8997 
 102   2.0000      -0.685348       -18.6493 
 103   2.0000      -0.684225       -18.6187 
 104   2.0000      -0.678917       -18.4743 
 105   2.0000      -0.674444       -18.3526 
 106   2.0000      -0.672756       -18.3066 
 107   2.0000      -0.661062       -17.9884 
 108   2.0000      -0.658220       -17.9111 
 109   2.0000      -0.652831       -17.7644 
 110   2.0000      -0.652083       -17.7441 
 111   2.0000      -0.646125       -17.5820 
 112   2.0000      -0.645672       -17.5696 
 113   2.0000      -0.638137       -17.3646 
 114   2.0000      -0.635663       -17.2973 
 115   2.0000      -0.628754       -17.1093 
 116   2.0000      -0.623157       -16.9570 
 117   2.0000      -0.620882       -16.8951 
 118   2.0000      -0.612942       -16.6790 
 119   2.0000      -0.612184       -16.6584 
 120   2.0000      -0.611712       -16.6455 
 121   2.0000      -0.611347       -16.6356 
 122   2.0000      -0.601533       -16.3686 
 123   2.0000      -0.589246       -16.0342 
 124   2.0000      -0.581563       -15.8251 
 125   2.0000      -0.580783       -15.8039 
 126   2.0000      -0.580371       -15.7927 
 127   2.0000      -0.571003       -15.5378 
 128   2.0000      -0.566706       -15.4209 
 129   2.0000      -0.559889       -15.2353 
 130   2.0000      -0.555793       -15.1239 
 131   2.0000      -0.547744       -14.9049 
 132   2.0000      -0.542719       -14.7681 
 133   2.0000      -0.540374       -14.7043 
 134   2.0000      -0.538807       -14.6617 
 135   2.0000      -0.536145       -14.5893 
 136   2.0000      -0.531974       -14.4757 
 137   2.0000      -0.518313       -14.1040 
 138   2.0000      -0.516723       -14.0607 
 139   2.0000      -0.514382       -13.9971 
 140   2.0000      -0.511773       -13.9261 
 141   2.0000      -0.510095       -13.8804 
 142   2.0000      -0.507512       -13.8101 
 143   2.0000      -0.505589       -13.7578 
 144   2.0000      -0.502380       -13.6705 
 145   2.0000      -0.495761       -13.4903 
 146   2.0000      -0.488394       -13.2899 
 147   2.0000      -0.481406       -13.0997 
 148   2.0000      -0.476611       -12.9692 
 149   2.0000      -0.467639       -12.7251 
 150   2.0000      -0.466190       -12.6857 
 151   2.0000      -0.456206       -12.4140 
 152   2.0000      -0.451348       -12.2818 
 153   2.0000      -0.445163       -12.1135 
 154   2.0000      -0.438203       -11.9241 
 155   2.0000      -0.427807       -11.6412 
 156   2.0000      -0.409169       -11.1341 
 157   2.0000      -0.390963       -10.6386 
 158   2.0000      -0.387931       -10.5561 
 159   2.0000      -0.386656       -10.5214 
 160   2.0000      -0.378294       -10.2939 
 161   2.0000      -0.373237       -10.1563 
 162   2.0000      -0.360708        -9.8154 
 163   2.0000      -0.356571        -9.7028 
 164   2.0000      -0.355860        -9.6834 
 165   2.0000      -0.341697        -9.2980 
 166   2.0000      -0.337560        -9.1855 
 167   2.0000      -0.324677        -8.8349 
 168   2.0000      -0.321717        -8.7544 
 169   2.0000      -0.305293        -8.3074 
 170   2.0000      -0.299266        -8.1434 
 171   2.0000      -0.285977        -7.7818 
 172   2.0000      -0.278306        -7.5731 
 173   2.0000      -0.263406        -7.1676 
 174   2.0000      -0.242261        -6.5922 
 175   2.0000      -0.190002        -5.1702 
 176   2.0000      -0.181360        -4.9350 
 177   2.0000      -0.080081        -2.1791 
 178   2.0000      -0.059644        -1.6230 
 179   0.0000       0.028459         0.7744 
 180   0.0000       0.065428         1.7804 
 181   0.0000       0.090271         2.4564 
 182   0.0000       0.106355         2.8941 
 183   0.0000       0.116687         3.1752 
 184   0.0000       0.137041         3.7291 
 185   0.0000       0.139482         3.7955 
 186   0.0000       0.141028         3.8376 
 187   0.0000       0.164313         4.4712 
 188   0.0000       0.165182         4.4948 
 189   0.0000       0.165646         4.5075 
 190   0.0000       0.174467         4.7475 
 191   0.0000       0.180447         4.9102 
 192   0.0000       0.183873         5.0034 
 193   0.0000       0.189106         5.1458 
 194   0.0000       0.204908         5.5758 
 195   0.0000       0.205562         5.5936 
 196   0.0000       0.208314         5.6685 
 197   0.0000       0.208619         5.6768 
 198   0.0000       0.216629         5.8948 
 199   0.0000       0.228560         6.2194 
 200   0.0000       0.232912         6.3379 
 201   0.0000       0.233899         6.3647 
 202   0.0000       0.238995         6.5034 
 203   0.0000       0.239765         6.5243 
 204   0.0000       0.246265         6.7012 
 205   0.0000       0.255100         6.9416 
 206   0.0000       0.256398         6.9769 
 207   0.0000       0.257411         7.0045 
 208   0.0000       0.259344         7.0571 
 209   0.0000       0.260923         7.1001 
 210   0.0000       0.264403         7.1948 
 211   0.0000       0.267065         7.2672 
 212   0.0000       0.268448         7.3049 
 213   0.0000       0.269663         7.3379 
 214   0.0000       0.273102         7.4315 
 215   0.0000       0.276463         7.5229 
 216   0.0000       0.279068         7.5938 
 217   0.0000       0.282517         7.6877 
 218   0.0000       0.285477         7.7682 
 219   0.0000       0.287739         7.8298 
 220   0.0000       0.288760         7.8575 
 221   0.0000       0.292806         7.9676 
 222   0.0000       0.294558         8.0153 
 223   0.0000       0.296793         8.0761 
 224   0.0000       0.297397         8.0926 
 225   0.0000       0.301916         8.2155 
 226   0.0000       0.305670         8.3177 
 227   0.0000       0.307631         8.3711 
 228   0.0000       0.318970         8.6796 
 229   0.0000       0.324812         8.8386 
 230   0.0000       0.327716         8.9176 
 231   0.0000       0.334665         9.1067 
 232   0.0000       0.343582         9.3493 
 233   0.0000       0.357033         9.7154 
 234   0.0000       0.370739        10.0883 
 235   0.0000       0.374126        10.1805 
 236   0.0000       0.387270        10.5381 
 237   0.0000       0.390230        10.6187 
 238   0.0000       0.398097        10.8328 
 239   0.0000       0.402174        10.9437 
 240   0.0000       0.407857        11.0983 
 241   0.0000       0.411269        11.1912 
 242   0.0000       0.415091        11.2952 
 243   0.0000       0.417579        11.3629 
 244   0.0000       0.429536        11.6883 
 245   0.0000       0.433792        11.8041 
 246   0.0000       0.440537        11.9876 
 247   0.0000       0.441619        12.0171 
 248   0.0000       0.442736        12.0474 
 249   0.0000       0.449004        12.2180 
 250   0.0000       0.455320        12.3899 
 251   0.0000       0.455651        12.3989 
 252   0.0000       0.465726        12.6731 
 253   0.0000       0.468887        12.7591 
 254   0.0000       0.472887        12.8679 
 255   0.0000       0.474039        12.8993 
 256   0.0000       0.475180        12.9303 
 257   0.0000       0.483359        13.1529 
 258   0.0000       0.488999        13.3063 
 259   0.0000       0.494833        13.4651 
 260   0.0000       0.503794        13.7089 
 261   0.0000       0.505277        13.7493 
 262   0.0000       0.505985        13.7685 
 263   0.0000       0.512923        13.9573 
 264   0.0000       0.515673        14.0322 
 265   0.0000       0.520623        14.1669 
 266   0.0000       0.523697        14.2505 
 267   0.0000       0.528460        14.3801 
 268   0.0000       0.535208        14.5638 
 269   0.0000       0.541942        14.7470 
 270   0.0000       0.553142        15.0518 
 271   0.0000       0.554084        15.0774 
 272   0.0000       0.558756        15.2045 
 273   0.0000       0.561955        15.2916 
 274   0.0000       0.566678        15.4201 
 275   0.0000       0.570116        15.5137 
 276   0.0000       0.573663        15.6102 
 277   0.0000       0.575841        15.6694 
 278   0.0000       0.581527        15.8242 
 279   0.0000       0.587045        15.9743 
 280   0.0000       0.590670        16.0729 
 281   0.0000       0.593784        16.1577 
 282   0.0000       0.595161        16.1952 
 283   0.0000       0.596671        16.2362 
 284   0.0000       0.598187        16.2775 
 285   0.0000       0.603233        16.4148 
 286   0.0000       0.605215        16.4687 
 287   0.0000       0.610943        16.6246 
 288   0.0000       0.617499        16.8030 
 289   0.0000       0.623832        16.9753 
 290   0.0000       0.625016        17.0075 
 291   0.0000       0.629841        17.1388 
 292   0.0000       0.635112        17.2823 
 293   0.0000       0.637463        17.3462 
 294   0.0000       0.646960        17.6047 
 295   0.0000       0.650160        17.6917 
 296   0.0000       0.654770        17.8172 
 297   0.0000       0.657327        17.8868 
 298   0.0000       0.662100        18.0166 
 299   0.0000       0.665501        18.1092 
 300   0.0000       0.670816        18.2538 
 301   0.0000       0.675676        18.3861 
 302   0.0000       0.678745        18.4696 
 303   0.0000       0.680808        18.5257 
 304   0.0000       0.683696        18.6043 
 305   0.0000       0.685955        18.6658 
 306   0.0000       0.689683        18.7672 
 307   0.0000       0.694719        18.9043 
 308   0.0000       0.696425        18.9507 
 309   0.0000       0.701033        19.0761 
 310   0.0000       0.703101        19.1324 
 311   0.0000       0.705634        19.2013 
 312   0.0000       0.706976        19.2378 
 313   0.0000       0.711185        19.3523 
 314   0.0000       0.711837        19.3701 
 315   0.0000       0.716776        19.5045 
 316   0.0000       0.717163        19.5150 
 317   0.0000       0.718711        19.5571 
 318   0.0000       0.722456        19.6590 
 319   0.0000       0.727510        19.7966 
 320   0.0000       0.728084        19.8122 
 321   0.0000       0.728356        19.8196 
 322   0.0000       0.731565        19.9069 
 323   0.0000       0.733152        19.9501 
 324   0.0000       0.736399        20.0384 
 325   0.0000       0.742474        20.2037 
 326   0.0000       0.745666        20.2906 
 327   0.0000       0.746625        20.3167 
 328   0.0000       0.752315        20.4715 
 329   0.0000       0.754486        20.5306 
 330   0.0000       0.756463        20.5844 
 331   0.0000       0.762330        20.7440 
 332   0.0000       0.766379        20.8542 
 333   0.0000       0.768088        20.9007 
 334   0.0000       0.771721        20.9996 
 335   0.0000       0.774523        21.0759 
 336   0.0000       0.780366        21.2348 
 337   0.0000       0.782318        21.2880 
 338   0.0000       0.785287        21.3687 
 339   0.0000       0.790166        21.5015 
 340   0.0000       0.792580        21.5672 
 341   0.0000       0.794554        21.6209 
 342   0.0000       0.799687        21.7606 
 343   0.0000       0.803804        21.8726 
 344   0.0000       0.806524        21.9466 
 345   0.0000       0.809181        22.0189 
 346   0.0000       0.810687        22.0599 
 347   0.0000       0.813842        22.1458 
 348   0.0000       0.816153        22.2087 
 349   0.0000       0.818013        22.2593 
 350   0.0000       0.819296        22.2942 
 351   0.0000       0.823811        22.4170 
 352   0.0000       0.824215        22.4280 
 353   0.0000       0.827848        22.5269 
 354   0.0000       0.830376        22.5957 
 355   0.0000       0.833633        22.6843 
 356   0.0000       0.835526        22.7358 
 357   0.0000       0.836428        22.7604 
 358   0.0000       0.839106        22.8332 
 359   0.0000       0.839909        22.8551 
 360   0.0000       0.842275        22.9195 
 361   0.0000       0.842738        22.9321 
 362   0.0000       0.846653        23.0386 
 363   0.0000       0.849290        23.1104 
 364   0.0000       0.854920        23.2636 
 365   0.0000       0.855423        23.2773 
 366   0.0000       0.859834        23.3973 
 367   0.0000       0.863913        23.5083 
 368   0.0000       0.867454        23.6046 
 369   0.0000       0.868386        23.6300 
 370   0.0000       0.872359        23.7381 
 371   0.0000       0.876132        23.8408 
 372   0.0000       0.877089        23.8668 
 373   0.0000       0.877851        23.8875 
 374   0.0000       0.880492        23.9594 
 375   0.0000       0.884328        24.0638 
 376   0.0000       0.889744        24.2112 
 377   0.0000       0.891736        24.2654 
 378   0.0000       0.892581        24.2884 
 379   0.0000       0.893553        24.3148 
 380   0.0000       0.897392        24.4193 
 381   0.0000       0.899092        24.4655 
 382   0.0000       0.901125        24.5209 
 383   0.0000       0.903042        24.5730 
 384   0.0000       0.906545        24.6684 
 385   0.0000       0.908007        24.7081 
 386   0.0000       0.908969        24.7343 
 387   0.0000       0.912742        24.8370 
 388   0.0000       0.916423        24.9371 
 389   0.0000       0.919446        25.0194 
 390   0.0000       0.923130        25.1196 
 391   0.0000       0.926526        25.2121 
 392   0.0000       0.928904        25.2768 
 393   0.0000       0.929417        25.2907 
 394   0.0000       0.930320        25.3153 
 395   0.0000       0.936078        25.4720 
 396   0.0000       0.937013        25.4974 
 397   0.0000       0.939557        25.5666 
 398   0.0000       0.945202        25.7202 
 399   0.0000       0.948801        25.8182 
 400   0.0000       0.949909        25.8483 
 401   0.0000       0.953702        25.9515 
 402   0.0000       0.955369        25.9969 
 403   0.0000       0.958097        26.0711 
 404   0.0000       0.961343        26.1595 
 405   0.0000       0.962759        26.1980 
 406   0.0000       0.971525        26.4365 
 407   0.0000       0.979505        26.6537 
 408   0.0000       0.982744        26.7418 
 409   0.0000       0.986956        26.8564 
 410   0.0000       0.989153        26.9162 
 411   0.0000       0.993876        27.0447 
 412   0.0000       0.999722        27.2038 
 413   0.0000       1.007312        27.4104 
 414   0.0000       1.013027        27.5659 
 415   0.0000       1.013376        27.5754 
 416   0.0000       1.019294        27.7364 
 417   0.0000       1.023499        27.8508 
 418   0.0000       1.032297        28.0902 
 419   0.0000       1.034199        28.1420 
 420   0.0000       1.037847        28.2412 
 421   0.0000       1.041734        28.3470 
 422   0.0000       1.045177        28.4407 
 423   0.0000       1.054470        28.6936 
 424   0.0000       1.064008        28.9531 
 425   0.0000       1.070569        29.1317 
 426   0.0000       1.074801        29.2468 
 427   0.0000       1.077762        29.3274 
 428   0.0000       1.080074        29.3903 
 429   0.0000       1.088065        29.6078 
 430   0.0000       1.089798        29.6549 
 431   0.0000       1.094757        29.7898 
 432   0.0000       1.099871        29.9290 
 433   0.0000       1.104733        30.0613 
 434   0.0000       1.107693        30.1419 
 435   0.0000       1.112995        30.2861 
 436   0.0000       1.115709        30.3600 
 437   0.0000       1.120395        30.4875 
 438   0.0000       1.121343        30.5133 
 439   0.0000       1.124418        30.5970 
 440   0.0000       1.127972        30.6937 
 441   0.0000       1.129447        30.7338 
 442   0.0000       1.134313        30.8662 
 443   0.0000       1.137390        30.9500 
 444   0.0000       1.138859        30.9899 
 445   0.0000       1.144284        31.1376 
 446   0.0000       1.146574        31.1999 
 447   0.0000       1.150601        31.3094 
 448   0.0000       1.154904        31.4265 
 449   0.0000       1.158778        31.5320 
 450   0.0000       1.159924        31.5631 
 451   0.0000       1.163414        31.6581 
 452   0.0000       1.167491        31.7691 
 453   0.0000       1.170308        31.8457 
 454   0.0000       1.173283        31.9266 
 455   0.0000       1.178305        32.0633 
 456   0.0000       1.183922        32.2162 
 457   0.0000       1.192765        32.4568 
 458   0.0000       1.196184        32.5498 
 459   0.0000       1.198436        32.6111 
 460   0.0000       1.203006        32.7354 
 461   0.0000       1.207638        32.8615 
 462   0.0000       1.208954        32.8973 
 463   0.0000       1.210894        32.9501 
 464   0.0000       1.213220        33.0134 
 465   0.0000       1.216846        33.1121 
 466   0.0000       1.222117        33.2555 
 467   0.0000       1.229023        33.4434 
 468   0.0000       1.231173        33.5019 
 469   0.0000       1.234138        33.5826 
 470   0.0000       1.236652        33.6510 
 471   0.0000       1.239252        33.7218 
 472   0.0000       1.243242        33.8303 
 473   0.0000       1.244894        33.8753 
 474   0.0000       1.247453        33.9449 
 475   0.0000       1.250523        34.0285 
 476   0.0000       1.251557        34.0566 
 477   0.0000       1.252573        34.0842 
 478   0.0000       1.260870        34.3100 
 479   0.0000       1.263823        34.3904 
 480   0.0000       1.265583        34.4383 
 481   0.0000       1.268899        34.5285 
 482   0.0000       1.270325        34.5673 
 483   0.0000       1.275750        34.7149 
 484   0.0000       1.281188        34.8629 
 485   0.0000       1.282361        34.8948 
 486   0.0000       1.286698        35.0128 
 487   0.0000       1.290221        35.1087 
 488   0.0000       1.292817        35.1793 
 489   0.0000       1.295095        35.2413 
 490   0.0000       1.300033        35.3757 
 491   0.0000       1.305278        35.5184 
 492   0.0000       1.309055        35.6212 
 493   0.0000       1.311762        35.6949 
 494   0.0000       1.317998        35.8645 
 495   0.0000       1.320428        35.9307 
 496   0.0000       1.322027        35.9742 
 497   0.0000       1.325293        36.0630 
 498   0.0000       1.329145        36.1679 
 499   0.0000       1.336503        36.3681 
 500   0.0000       1.337321        36.3904 
 501   0.0000       1.341526        36.5048 
 502   0.0000       1.343443        36.5569 
 503   0.0000       1.344926        36.5973 
 504   0.0000       1.348199        36.6864 
 505   0.0000       1.350312        36.7439 
 506   0.0000       1.352120        36.7930 
 507   0.0000       1.359634        36.9975 
 508   0.0000       1.360154        37.0117 
 509   0.0000       1.364053        37.1178 
[...]
      px      :     0.043613
      py      :     0.014047
 77 H s       :     0.884475  s :     0.884475
      pz      :     0.047980  p :     0.079295
      px      :     0.015024
      py      :     0.016291
 78 H s       :     0.884821  s :     0.884821
      pz      :     0.025885  p :     0.079266
      px      :     0.020454
      py      :     0.032927
 79 H s       :     0.910809  s :     0.910809
      pz      :     0.021808  p :     0.086305
      px      :     0.021655
      py      :     0.042842
 80 H s       :     0.864346  s :     0.864346
      pz      :     0.039394  p :     0.084837
      px      :     0.030291
      py      :     0.015152
 81 H s       :     0.886772  s :     0.886772
      pz      :     0.037828  p :     0.084129
      px      :     0.016179
      py      :     0.030121
 82 H s       :     0.916089  s :     0.916089
      pz      :     0.021963  p :     0.086729
      px      :     0.031653
      py      :     0.033113
 83 H s       :     0.873346  s :     0.873346
      pz      :     0.039281  p :     0.084106
      px      :     0.015274
      py      :     0.029552
 84 H s       :     0.886631  s :     0.886631
      pz      :     0.035772  p :     0.083427
      px      :     0.031697
      py      :     0.015957
 85 H s       :     0.892787  s :     0.892787
      pz      :     0.022491  p :     0.079787
      px      :     0.014067
      py      :     0.043229
 86 H s       :     0.890959  s :     0.890959
      pz      :     0.024731  p :     0.078831
      px      :     0.032982
      py      :     0.021117
 87 H s       :     0.889816  s :     0.889816
      pz      :     0.048019  p :     0.078744
      px      :     0.015586
      py      :     0.015138
 88 H s       :     0.910577  s :     0.910577
      pz      :     0.021618  p :     0.087014
      px      :     0.042939
      py      :     0.022457
 89 H s       :     0.871103  s :     0.871103
      pz      :     0.037959  p :     0.083858
      px      :     0.030507
      py      :     0.015392


                      *****************************
                      * MAYER POPULATION ANALYSIS *
                      *****************************

  NA   - Mulliken gross atomic population
  ZA   - Total nuclear charge
  QA   - Mulliken gross atomic charge
  VA   - Mayer's total valence
  BVA  - Mayer's bonded valence
  FA   - Mayer's free valence

  ATOM       NA         ZA         QA         VA         BVA        FA
  0 C      5.7800     6.0000     0.2200     3.8511     3.8511    -0.0000
  1 N      7.4548     7.0000    -0.4548     3.3504     3.3504     0.0000
  2 C      6.0706     6.0000    -0.0706     3.9224     3.9224     0.0000
  3 N      7.3417     7.0000    -0.3417     3.4539     3.4539    -0.0000
  4 C      6.1093     6.0000    -0.1093     4.1689     4.1689    -0.0000
  5 N      7.5686     7.0000    -0.5686     3.0961     3.0961     0.0000
  6 C      6.1053     6.0000    -0.1053     3.9352     3.9352    -0.0000
  7 N      7.3410     7.0000    -0.3410     3.4323     3.4323     0.0000
  8 C      5.7776     6.0000     0.2224     3.8534     3.8534     0.0000
  9 N      7.5624     7.0000    -0.5624     3.0769     3.0769     0.0000
 10 C      5.8806     6.0000     0.1194     3.9089     3.9089     0.0000
 11 N      7.4385     7.0000    -0.4385     3.3779     3.3779     0.0000
 12 C      6.0475     6.0000    -0.0475     3.8178     3.8178    -0.0000
 13 N      7.4294     7.0000    -0.4294     3.4284     3.4284    -0.0000
 14 C      5.7854     6.0000     0.2146     3.8102     3.8102    -0.0000
 15 N      7.4409     7.0000    -0.4409     3.3726     3.3726    -0.0000
 16 C      5.7662     6.0000     0.2338     3.7766     3.7766     0.0000
 17 C      6.0971     6.0000    -0.0971     3.9317     3.9317    -0.0000
 18 C      6.1801     6.0000    -0.1801     3.7492     3.7492    -0.0000
 19 C      5.7858     6.0000     0.2142     3.8843     3.8843    -0.0000
 20 C      5.7863     6.0000     0.2137     3.8292     3.8292    -0.0000
 21 C      6.0596     6.0000    -0.0596     3.7885     3.7885    -0.0000
 22 C      6.0909     6.0000    -0.0909     3.9825     3.9825     0.0000
 23 C      6.0395     6.0000    -0.0395     3.9927     3.9927     0.0000
 24 C      5.8067     6.0000     0.1933     3.8210     3.8210    -0.0000
 25 C      5.8854     6.0000     0.1146     3.8917     3.8917     0.0000
 26 C      6.0827     6.0000    -0.0827     3.9083     3.9083     0.0000
 27 C      5.7813     6.0000     0.2187     3.8629     3.8629    -0.0000
 28 C      6.0618     6.0000    -0.0618     3.9887     3.9887    -0.0000
 29 C      6.1823     6.0000    -0.1823     3.7476     3.7476     0.0000
 30 C      5.7548     6.0000     0.2452     3.8008     3.8008     0.0000
 31 C      5.7697     6.0000     0.2303     3.8170     3.8170    -0.0000
 32 C      6.0613     6.0000    -0.0613     3.9233     3.9233    -0.0000
 33 C      6.0600     6.0000    -0.0600     3.9712     3.9712    -0.0000
 34 C      6.0512     6.0000    -0.0512     3.9834     3.9834    -0.0000
 35 C      5.7714     6.0000     0.2286     3.8164     3.8164    -0.0000
 36 C      5.8918     6.0000     0.1082     3.8747     3.8747     0.0000
 37 C      6.0646     6.0000    -0.0646     3.9176     3.9176    -0.0000
 38 C      5.7687     6.0000     0.2313     3.8014     3.8014     0.0000
 39 C      6.0577     6.0000    -0.0577     3.9830     3.9830    -0.0000
 40 C      6.1818     6.0000    -0.1818     3.7261     3.7261    -0.0000
 41 C      5.7740     6.0000     0.2260     3.8878     3.8878    -0.0000
 42 C      5.8028     6.0000     0.1972     3.8256     3.8256    -0.0000
 43 C      6.0727     6.0000    -0.0727     3.8999     3.8999    -0.0000
 44 C      6.0894     6.0000    -0.0894     3.9850     3.9850    -0.0000
 45 C      6.0616     6.0000    -0.0616     3.9920     3.9920    -0.0000
 46 C      5.7882     6.0000     0.2118     3.8284     3.8284    -0.0000
 47 C      5.8847     6.0000     0.1153     3.8928     3.8928    -0.0000
 48 C      6.0666     6.0000    -0.0666     3.9096     3.9096    -0.0000
 49 C      5.7617     6.0000     0.2383     3.8947     3.8947     0.0000
 50 C      6.0462     6.0000    -0.0462     3.9904     3.9904    -0.0000
 51 C      6.1931     6.0000    -0.1931     3.7375     3.7375    -0.0000
 52 H      0.9672     1.0000     0.0328     0.9857     0.9857    -0.0000
 53 H      1.0184     1.0000    -0.0184     0.9991     0.9991    -0.0000
 54 H      0.9545     1.0000     0.0455     0.9882     0.9882    -0.0000
 55 H      0.9674     1.0000     0.0326     0.9861     0.9861    -0.0000
 56 H      0.9504     1.0000     0.0496     0.9695     0.9695     0.0000
 57 H      0.9532     1.0000     0.0468     0.9823     0.9823     0.0000
 58 H      0.9529     1.0000     0.0471     0.9847     0.9847     0.0000
 59 H      1.0203     1.0000    -0.0203     0.9866     0.9866    -0.0000
 60 H      0.9348     1.0000     0.0652     0.9546     0.9546    -0.0000
 61 H      0.8288     1.0000     0.1712     1.0423     1.0423    -0.0000
 62 H      0.8245     1.0000     0.1755     1.0437     1.0437     0.0000
 63 H      0.9448     1.0000     0.0552     0.9853     0.9853    -0.0000
 64 H      1.0437     1.0000    -0.0437     0.9687     0.9687     0.0000
 65 H      0.9530     1.0000     0.0470     1.0100     1.0100    -0.0000
 66 H      0.9445     1.0000     0.0555     0.9855     0.9855    -0.0000
 67 H      0.9377     1.0000     0.0623     0.9719     0.9719     0.0000
 68 H      0.9428     1.0000     0.0572     0.9868     0.9868    -0.0000
 69 H      0.9437     1.0000     0.0563     0.9828     0.9828     0.0000
 70 H      1.0311     1.0000    -0.0311     0.9943     0.9943    -0.0000
 71 H      0.9553     1.0000     0.0447     1.0059     1.0059     0.0000
 72 H      0.9286     1.0000     0.0714     0.9835     0.9835    -0.0000
 73 H      1.0079     1.0000    -0.0079     1.0010     1.0010     0.0000
 74 H      0.9395     1.0000     0.0605     1.0101     1.0101    -0.0000
 75 H      0.9291     1.0000     0.0709     0.9838     0.9838     0.0000
 76 H      0.9249     1.0000     0.0751     0.9721     0.9721     0.0000
 77 H      0.9319     1.0000     0.0681     0.9855     0.9855     0.0000
 78 H      0.9326     1.0000     0.0674     0.9854     0.9854     0.0000
 79 H      1.0168     1.0000    -0.0168     0.9975     0.9975     0.0000
 80 H      0.9386     1.0000     0.0614     1.0072     1.0072    -0.0000
 81 H      0.9456     1.0000     0.0544     0.9856     0.9856    -0.0000
 82 H      1.0250     1.0000    -0.0250     0.9934     0.9934     0.0000
 83 H      0.9580     1.0000     0.0420     1.0082     1.0082    -0.0000
 84 H      0.9457     1.0000     0.0543     0.9852     0.9852     0.0000
 85 H      0.9390     1.0000     0.0610     0.9716     0.9716    -0.0000
 86 H      0.9444     1.0000     0.0556     0.9839     0.9839    -0.0000
 87 H      0.9427     1.0000     0.0573     0.9856     0.9856    -0.0000
 88 H      1.0145     1.0000    -0.0145     0.9968     0.9968     0.0000
 89 H      0.9531     1.0000     0.0469     1.0077     1.0077    -0.0000

  Mayer bond orders larger than 0.100000
B(  0-C ,  1-N ) :   1.0945 B(  0-C , 17-C ) :   1.7333 B(  0-C , 52-H ) :   0.9592 
B(  1-N ,  8-C ) :   1.1002 B(  1-N , 10-C ) :   0.9771 B(  2-C , 12-C ) :   1.4842 
B(  2-C , 16-C ) :   1.3774 B(  2-C , 53-H ) :   0.9709 B(  3-N , 14-C ) :   1.2240 
B(  3-N , 16-C ) :   1.1776 B(  3-N , 61-H ) :   0.8980 B(  4-C ,  6-C ) :   1.2274 
B(  4-C , 17-C ) :   1.2251 B(  4-C , 18-C ) :   1.4842 B(  5-N , 19-C ) :   1.4652 
B(  5-N , 27-C ) :   1.3678 B(  6-C ,  8-C ) :   1.7227 B(  6-C , 54-H ) :   0.8694 
B(  7-N , 30-C ) :   1.1948 B(  7-N , 38-C ) :   1.1899 B(  7-N , 62-H ) :   0.8967 
B(  8-C , 55-H ) :   0.9606 B(  9-N , 41-C ) :   1.3948 B(  9-N , 49-C ) :   1.4246 
B( 10-C , 56-H ) :   0.9776 B( 10-C , 57-H ) :   0.9824 B( 10-C , 58-H ) :   0.9837 
B( 11-N , 20-C ) :   1.1312 B( 11-N , 24-C ) :   1.1064 B( 11-N , 25-C ) :   0.9603 
B( 12-C , 14-C ) :   1.3606 B( 12-C , 59-H ) :   0.9088 B( 13-N , 31-C ) :   1.1617 
B( 13-N , 35-C ) :   1.1606 B( 13-N , 36-C ) :   0.9412 B( 14-C , 18-C ) :   1.1168 
B( 15-N , 42-C ) :   1.1078 B( 15-N , 46-C ) :   1.1247 B( 15-N , 47-C ) :   0.9612 
B( 16-C , 51-C ) :   1.1676 B( 17-C , 60-H ) :   0.8495 B( 18-C , 19-C ) :   1.1156 
B( 19-C , 21-C ) :   1.2541 B( 20-C , 28-C ) :   1.6288 B( 20-C , 63-H ) :   0.9702 
B( 21-C , 26-C ) :   1.5793 B( 21-C , 64-H ) :   0.8894 B( 22-C , 23-C ) :   1.2895 
B( 22-C , 28-C ) :   1.2634 B( 22-C , 29-C ) :   1.2257 B( 23-C , 24-C ) :   1.6202 
B( 23-C , 65-H ) :   0.9703 B( 24-C , 66-H ) :   0.9696 B( 25-C , 67-H ) :   0.9760 
B( 25-C , 68-H ) :   0.9828 B( 25-C , 69-H ) :   0.9823 B( 26-C , 27-C ) :   1.2666 
B( 26-C , 70-H ) :   0.9658 B( 27-C , 29-C ) :   1.2069 B( 28-C , 71-H ) :   0.9720 
B( 29-C , 30-C ) :   1.2472 B( 30-C , 32-C ) :   1.2788 B( 31-C , 39-C ) :   1.5876 
B( 31-C , 72-H ) :   0.9681 B( 32-C , 37-C ) :   1.5802 B( 32-C , 73-H ) :   0.9786 
B( 33-C , 34-C ) :   1.3071 B( 33-C , 39-C ) :   1.3042 B( 33-C , 40-C ) :   1.1761 
B( 34-C , 35-C ) :   1.5852 B( 34-C , 74-H ) :   0.9696 B( 35-C , 75-H ) :   0.9681 
B( 36-C , 76-H ) :   0.9768 B( 36-C , 77-H ) :   0.9816 B( 36-C , 78-H ) :   0.9823 
B( 37-C , 38-C ) :   1.2846 B( 37-C , 79-H ) :   0.9764 B( 38-C , 40-C ) :   1.2342 
B( 39-C , 80-H ) :   0.9705 B( 40-C , 41-C ) :   1.2502 B( 41-C , 43-C ) :   1.1844 
B( 42-C , 50-C ) :   1.6328 B( 42-C , 81-H ) :   0.9697 B( 43-C , 48-C ) :   1.6685 
B( 43-C , 82-H ) :   0.9721 B( 44-C , 45-C ) :   1.2636 B( 44-C , 50-C ) :   1.2728 
B( 44-C , 51-C ) :   1.2607 B( 45-C , 46-C ) :   1.6343 B( 45-C , 83-H ) :   0.9718 
B( 46-C , 84-H ) :   0.9700 B( 47-C , 85-H ) :   0.9762 B( 47-C , 86-H ) :   0.9829 
B( 47-C , 87-H ) :   0.9824 B( 48-C , 49-C ) :   1.1878 B( 48-C , 88-H ) :   0.9748 
B( 49-C , 51-C ) :   1.2455 B( 50-C , 89-H ) :   0.9708 B( 54-H , 59-H ) :   0.1071 
B( 60-H , 64-H ) :   0.1296 

-------
TIMINGS
-------

Total SCF time: 0 days 0 hours 28 min 43 sec 

Total time                  ....    1723.066 sec
Sum of individual times     ....    1718.326 sec  ( 99.7%)

Fock matrix formation       ....    1690.522 sec  ( 98.1%)
Diagonalization             ....       8.789 sec  (  0.5%)
Density matrix formation    ....       0.530 sec  (  0.0%)
Population analysis         ....       0.588 sec  (  0.0%)
Initial guess               ....       2.519 sec  (  0.1%)
Orbital Transformation      ....       0.000 sec  (  0.0%)
Orbital Orthonormalization  ....       0.000 sec  (  0.0%)
DIIS solution               ....       3.992 sec  (  0.2%)
SOSCF solution              ....      10.093 sec  (  0.6%)

Maximum memory used throughout the entire SCF-calculation: 302.7 MB


           ************************************************************
           *        Program running with 16 parallel MPI-processes    *
           *              working on a common directory               *
           ************************************************************

------------------------------------------------------------------------------
                                ORCA  MP2 
------------------------------------------------------------------------------

Freezing NCore=104 chemical core electrons

----------
MP2 ENERGY (disk based algorithm)
----------

Dimension of the basis                    ...  918
Memory devoted to MP2                     ... 2000 MB   
Data format for buffers                   ... DOUBLE
Compression type for matrix containers    ... UNCOMPRESSED

-------------------------------
PARTIAL EXCHANGE TRANSFORMATION
-------------------------------

Transformation type                        ... one-operator
Generation of integrals (i,mue|j,nue)      ... ON
Generation of integrals (mue,kappa|nue,tau)... OFF
Generation of integrals (i,mue|a,nue)      ... OFF
Dimension of the basis                     ...  918
Number of internal MOs                     ...  127 (  52- 178)
Pair cutoff                                ... 2.500e-12 Eh
Number of AO pairs in the trafo            ... 421821
Total Number of distinct AO pairs          ... 421821
Memory devoted for trafo                   ... 2000.0 MB 
Max. Number of MO pairs treated together   ...  311      
Number Format for Storage                  ... Double (8 Byte)
Integral package used                      ... LIBINT

Starting integral evaluation:
    ... done with AO integral generation
Closing buffer AOK     (38.23 GB; CompressionRatio= 1.33)
Collecting buffer AOK 
Number of MO pairs included in the trafo   ... 8128
------------------------
SORTING OF (i,mue|j,nue)
------------------------

IBATCH = 1 of  2
IBATCH = 2 of  2
Closing buffer KAO     (51.03 GB; CompressionRatio= 1.00)
Collecting buffer KAO 
N(AO-Batches) Done                         ...  86132478 
N(AO-Batches) Skipped                      ...  82378115 
N(IJ)-pairs Skipped                        ...         0 
TOTAL TIME for half transformation         ...  3153.410 sec
AO-integral generation                     ...   213.372 sec
Half transformation                        ...   422.969 sec
K-integral sorting                         ...  2291.776 sec
Process 13:   Internal MO 156
Process 10:   Internal MO 132

Finished integral transformation - now doing MP2 part

OPERATOR COMBINATION   0   0: ij=( 52..178, 52..178)
Process  4:   Internal MO  84
Process  7:   Internal MO 108
Process  1:   Internal MO  60
Process  0:   Internal MO  54
Process  0:   Internal MO  57
Process  1:   Internal MO  63
Process  8:   Internal MO 117
Process  3:   Internal MO  78
Process  6:   Internal MO 102
Process  4:   Internal MO  87
Process 14:   Internal MO 165
Process  1:   Internal MO  66
Process 11:   Internal MO 141
Process  5:   Internal MO  93
Process  3:   Internal MO  81
Process  7:   Internal MO 111
Process 12:   Internal MO 150
Process  9:   Internal MO 126
Process  4:   Internal MO  90
Process  2:   Internal MO  69
Process  6:   Internal MO 105
Process  5:   Internal MO  96
Process 10:   Internal MO 135
Process 15:   Internal MO 174
Process  8:   Internal MO 120
Process  2:   Internal MO  72
Process  7:   Internal MO 114
Process  2:   Internal MO  75
Process  5:   Internal MO  99
Process  9:   Internal MO 129
Process 13:   Internal MO 159
Process 11:   Internal MO 144
Process 12:   Internal MO 153
Process 14:   Internal MO 168
Process  8:   Internal MO 123
Process 10:   Internal MO 138
Process 15:   Internal MO 177
Process 11:   Internal MO 147
Process 13:   Internal MO 162
Process 14:   Internal MO 171
-----------------------------------------------
 MP2 CORRELATION ENERGY   :     -7.293316354 Eh
-----------------------------------------------


-------
TIMINGS
-------
Total time                : 3472.558 sec
Integral trafo            : 3155.835 sec ( 90.9%)
K(i,j)                    :    8.543 sec (  0.2%)
T(i,j)                    :    0.103 sec (  0.0%)

---------------------------------------
MP2 TOTAL ENERGY:    -2130.743615666 Eh
---------------------------------------

Maximum memory used throughout the entire MP2-calculation: 2275.3 MB

-------------------------   --------------------
FINAL SINGLE POINT ENERGY     -2130.743615666352
-------------------------   --------------------


                            ***************************************
                            *     ORCA property calculations      *
                            ***************************************


  WARNING: The energy has been calculated at the MP2 level but the densities
           used in the property calculations are still SCF densities
           MP2 response densities have not been calculated 
           use %mp2 Density relaxed end
           or  %mp2 Density unrelaxed end

                                    ---------------------
                                    Active property flags
                                    ---------------------
   (+) Dipole Moment


------------------------------------------------------------------------------
                       ORCA ELECTRIC PROPERTIES CALCULATION
------------------------------------------------------------------------------

Dipole Moment Calculation                       ... on
Quadrupole Moment Calculation                   ... off
Polarizability Calculation                      ... off
GBWName                                         ... /scratch/allen/tmpyp4_amber_gaff2/conf1/conf1/Conf188.orca.gbw
Electron density                                ... /scratch/allen/tmpyp4_amber_gaff2/conf1/conf1/Conf188.orca.scfp
The origin for moment calculation is the CENTER OF MASS  = ( 0.003182, -0.001901  0.000007)

-------------
DIPOLE MOMENT
-------------
                                X             Y             Z
Electronic contribution:      2.73864      -4.34423      -0.19102
Nuclear contribution   :      0.06856       0.23278       0.19213
                        -----------------------------------------
Total Dipole Moment    :      2.80719      -4.11145       0.00110
                        -----------------------------------------
Magnitude (a.u.)       :      4.97839
Magnitude (Debye)      :     12.65406



--------------------
Rotational spectrum 
--------------------
 
Rotational constants in cm-1:     0.001501     0.001480     0.000760 
Rotational constants in MHz :    45.013369    44.357559    22.781097 

 Dipole components along the rotational axes: 
x,y,z [a.u.] :     3.470444     3.569367     0.002411 
x,y,z [Debye]:     8.821168     9.072611     0.006129 

 

Timings for individual modules:

Sum of individual times         ...     5233.606 sec (=  87.227 min)
GTO integral calculation        ...        3.676 sec (=   0.061 min)   0.1 %
SCF iterations                  ...     1724.285 sec (=  28.738 min)  32.9 %
MP2 module                      ...     3505.645 sec (=  58.427 min)  67.0 %
                             ****ORCA TERMINATED NORMALLY****
TOTAL RUN TIME: 0 days 1 hours 27 minutes 17 seconds 109 msec
# of primitive gaussian functions

