
                                 *****************
                                 * O   R   C   A *
                                 *****************

                                            #,                                       
                                            ###                                      
                                            ####                                     
                                            #####                                    
                                            ######                                   
                                           ########,                                 
                                     ,,################,,,,,                         
                               ,,#################################,,                 
                          ,,##########################################,,             
                       ,#########################################, ''#####,          
                    ,#############################################,,   '####,        
                  ,##################################################,,,,####,       
                ,###########''''           ''''###############################       
              ,#####''   ,,,,##########,,,,          '''####'''          '####       
            ,##' ,,,,###########################,,,                        '##       
           ' ,,###''''                  '''############,,,                           
         ,,##''                                '''############,,,,        ,,,,,,###''
      ,#''                                            '''#######################'''  
     '                                                          ''''####''''         
             ,#######,   #######,   ,#######,      ##                                
            ,#'     '#,  ##    ##  ,#'     '#,    #''#        ######   ,####,        
            ##       ##  ##   ,#'  ##            #'  '#       #        #'  '#        
            ##       ##  #######   ##           ,######,      #####,   #    #        
            '#,     ,#'  ##    ##  '#,     ,#' ,#      #,         ##   #,  ,#        
             '#######'   ##     ##  '#######'  #'      '#     #####' # '####'        



                  #######################################################
                  #                        -***-                        #
                  #          Department of theory and spectroscopy      #
                  #    Directorship and core code : Frank Neese         #
                  #        Max Planck Institute fuer Kohlenforschung    #
                  #                Kaiser Wilhelm Platz 1               #
                  #                 D-45470 Muelheim/Ruhr               #
                  #                      Germany                        #
                  #                                                     #
                  #                  All rights reserved                #
                  #                        -***-                        #
                  #######################################################


                         Program Version 5.0.4 -  RELEASE  -


 With contributions from (in alphabetic order):
   Daniel Aravena         : Magnetic Suceptibility
   Michael Atanasov       : Ab Initio Ligand Field Theory (pilot matlab implementation)
   Alexander A. Auer      : GIAO ZORA, VPT2 properties, NMR spectrum
   Ute Becker             : Parallelization
   Giovanni Bistoni       : ED, misc. LED, open-shell LED, HFLD
   Martin Brehm           : Molecular dynamics
   Dmytro Bykov           : SCF Hessian
   Vijay G. Chilkuri      : MRCI spin determinant printing, contributions to CSF-ICE
   Dipayan Datta          : RHF DLPNO-CCSD density
   Achintya Kumar Dutta   : EOM-CC, STEOM-CC
   Dmitry Ganyushin       : Spin-Orbit,Spin-Spin,Magnetic field MRCI
   Miquel Garcia          : C-PCM and meta-GGA Hessian, CC/C-PCM, Gaussian charge scheme
   Yang Guo               : DLPNO-NEVPT2, F12-NEVPT2, CIM, IAO-localization
   Andreas Hansen         : Spin unrestricted coupled pair/coupled cluster methods
   Benjamin Helmich-Paris : MC-RPA, TRAH-SCF, COSX integrals
   Lee Huntington         : MR-EOM, pCC
   Robert Izsak           : Overlap fitted RIJCOSX, COSX-SCS-MP3, EOM
   Marcus Kettner         : VPT2
   Christian Kollmar      : KDIIS, OOCD, Brueckner-CCSD(T), CCSD density, CASPT2, CASPT2-K
   Simone Kossmann        : Meta GGA functionals, TD-DFT gradient, OOMP2, MP2 Hessian
   Martin Krupicka        : Initial AUTO-CI
   Lucas Lang             : DCDCAS
   Marvin Lechner         : AUTO-CI (C++ implementation), FIC-MRCC
   Dagmar Lenk            : GEPOL surface, SMD
   Dimitrios Liakos       : Extrapolation schemes; Compound Job, initial MDCI parallelization
   Dimitrios Manganas     : Further ROCIS development; embedding schemes
   Dimitrios Pantazis     : SARC Basis sets
   Anastasios Papadopoulos: AUTO-CI, single reference methods and gradients
   Taras Petrenko         : DFT Hessian,TD-DFT gradient, ASA, ECA, R-Raman, ABS, FL, XAS/XES, NRVS
   Peter Pinski           : DLPNO-MP2, DLPNO-MP2 Gradient
   Christoph Reimann      : Effective Core Potentials
   Marius Retegan         : Local ZFS, SOC
   Christoph Riplinger    : Optimizer, TS searches, QM/MM, DLPNO-CCSD(T), (RO)-DLPNO pert. Triples
   Tobias Risthaus        : Range-separated hybrids, TD-DFT gradient, RPA, STAB
   Michael Roemelt        : Original ROCIS implementation
   Masaaki Saitow         : Open-shell DLPNO-CCSD energy and density
   Barbara Sandhoefer     : DKH picture change effects
   Avijit Sen             : IP-ROCIS
   Kantharuban Sivalingam : CASSCF convergence, NEVPT2, FIC-MRCI
   Bernardo de Souza      : ESD, SOC TD-DFT
   Georgi Stoychev        : AutoAux, RI-MP2 NMR, DLPNO-MP2 response
   Willem Van den Heuvel  : Paramagnetic NMR
   Boris Wezisla          : Elementary symmetry handling
   Frank Wennmohs         : Technical directorship


 We gratefully acknowledge several colleagues who have allowed us to
 interface, adapt or use parts of their codes:
   Stefan Grimme, W. Hujo, H. Kruse, P. Pracht,  : VdW corrections, initial TS optimization,
                  C. Bannwarth, S. Ehlert          DFT functionals, gCP, sTDA/sTD-DF
   Ed Valeev, F. Pavosevic, A. Kumar             : LibInt (2-el integral package), F12 methods
   Garnet Chan, S. Sharma, J. Yang, R. Olivares  : DMRG
   Ulf Ekstrom                                   : XCFun DFT Library
   Mihaly Kallay                                 : mrcc  (arbitrary order and MRCC methods)
   Jiri Pittner, Ondrej Demel                    : Mk-CCSD
   Frank Weinhold                                : gennbo (NPA and NBO analysis)
   Christopher J. Cramer and Donald G. Truhlar   : smd solvation model
   Lars Goerigk                                  : TD-DFT with DH, B97 family of functionals
   V. Asgeirsson, H. Jonsson                     : NEB implementation
   FAccTs GmbH                                   : IRC, NEB, NEB-TS, DLPNO-Multilevel, CI-OPT
                                                   MM, QMMM, 2- and 3-layer-ONIOM, Crystal-QMMM,
                                                   LR-CPCM, SF, NACMEs, symmetry and pop. for TD-DFT,
                                                   nearIR, NL-DFT gradient (VV10), updates on ESD,
                                                   ML-optimized integration grids
   S Lehtola, MJT Oliveira, MAL Marques          : LibXC Library
   Liviu Ungur et al                             : ANISO software


 Your calculation uses the libint2 library for the computation of 2-el integrals
 For citations please refer to: http://libint.valeyev.net

 Your ORCA version has been built with support for libXC version: 5.1.0
 For citations please refer to: https://tddft.org/programs/libxc/

 This ORCA versions uses:
   CBLAS   interface :  Fast vector & matrix operations
   LAPACKE interface :  Fast linear algebra routines
   SCALAPACK package :  Parallel linear algebra routines
   Shared memory     :  Shared parallel matrices
   BLAS/LAPACK       :  OpenBLAS 0.3.15  USE64BITINT DYNAMIC_ARCH NO_AFFINITY Sandybridge SINGLE_THREADED
        Core in use  :  Sandybridge
   Copyright (c) 2011-2014, The OpenBLAS Project


================================================================================

----- Orbital basis set information -----
Your calculation utilizes the basis: cc-pVDZ 
       H, B-Ne : Obtained from the ccRepo (grant-hill.group.shef.ac.uk/ccrepo) Feb. 2017
                 T. H. Dunning, Jr., J. Chem. Phys. 90, 1007 (1989)
            He : Obtained from the ccRepo (grant-hill.group.shef.ac.uk/ccrepo) Feb. 2017
                 D. E. Woon, T. H. Dunning, Jr., J. Chem. Phys. 100, 2975 (1994)
  Li-Be, Na-Mg : Obtained from the ccRepo (grant-hill.group.shef.ac.uk/ccrepo) Feb. 2017
                 B. P. Prascher, D. E. Woon, K. A. Peterson, T. H. Dunning, Jr., A. K. Wilson, Theor. Chem. Acc. 128, 69 (2011)
         Al-Ar : Obtained from the ccRepo (grant-hill.group.shef.ac.uk/ccrepo) Feb. 2017
                 D. E. Woon, T. H. Dunning, Jr., J. Chem. Phys. 98, 1358 (1993)
            Ca : Obtained from the Peterson Research Group Website (tyr0.chem.wsu.edu/~kipeters) Feb. 2017
                 J. Koput, K. A. Peterson, J. Phys. Chem. 106, 9595 (2002)
         Sc-Zn : Obtained from the ccRepo (grant-hill.group.shef.ac.uk/ccrepo) Feb. 2017
                 N. B. Balabanov, K. A. Peterson, J. Chem. Phys. 123, 064107 (2005)
                 N. B. Balabanov, K. A. Peterson, J. Chem. Phys. 125, 074110 (2006)
         Ga-Kr : Obtained from the ccRepo (grant-hill.group.shef.ac.uk/ccrepo) Feb. 2017
                 A. K. Wilson, D. E. Woon, K. A. Peterson, T. H. Dunning, Jr., J. Chem. Phys. 110, 7667 (1999)

================================================================================
                                        WARNINGS
                       Please study these warnings very carefully!
================================================================================


WARNING: No MP2 level density has been requested!
         To caclulate MP2 level properties use
         %mp2 Density relaxed end
         or
         %mp2 Density unrelaxed end

WARNING: Post HF methods need fully converged wavefunctions
  ===> : Setting SCFConvForced true
         You can overwrite this default with %scf ConvForced false 


INFO   : the flag for use of the SHARK integral package has been found!

================================================================================
                                       INPUT FILE
================================================================================
NAME = /scratch/allen/tmpyp4_amber_gaff2/2.Mdgx/conf11/conf11/Conf202.orca
|  1> ! PAL2
|  2> ! mp2 cc-pvdz TightSCF  NoKeepInts
|  3> 
|  4> %scf
|  5>   MaxCore 2000
|  6> end
|  7> %mp2
|  8>   MaxCore 2000
|  9> end
| 10> * xyz 0 1
| 11>    C       -4.89700         5.21400         0.47400
| 12>    C        1.47400         4.04100         0.05700
| 13>    C       -2.80200         4.09300         0.04900
| 14>    C       -2.28100         5.33100        -0.35800
| 15>    C       -3.07500         6.46000        -0.33300
| 16>    C       -5.17800         7.62600         0.12600
| 17>    C        0.13200         4.30700         0.06100
| 18>    C       -0.56900         3.05600         0.04700
| 19>    C        1.64900         2.61800         0.02300
| 20>    C       -4.14000         4.05800         0.47200
| 21>    N       -4.36400         6.39100         0.07500
| 22>    N        0.38800         2.06700         0.02500
| 23>    N       -2.01000         0.39500        -0.07500
| 24>    N       -0.38800        -2.07400        -0.02700
| 25>    N        2.01000        -0.40100         0.06500
| 26>    C       -1.96000         2.86100         0.02400
| 27>    C       -2.62300         1.61500        -0.01800
| 28>    C       -5.57300        -4.32900         1.06600
| 29>    C       -4.07300         1.47100         0.05600
| 30>    C       -4.10600        -2.75600        -0.02600
| 31>    C       -4.99500        -2.75700        -1.11100
| 32>    C       -6.13200        -3.54200        -1.07600
| 33>    C       -7.65100        -5.11300         0.04000
| 34>    C       -4.32400         0.14100         0.03700
| 35>    C       -3.02500        -0.52000        -0.04800
| 36>    C       -4.42200        -3.56600         1.07500
| 37>    N       -6.40700        -4.31300         0.00100
| 38>    C       -2.86700        -1.92200        -0.04000
| 39>    C       -1.65000        -2.62400        -0.02700
| 40>    C        3.56800        -6.14200        -1.04000
| 41>    C       -1.47600        -4.04900        -0.03400
| 42>    C        2.80300        -4.09900        -0.00800
| 43>    C        3.65700        -4.38400         1.06900
| 44>    C        4.42700        -5.53000         1.05900
| 45>    C        5.24500        -7.58800         0.01400
| 46>    C       -0.13400        -4.31500        -0.02200
| 47>    C        0.56800        -3.06400        -0.02700
| 48>    C        2.77500        -5.01200        -1.07400
| 49>    N        4.37600        -6.39100         0.01700
| 50>    C        1.95900        -2.86900        -0.00900
| 51>    C        2.62100        -1.62200         0.00900
| 52>    C        5.54300         4.33900        -1.13000
| 53>    C        4.07000        -1.47900        -0.09400
| 54>    C        4.10400         2.75100        -0.02100
| 55>    C        5.02700         2.72900         1.03600
| 56>    C        6.16600         3.50900         0.97800
| 57>    C        7.61900         5.15300        -0.11500
| 58>    C        4.32100        -0.14800        -0.09200
| 59>    C        3.02500         0.51400         0.01500
| 60>    C        4.38700         3.58200        -1.11500
| 61>    C        2.86600         1.91600         0.01300
| 62>    N        6.41300         4.29600        -0.09500
| 63>    H       -5.93500         5.23200         0.78000
| 64>    H        2.27400         4.76600         0.08100
| 65>    H       -1.25300         5.42400        -0.68600
| 66>    H       -2.71500         7.43700        -0.62800
| 67>    H       -5.01000         8.12300         1.08400
| 68>    H       -4.87700         8.27900        -0.69300
| 69>    H       -6.22900         7.35700         0.02300
| 70>    H       -0.33200         5.28200         0.06900
| 71>    H       -4.60400         3.13000         0.78500
| 72>    H        0.18200         1.07200         0.00500
| 73>    H       -0.18300        -1.08000        -0.02100
| 74>    H       -5.86400        -4.96200         1.89500
| 75>    H       -4.79400         2.27200         0.13900
| 76>    H       -4.80000        -2.16000        -1.99400
| 77>    H       -6.84100        -3.58200        -1.89300
| 78>    H       -8.42800        -4.53600         0.54600
| 79>    H       -7.95600        -5.33700        -0.98100
| 80>    H       -7.45600        -6.03700         0.58400
| 81>    H       -5.28700        -0.34400         0.10000
| 82>    H       -3.78000        -3.60100         1.94700
| 83>    H        3.58700        -6.86800        -1.84300
| 84>    H       -2.27600        -4.77400        -0.05000
| 85>    H        3.71400        -3.72400         1.92600
| 86>    H        5.09200        -5.79500         1.87100
| 87>    H        6.20500        -7.32900        -0.43900
| 88>    H        5.39300        -7.91700         1.04200
| 89>    H        4.75900        -8.37300        -0.56400
| 90>    H        0.32900        -5.29000        -0.00800
| 91>    H        2.14600        -4.84200        -1.94000
| 92>    H        5.80800         4.98600        -1.95600
| 93>    H        4.78800        -2.28100        -0.18500
| 94>    H        4.86000         2.11400         1.91200
| 95>    H        6.90100         3.53100         1.77200
| 96>    H        7.38300         6.10900         0.35600
| 97>    H        8.41400         4.65200         0.43500
| 98>    H        7.92100         5.31000        -1.15000
| 99>    H        5.28300         0.33600        -0.17900
|100>    H        3.72000         3.63200        -1.96700
|101> *
|102> 
|103>                          ****END OF INPUT****
================================================================================

                       ****************************
                       * Single Point Calculation *
                       ****************************

---------------------------------
CARTESIAN COORDINATES (ANGSTROEM)
---------------------------------
  C     -4.897000    5.214000    0.474000
  C      1.474000    4.041000    0.057000
  C     -2.802000    4.093000    0.049000
  C     -2.281000    5.331000   -0.358000
  C     -3.075000    6.460000   -0.333000
  C     -5.178000    7.626000    0.126000
  C      0.132000    4.307000    0.061000
  C     -0.569000    3.056000    0.047000
  C      1.649000    2.618000    0.023000
  C     -4.140000    4.058000    0.472000
  N     -4.364000    6.391000    0.075000
  N      0.388000    2.067000    0.025000
  N     -2.010000    0.395000   -0.075000
  N     -0.388000   -2.074000   -0.027000
  N      2.010000   -0.401000    0.065000
  C     -1.960000    2.861000    0.024000
  C     -2.623000    1.615000   -0.018000
  C     -5.573000   -4.329000    1.066000
  C     -4.073000    1.471000    0.056000
  C     -4.106000   -2.756000   -0.026000
  C     -4.995000   -2.757000   -1.111000
  C     -6.132000   -3.542000   -1.076000
  C     -7.651000   -5.113000    0.040000
  C     -4.324000    0.141000    0.037000
  C     -3.025000   -0.520000   -0.048000
  C     -4.422000   -3.566000    1.075000
  N     -6.407000   -4.313000    0.001000
  C     -2.867000   -1.922000   -0.040000
  C     -1.650000   -2.624000   -0.027000
  C      3.568000   -6.142000   -1.040000
  C     -1.476000   -4.049000   -0.034000
  C      2.803000   -4.099000   -0.008000
  C      3.657000   -4.384000    1.069000
  C      4.427000   -5.530000    1.059000
  C      5.245000   -7.588000    0.014000
  C     -0.134000   -4.315000   -0.022000
  C      0.568000   -3.064000   -0.027000
  C      2.775000   -5.012000   -1.074000
  N      4.376000   -6.391000    0.017000
  C      1.959000   -2.869000   -0.009000
  C      2.621000   -1.622000    0.009000
  C      5.543000    4.339000   -1.130000
  C      4.070000   -1.479000   -0.094000
  C      4.104000    2.751000   -0.021000
  C      5.027000    2.729000    1.036000
  C      6.166000    3.509000    0.978000
  C      7.619000    5.153000   -0.115000
  C      4.321000   -0.148000   -0.092000
  C      3.025000    0.514000    0.015000
  C      4.387000    3.582000   -1.115000
  C      2.866000    1.916000    0.013000
  N      6.413000    4.296000   -0.095000
  H     -5.935000    5.232000    0.780000
  H      2.274000    4.766000    0.081000
  H     -1.253000    5.424000   -0.686000
  H     -2.715000    7.437000   -0.628000
  H     -5.010000    8.123000    1.084000
  H     -4.877000    8.279000   -0.693000
  H     -6.229000    7.357000    0.023000
  H     -0.332000    5.282000    0.069000
  H     -4.604000    3.130000    0.785000
  H      0.182000    1.072000    0.005000
  H     -0.183000   -1.080000   -0.021000
  H     -5.864000   -4.962000    1.895000
  H     -4.794000    2.272000    0.139000
  H     -4.800000   -2.160000   -1.994000
  H     -6.841000   -3.582000   -1.893000
  H     -8.428000   -4.536000    0.546000
  H     -7.956000   -5.337000   -0.981000
  H     -7.456000   -6.037000    0.584000
  H     -5.287000   -0.344000    0.100000
  H     -3.780000   -3.601000    1.947000
  H      3.587000   -6.868000   -1.843000
  H     -2.276000   -4.774000   -0.050000
  H      3.714000   -3.724000    1.926000
  H      5.092000   -5.795000    1.871000
  H      6.205000   -7.329000   -0.439000
  H      5.393000   -7.917000    1.042000
  H      4.759000   -8.373000   -0.564000
  H      0.329000   -5.290000   -0.008000
  H      2.146000   -4.842000   -1.940000
  H      5.808000    4.986000   -1.956000
  H      4.788000   -2.281000   -0.185000
  H      4.860000    2.114000    1.912000
  H      6.901000    3.531000    1.772000
  H      7.383000    6.109000    0.356000
  H      8.414000    4.652000    0.435000
  H      7.921000    5.310000   -1.150000
  H      5.283000    0.336000   -0.179000
  H      3.720000    3.632000   -1.967000

----------------------------
CARTESIAN COORDINATES (A.U.)
----------------------------
  NO LB      ZA    FRAG     MASS         X           Y           Z
   0 C     6.0000    0    12.011   -9.253989    9.853032    0.895730
   1 C     6.0000    0    12.011    2.785456    7.636383    0.107714
   2 C     6.0000    0    12.011   -5.295013    7.734649    0.092597
   3 C     6.0000    0    12.011   -4.310465   10.074130   -0.676522
   4 C     6.0000    0    12.011   -5.810908   12.207631   -0.629279
   5 C     6.0000    0    12.011   -9.785002   14.411051    0.238105
   6 C     6.0000    0    12.011    0.249444    8.139050    0.115273
   7 C     6.0000    0    12.011   -1.075254    5.775003    0.088817
   8 C     6.0000    0    12.011    3.116158    4.947303    0.043464
   9 C     6.0000    0    12.011   -7.823466    7.668509    0.891951
  10 N     7.0000    0    14.007   -8.246765   12.077240    0.141729
  11 N     7.0000    0    14.007    0.733214    3.906064    0.047243
  12 N     7.0000    0    14.007   -3.798350    0.746442   -0.141729
  13 N     7.0000    0    14.007   -0.733214   -3.919292   -0.051023
  14 N     7.0000    0    14.007    3.798350   -0.757780    0.122832
  15 C     6.0000    0    12.011   -3.703863    5.406506    0.045353
  16 C     6.0000    0    12.011   -4.956752    3.051908   -0.034015
  17 C     6.0000    0    12.011  -10.531444   -8.180624    2.014448
  18 C     6.0000    0    12.011   -7.696855    2.779787    0.105825
  19 C     6.0000    0    12.011   -7.759216   -5.208085   -0.049133
  20 C     6.0000    0    12.011   -9.439182   -5.209975   -2.099486
  21 C     6.0000    0    12.011  -11.587801   -6.693410   -2.033345
  22 C     6.0000    0    12.011  -14.458295   -9.662170    0.075589
  23 C     6.0000    0    12.011   -8.171176    0.266451    0.069920
  24 C     6.0000    0    12.011   -5.716422   -0.982658   -0.090707
  25 C     6.0000    0    12.011   -8.356369   -6.738763    2.031456
  26 N     7.0000    0    14.007  -12.107475   -8.150389    0.001890
  27 C     6.0000    0    12.011   -5.417845   -3.632054   -0.075589
  28 C     6.0000    0    12.011   -3.118048   -4.958641   -0.051023
  29 C     6.0000    0    12.011    6.742543  -11.606698   -1.965315
  30 C     6.0000    0    12.011   -2.789236   -7.651501   -0.064251
  31 C     6.0000    0    12.011    5.296902   -7.745987   -0.015118
  32 C     6.0000    0    12.011    6.910728   -8.284559    2.020117
  33 C     6.0000    0    12.011    8.365818  -10.450186    2.001220
  34 C     6.0000    0    12.011    9.911614  -14.339242    0.026456
  35 C     6.0000    0    12.011   -0.253223   -8.154168   -0.041574
  36 C     6.0000    0    12.011    1.073364   -5.790121   -0.051023
  37 C     6.0000    0    12.011    5.243990   -9.471307   -2.029566
  38 N     7.0000    0    14.007    8.269442  -12.077240    0.032125
  39 C     6.0000    0    12.011    3.701973   -5.421624   -0.017008
  40 C     6.0000    0    12.011    4.952972   -3.065136    0.017008
  41 C     6.0000    0    12.011   10.474752    8.199522   -2.135391
  42 C     6.0000    0    12.011    7.691185   -2.794905   -0.177634
  43 C     6.0000    0    12.011    7.755436    5.198637   -0.039684
  44 C     6.0000    0    12.011    9.499653    5.157063    1.957756
  45 C     6.0000    0    12.011   11.652051    6.631049    1.848152
  46 C     6.0000    0    12.011   14.397823    9.737759   -0.217319
  47 C     6.0000    0    12.011    8.165507   -0.279679   -0.173855
  48 C     6.0000    0    12.011    5.716422    0.971319    0.028346
  49 C     6.0000    0    12.011    8.290229    6.768999   -2.107045
  50 C     6.0000    0    12.011    5.415955    3.620715    0.024566
  51 N     7.0000    0    14.007   12.118814    8.118263   -0.179524
  52 H     1.0000    0     1.008  -11.215525    9.887047    1.473986
  53 H     1.0000    0     1.008    4.297237    9.006435    0.153068
  54 H     1.0000    0     1.008   -2.367827   10.249875   -1.296352
  55 H     1.0000    0     1.008   -5.130606   14.053893   -1.186748
  56 H     1.0000    0     1.008   -9.467528   15.350245    2.048463
  57 H     1.0000    0     1.008   -9.216194   15.645043   -1.309580
  58 H     1.0000    0     1.008  -11.771104   13.902715    0.043464
  59 H     1.0000    0     1.008   -0.627389    9.981533    0.130391
  60 H     1.0000    0     1.008   -8.700299    5.914843    1.483435
  61 H     1.0000    0     1.008    0.343930    2.025786    0.009449
  62 H     1.0000    0     1.008   -0.345820   -2.040904   -0.039684
  63 H     1.0000    0     1.008  -11.081354   -9.376821    3.581031
  64 H     1.0000    0     1.008   -9.059347    4.293458    0.262672
  65 H     1.0000    0     1.008   -9.070685   -4.081808   -3.768114
  66 H     1.0000    0     1.008  -12.927616   -6.768999   -3.577252
  67 H     1.0000    0     1.008  -15.926612   -8.571798    1.031790
  68 H     1.0000    0     1.008  -15.034661  -10.085468   -1.853821
  69 H     1.0000    0     1.008  -14.089798  -11.408277    1.103600
  70 H     1.0000    0     1.008   -9.990982   -0.650066    0.188973
  71 H     1.0000    0     1.008   -7.143165   -6.804904    3.679297
  72 H     1.0000    0     1.008    6.778448  -12.978639   -3.482765
  73 H     1.0000    0     1.008   -4.301017   -9.021553   -0.094486
  74 H     1.0000    0     1.008    7.018443   -7.037340    3.639613
  75 H     1.0000    0     1.008    9.622485  -10.950963    3.535678
  76 H     1.0000    0     1.008   11.725751  -13.849803   -0.829590
  77 H     1.0000    0     1.008   10.191293  -14.960962    1.969095
  78 H     1.0000    0     1.008    8.993207  -15.822677   -1.065806
  79 H     1.0000    0     1.008    0.621720   -9.996651   -0.015118
  80 H     1.0000    0     1.008    4.055352   -9.150054   -3.666069
  81 H     1.0000    0     1.008   10.975529    9.422175   -3.696304
  82 H     1.0000    0     1.008    9.048009   -4.310465   -0.349599
  83 H     1.0000    0     1.008    9.184069    3.994881    3.613156
  84 H     1.0000    0     1.008   13.041000    6.672623    3.348595
  85 H     1.0000    0     1.008   13.951848   11.544337    0.672743
  86 H     1.0000    0     1.008   15.900156    8.791006    0.822031
  87 H     1.0000    0     1.008   14.968521   10.034446   -2.173185
  88 H     1.0000    0     1.008    9.983423    0.634948   -0.338261
  89 H     1.0000    0     1.008    7.029781    6.863485   -3.717091

--------------------------------
INTERNAL COORDINATES (ANGSTROEM)
--------------------------------
 C      0   0   0     0.000000000000     0.00000000     0.00000000
 C      1   0   0     6.491491277049     0.00000000     0.00000000
 C      1   2   0     2.413771115910    18.72747095     0.00000000
 C      3   1   2     1.403472122986    87.91368240   323.53718035
 C      4   3   1     1.380471658528   120.17520446     0.17142643
 C      5   4   3     2.448029003096   152.50278509     1.55476554
 C      2   1   3     1.368114030335     3.60076755    81.42564659
 C      7   2   4     1.434084376876   108.05010202   140.81105518
 C      2   1   3     1.434123425651   107.49245885   339.18558693
 C      1   2   7     1.381806426385    46.45472809   105.89771388
 N      1   2   7     1.352264397224    75.61042923   299.28695853
 N      9   2   1     1.376127174356   106.58526707     2.94234959
 N     12   9   2     2.925062050624   168.53581413   171.12065651
 N     13  12   9     2.954513327098    91.55032014    11.12112580
 N     14  13  12     2.925371258490    88.43092389   359.84326247
 C      8   7   2     1.404790019896   127.24786865   181.11170171
 C     13  12   9     1.366535034311    81.72106996   188.00453233
 C     14  13  12     5.758810554272    80.56209567   166.76250791
 C     17  13  12     1.459010623676   111.08861209   183.82872609
 C     18  14  13     2.412235892279    27.27532823    36.33507194
 C     20  18  14     1.402692767501    87.95206320   148.94598259
 C     21  20  18     1.382106725257   120.14573887   359.70382047
 C     18  14  13     2.446510985056   144.15733107    82.80075377
 C     19  17  13     1.353610726908   106.29293361   359.75308708
 C     13  12   9     1.366813447402   172.21332906    33.46711076
 C     18  14  13     1.380960173213    15.08449437   309.23336894
 N     22  21  20     1.352773077792   120.73759875     0.27865223
 C     25  13  17     1.410897586645   125.60330303   182.37774668
 C     14  13  12     1.376642291955    80.24689249   177.85461986
 C     14  13  12     5.764089607215   164.51507311   312.20821879
 C     29  14  13     1.435600919476   106.58649366   178.76395472
 C     30  14  13     2.413316804732    27.10625047    82.12560436
 C     32  30  14     1.403734305344    87.90059683   149.76154742
 C     33  32  30     1.380694028378   120.14881443   359.74174632
 C     34  33  32     2.448777858443   152.49203239     2.45173620
 C     31  29  14     1.368160809262   108.16950133     0.70383075
 C     14  13  12     1.376239804685   169.26375223   353.09862627
 C     30  14  13     1.380907310430    14.68948582   353.70041132
 N     34  33  32     1.352658863128   120.85575621     0.19603406
 C     37  14  29     1.404717053360   126.01551127   180.90772073
 C     15  14  13     1.366491126938    81.61824056   183.09049352
 C      2   1   3     4.249062720177   160.93005596   116.80836975
 C     41  15  14     1.459677704153   111.05201287   175.08990246
 C     42   2   1     2.412953791518    41.78584867   196.42965048
 C     44  42   2     1.403446472082    87.95153797   233.97558675
 C     45  44  42     1.381696421071   120.11137308     0.19721020
 C     42   2   1     2.450019795838   135.97209175   106.74449958
 C     43  41  15     1.354461516618   106.26758155     0.30894352
 C     15  14  13     1.367461151185   171.87382904   332.35056460
 C     42   2   1     1.381886391857    32.59078432   245.28492967
 C      9   2   1     1.404988612053   126.98745415   183.94668712
 N     42   2   1     1.352765315936   113.57249190   134.48108877
 H      1   2   7     1.082314187286   164.24291540   157.10673101
 H      2   1   3     1.079907866440   127.17946778   163.32398599
 H      4   3   1     1.083059093494   121.05884962   179.51951407
 H      5   4   3     1.082198687857   122.82445614   179.39570469
 H      6   5   4     1.092244020354   104.42127871   100.12891077
 H      6   5   4     1.089849072120    84.67664359   209.56596400
 H      6   5   4     1.089757312432   133.88492180   322.43795107
 H      7   2  54     1.079807853278   126.66122480     1.30600390
 H     10   1   2     1.083719982283   118.77695324   165.71776750
 H     12   9   2     1.016297692608   125.29023241   180.00180175
 H     14  13  12     1.014936943854    44.97226959   359.42596618
 H     18  14  13     1.082871645210   128.03556573   234.20482432
 H     19  17  13     1.080893611786   126.41830519   178.11313280
 H     21  20  18     1.083569563987   121.05669627   180.67006309
 H     22  21  20     1.082483256222   122.73097286   180.59748951
 H     23  18  14     1.092105306278   103.92715769   234.93429879
 H     23  18  14     1.088871893291   134.19244188    12.25587044
 H     23  18  14     1.089833473518    84.85857450   125.45241208
 H     24  19  17     1.080075460327   127.28078426   178.44613241
 H     26  18  14     1.083408048706   118.76995697   244.94906660
 H     30  14  13     1.082703098730   127.99711412   279.66882698
 H     31  29  14     1.079759695488   125.22293469   180.92530585
 H     33  32  30     1.083188810873   121.01964473   180.74284758
 H     34  33  32     1.082494341787   122.70821597   180.59516895
 H     35  34  33     1.092652735319   105.73575241    97.19771933
 H     35  34  33     1.089462711615    84.05943581   206.43036958
 H     35  34  33     1.089268102902   133.08365142   318.50306270
 H     36  31  29     1.079439669458   126.61599965   178.98859863
 H     38  30  73     1.083742127999   118.77264435   359.90091293
 H     42   2   1     1.082178358682   119.31790784   351.11261923
 H     43  41  15     1.080281907652   126.36969097   182.06329380
 H     45  44  42     1.083277434455   121.10105945   179.58025624
 H     46  45  44     1.082194529648   122.72144639   179.46906377
 H     47  42   2     1.091546151109   106.65128841   315.16475048
 H     47  42   2     1.088818625851   132.46019523    94.52397119
 H     47  42   2     1.089531091801    83.63838232   206.04504406
 H     48  43  41     1.080402239909   127.23657387   181.62955349
 H     50  42   2     1.083186502870   118.77001737    94.71359229

---------------------------
INTERNAL COORDINATES (A.U.)
---------------------------
 C      0   0   0     0.000000000000     0.00000000     0.00000000
 C      1   0   0    12.267140714361     0.00000000     0.00000000
 C      1   2   0     4.561366359039    18.72747095     0.00000000
 C      3   1   2     2.652177949037    87.91368240   323.53718035
 C      4   3   1     2.608713370259   120.17520446     0.17142643
 C      5   4   3     4.626104383748   152.50278509     1.55476554
 C      2   1   3     2.585360837309     3.60076755    81.42564659
 C      7   2   4     2.710026725231   108.05010202   140.81105518
 C      2   1   3     2.710100516721   107.49245885   339.18558693
 C      1   2   7     2.611235715961    46.45472809   105.89771388
 N      1   2   7     2.555409371406    75.61042923   299.28695853
 N      9   2   1     2.600503484979   106.58526707     2.94234959
 N     12   9   2     5.527566200405   168.53581413   171.12065651
 N     13  12   9     5.583221047236    91.55032014    11.12112580
 N     14  13  12     5.528150518591    88.43092389   359.84326247
 C      8   7   2     2.654668413270   127.24786865   181.11170171
 C     13  12   9     2.582376967257    81.72106996   188.00453233
 C     14  13  12    10.882574804710    80.56209567   166.76250791
 C     17  13  12     2.757130505230   111.08861209   183.82872609
 C     18  14  13     4.558465206823    27.27532823    36.33507194
 C     20  18  14     2.650705180609    87.95206320   148.94598259
 C     21  20  18     2.611803198586   120.14573887   359.70382047
 C     18  14  13     4.623235745386   144.15733107    82.80075377
 C     19  17  13     2.557953565794   106.29293361   359.75308708
 C     13  12   9     2.582903091751   172.21332906    33.46711076
 C     18  14  13     2.609636529225    15.08449437   309.23336894
 N     22  21  20     2.556370638369   120.73759875     0.27865223
 C     25  13  17     2.666210041769   125.60330303   182.37774668
 C     14  13  12     2.601476916169    80.24689249   177.85461986
 C     14  13  12    10.892550769017   164.51507311   312.20821879
 C     29  14  13     2.712892575415   106.58649366   178.76395472
 C     30  14  13     4.560507835333    27.10625047    82.12560436
 C     32  30  14     2.652673401891    87.90059683   149.76154742
 C     33  32  30     2.609133588376   120.14881443   359.74174632
 C     34  33  32     4.627519515267   152.49203239     2.45173620
 C     31  29  14     2.585449236669   108.16950133     0.70383075
 C     14  13  12     2.600716325456   169.26375223   353.09862627
 C     30  14  13     2.609536633043    14.68948582   353.70041132
 N     34  33  32     2.556154803934   120.85575621     0.19603406
 C     37  14  29     2.654530526499   126.01551127   180.90772073
 C     15  14  13     2.582293994346    81.61824056   183.09049352
 C      2   1   3     8.029564866989   160.93005596   116.80836975
 C     41  15  14     2.758391104639   111.05201287   175.08990246
 C     42   2   1     4.559821839776    41.78584867   196.42965048
 C     44  42   2     2.652129475853    87.95153797   233.97558675
 C     45  44  42     2.611027836043   120.11137308     0.19721020
 C     42   2   1     4.629866436820   135.97209175   106.74449958
 C     43  41  15     2.559561325344   106.26758155     0.30894352
 C     15  14  13     2.584127074516   171.87382904   332.35056460
 C     42   2   1     2.611386828803    32.59078432   245.28492967
 C      9   2   1     2.655043698059   126.98745415   183.94668712
 N     42   2   1     2.556355970587   113.57249190   134.48108877
 H      1   2   7     2.045277404828   164.24291540   157.10673101
 H      2   1   3     2.040730117440   127.17946778   163.32398599
 H      4   3   1     2.046685073557   121.05884962   179.51951407
 H      5   4   3     2.045059142539   122.82445614   179.39570469
 H      6   5   4     2.064042069883   104.42127871   100.12891077
 H      6   5   4     2.059516273614    84.67664359   209.56596400
 H      6   5   4     2.059342872935   133.88492180   322.43795107
 H      7   2  54     2.040541119952   126.66122480     1.30600390
 H     10   1   2     2.047933972373   118.77695324   165.71776750
 H     12   9   2     1.920524309565   125.29023241   180.00180175
 H     14  13  12     1.917952867083    44.97226959   359.42596618
 H     18  14  13     2.046330847636   128.03556573   234.20482432
 H     19  17  13     2.042592906181   126.41830519   178.11313280
 H     21  20  18     2.047649722989   121.05669627   180.67006309
 H     22  21  20     2.045596898814   122.73097286   180.59748951
 H     23  18  14     2.063779938267   103.92715769   234.93429879
 H     23  18  14     2.057669673245   134.19244188    12.25587044
 H     23  18  14     2.059486796529    84.85857450   125.45241208
 H     24  19  17     2.041046823986   127.28078426   178.44613241
 H     26  18  14     2.047344503340   118.76995697   244.94906660
 H     30  14  13     2.046012340948   127.99711412   279.66882698
 H     31  29  14     2.040450114918   125.22293469   180.92530585
 H     33  32  30     2.046930203877   121.01964473   180.74284758
 H     34  33  32     2.045617847496   122.70821597   180.59516895
 H     35  34  33     2.064814429233   105.73575241    97.19771933
 H     35  34  33     2.058786158072    84.05943581   206.43036958
 H     35  34  33     2.058418400901   133.08365142   318.50306270
 H     36  31  29     2.039845353366   126.61599965   178.98859863
 H     38  30  73     2.047975821711   118.77264435   359.90091293
 H     42   2   1     2.045020725966   119.31790784   351.11261923
 H     43  41  15     2.041436952892   126.36969097   182.06329380
 H     45  44  42     2.047097678177   121.10105945   179.58025624
 H     46  45  44     2.045051284662   122.72144639   179.46906377
 H     47  42   2     2.062723288131   106.65128841   315.16475048
 H     47  42   2     2.057569012371   132.46019523    94.52397119
 H     47  42   2     2.058915377895    83.63838232   206.04504406
 H     48  43  41     2.041664347903   127.23657387   181.62955349
 H     50  42   2     2.046925842384   118.77001737    94.71359229

---------------------
BASIS SET INFORMATION
---------------------
There are 3 groups of distinct atoms

 Group   1 Type C   : 17s4p1d contracted to 3s2p1d pattern {881/31/1}
 Group   2 Type N   : 17s4p1d contracted to 3s2p1d pattern {881/31/1}
 Group   3 Type H   : 4s1p contracted to 2s1p pattern {31/1}

Atom   0C    basis set group =>   1
Atom   1N    basis set group =>   2
Atom   2C    basis set group =>   1
Atom   3N    basis set group =>   2
Atom   4C    basis set group =>   1
Atom   5N    basis set group =>   2
Atom   6C    basis set group =>   1
Atom   7N    basis set group =>   2
Atom   8C    basis set group =>   1
Atom   9N    basis set group =>   2
Atom  10C    basis set group =>   1
Atom  11N    basis set group =>   2
Atom  12C    basis set group =>   1
Atom  13N    basis set group =>   2
Atom  14C    basis set group =>   1
Atom  15N    basis set group =>   2
Atom  16C    basis set group =>   1
Atom  17C    basis set group =>   1
Atom  18C    basis set group =>   1
Atom  19C    basis set group =>   1
Atom  20C    basis set group =>   1
Atom  21C    basis set group =>   1
Atom  22C    basis set group =>   1
Atom  23C    basis set group =>   1
Atom  24C    basis set group =>   1
Atom  25C    basis set group =>   1
Atom  26C    basis set group =>   1
Atom  27C    basis set group =>   1
Atom  28C    basis set group =>   1
Atom  29C    basis set group =>   1
Atom  30C    basis set group =>   1
Atom  31C    basis set group =>   1
Atom  32C    basis set group =>   1
Atom  33C    basis set group =>   1
Atom  34C    basis set group =>   1
Atom  35C    basis set group =>   1
Atom  36C    basis set group =>   1
Atom  37C    basis set group =>   1
Atom  38C    basis set group =>   1
Atom  39C    basis set group =>   1
Atom  40C    basis set group =>   1
Atom  41C    basis set group =>   1
Atom  42C    basis set group =>   1
Atom  43C    basis set group =>   1
Atom  44C    basis set group =>   1
Atom  45C    basis set group =>   1
Atom  46C    basis set group =>   1
Atom  47C    basis set group =>   1
Atom  48C    basis set group =>   1
Atom  49C    basis set group =>   1
Atom  50C    basis set group =>   1
Atom  51C    basis set group =>   1
Atom  52H    basis set group =>   3
Atom  53H    basis set group =>   3
Atom  54H    basis set group =>   3
Atom  55H    basis set group =>   3
Atom  56H    basis set group =>   3
Atom  57H    basis set group =>   3
Atom  58H    basis set group =>   3
Atom  59H    basis set group =>   3
Atom  60H    basis set group =>   3
Atom  61H    basis set group =>   3
Atom  62H    basis set group =>   3
Atom  63H    basis set group =>   3
Atom  64H    basis set group =>   3
Atom  65H    basis set group =>   3
Atom  66H    basis set group =>   3
Atom  67H    basis set group =>   3
Atom  68H    basis set group =>   3
Atom  69H    basis set group =>   3
Atom  70H    basis set group =>   3
Atom  71H    basis set group =>   3
Atom  72H    basis set group =>   3
Atom  73H    basis set group =>   3
Atom  74H    basis set group =>   3
Atom  75H    basis set group =>   3
Atom  76H    basis set group =>   3
Atom  77H    basis set group =>   3
Atom  78H    basis set group =>   3
Atom  79H    basis set group =>   3
Atom  80H    basis set group =>   3
Atom  81H    basis set group =>   3
Atom  82H    basis set group =>   3
Atom  83H    basis set group =>   3
Atom  84H    basis set group =>   3
Atom  85H    basis set group =>   3
Atom  86H    basis set group =>   3
Atom  87H    basis set group =>   3
Atom  88H    basis set group =>   3
Atom  89H    basis set group =>   3


           ************************************************************
           *        Program running with 16 parallel MPI-processes    *
           *              working on a common directory               *
           ************************************************************
------------------------------------------------------------------------------
                           ORCA GTO INTEGRAL CALCULATION
------------------------------------------------------------------------------
------------------------------------------------------------------------------
                   ___                                                        
                  /   \      - P O W E R E D   B Y -                         
                 /     \                                                     
                 |  |  |   _    _      __       _____    __    __             
                 |  |  |  | |  | |    /  \     |  _  \  |  |  /  |          
                  \  \/   | |  | |   /    \    | | | |  |  | /  /          
                 / \  \   | |__| |  /  /\  \   | |_| |  |  |/  /          
                |  |  |   |  __  | /  /__\  \  |    /   |      \           
                |  |  |   | |  | | |   __   |  |    \   |  |\   \          
                \     /   | |  | | |  |  |  |  | |\  \  |  | \   \       
                 \___/    |_|  |_| |__|  |__|  |_| \__\ |__|  \__/        
                                                                              
                      - O R C A' S   B I G   F R I E N D -                    
                                      &                                       
                       - I N T E G R A L  F E E D E R -                       
                                                                              
 v1 FN, 2020, v2 2021                                                         
------------------------------------------------------------------------------


Reading SHARK input file /scratch/allen/tmpyp4_amber_gaff2/conf1/conf1/Conf202.orca.SHARKINP.tmp ... ok
----------------------
SHARK INTEGRAL PACKAGE
----------------------

Number of atoms                             ...     90
Number of basis functions                   ...   1230
Number of shells                            ...    738
Maximum angular momentum                    ...      2
Integral batch strategy                     ... SHARK/LIBINT Hybrid
RI-J (if used) integral strategy            ... SPLIT-RIJ (Revised 2003 algorithm where possible)
Printlevel                                  ...      1
Contraction scheme used                     ... PARTIAL GENERAL contraction
Coulomb Range Separation                    ... NOT USED
Exchange Range Separation                   ... NOT USED
Finite Nucleus Model                        ... NOT USED
Auxiliary Coulomb fitting basis             ... NOT available
Auxiliary J/K fitting basis                 ... NOT available
Auxiliary Correlation fitting basis         ... NOT available
Auxiliary 'external' fitting basis          ... NOT available
Integral threshold                          ...     2.500000e-11
Primitive cut-off                           ...     2.500000e-12
Primitive pair pre-selection threshold      ...     2.500000e-12

Calculating pre-screening integrals         ... done (  0.1 sec) Dimension = 738
Calculating pre-screening integrals (ORCA)  ... done (  0.3 sec) Dimension = 426
Organizing shell pair data                  ... done (  0.7 sec)
Shell pair information
Total number of shell pairs                 ...    272691
Shell pairs after pre-screening             ...     71711
Total number of primitive shell pairs       ...    422091
Primitive shell pairs kept                  ...     92599
          la=0 lb=0:  29436 shell pairs
          la=1 lb=0:  26026 shell pairs
          la=1 lb=1:   4703 shell pairs
          la=2 lb=0:   7891 shell pairs
          la=2 lb=1:   3126 shell pairs
          la=2 lb=2:    529 shell pairs

Calculating one electron integrals          ... done (  0.2 sec)
Calculating Nuclear repulsion               ... done (  0.0 sec) ENN=   6233.589478983215 Eh

SHARK setup successfully completed in   2.2 seconds

Maximum memory used throughout the entire GTOINT-calculation: 99.1 MB


           ************************************************************
           *        Program running with 16 parallel MPI-processes    *
           *              working on a common directory               *
           ************************************************************
-------------------------------------------------------------------------------
                                 ORCA SCF
-------------------------------------------------------------------------------

------------
SCF SETTINGS
------------
Hamiltonian:
 Ab initio Hamiltonian  Method          .... Hartree-Fock(GTOs)


General Settings:
 Integral files         IntName         .... /scratch/allen/tmpyp4_amber_gaff2/conf1/conf1/Conf202.orca
 Hartree-Fock type      HFTyp           .... RHF
 Total Charge           Charge          ....    0
 Multiplicity           Mult            ....    1
 Number of Electrons    NEL             ....  358
 Basis Dimension        Dim             ....  918
 Nuclear Repulsion      ENuc            ....   6233.5894789832 Eh

Convergence Acceleration:
 DIIS                   CNVDIIS         .... on
   Start iteration      DIISMaxIt       ....    12
   Startup error        DIISStart       ....  0.200000
   # of expansion vecs  DIISMaxEq       ....     5
   Bias factor          DIISBfac        ....   1.050
   Max. coefficient     DIISMaxC        ....  10.000
 Trust-Rad. Augm. Hess. CNVTRAH         .... auto
   Auto Start mean grad. ratio tolernc. ....  1.125000
   Auto Start start iteration           ....    20
   Auto Start num. interpolation iter.  ....    10
   Max. Number of Micro iterations      ....    16
   Max. Number of Macro iterations      .... Maxiter - #DIIS iter
   Number of Davidson start vectors     ....     2
   Converg. threshold I  (grad. norm)   ....   1.000e-05
   Converg. threshold II (energy diff.) ....   1.000e-08
   Grad. Scal. Fac. for Micro threshold ....   0.100
   Minimum threshold for Micro iter.    ....   0.010
   NR start threshold (gradient norm)   ....   0.001
   Initial trust radius                 ....   0.400
   Minimum AH scaling param. (alpha)    ....   1.000
   Maximum AH scaling param. (alpha)    .... 1000.000
   Orbital update algorithm             .... Taylor
   White noise on init. David. guess    .... on
   Maximum white noise                  ....   0.010
   Quad. conv. algorithm                .... NR
 SOSCF                  CNVSOSCF        .... on
   Start iteration      SOSCFMaxIt      ....   150
   Startup grad/error   SOSCFStart      ....  0.003300
 Level Shifting         CNVShift        .... on
   Level shift para.    LevelShift      ....    0.2500
   Turn off err/grad.   ShiftErr        ....    0.0010
 Zerner damping         CNVZerner       .... off
 Static damping         CNVDamp         .... on
   Fraction old density DampFac         ....    0.7000
   Max. Damping (<1)    DampMax         ....    0.9800
   Min. Damping (>=0)   DampMin         ....    0.0000
   Turn off err/grad.   DampErr         ....    0.1000
 Fernandez-Rico         CNVRico         .... off

SCF Procedure:
 Maximum # iterations   MaxIter         ....   125
 SCF integral mode      SCFMode         .... Direct
   Integral package                     .... SHARK and LIBINT hybrid scheme
 Reset frequency        DirectResetFreq ....    20
 Integral Threshold     Thresh          ....  2.500e-11 Eh
 Primitive CutOff       TCut            ....  2.500e-12 Eh

Convergence Tolerance:
 Convergence Check Mode ConvCheckMode   .... Total+1el-Energy
 Convergence forced     ConvForced      .... 1
 Energy Change          TolE            ....  1.000e-08 Eh
 1-El. energy change                    ....  1.000e-05 Eh
 Orbital Gradient       TolG            ....  1.000e-05
 Orbital Rotation angle TolX            ....  1.000e-05
 DIIS Error             TolErr          ....  5.000e-07


Diagonalization of the overlap matrix:
Smallest eigenvalue                        ... 2.054e-04
Time for diagonalization                   ...    0.481 sec
Threshold for overlap eigenvalues          ... 1.000e-08
Number of eigenvalues below threshold      ... 0
Time for construction of square roots      ...    0.269 sec
Total time needed                          ...    0.757 sec

Time for model grid setup =    1.297 sec

------------------------------
INITIAL GUESS: MODEL POTENTIAL
------------------------------
Loading Hartree-Fock densities                     ... done
Calculating cut-offs                               ... done
Initializing the effective Hamiltonian             ... done
Setting up the integral package (SHARK)            ... done
Starting the Coulomb interaction                   ... done (   1.5 sec)
Reading the grid                                   ... done
Mapping shells                                     ... done
Starting the XC term evaluation                    ... done (   0.2 sec)
Transforming the Hamiltonian                       ... done (   0.3 sec)
Diagonalizing the Hamiltonian                      ... done (   0.4 sec)
Back transforming the eigenvectors                 ... done (   0.1 sec)
Now organizing SCF variables                       ... done
                      ------------------
                      INITIAL GUESS DONE (   3.8 sec)
                      ------------------
--------------
SCF ITERATIONS
--------------
ITER       Energy         Delta-E        Max-DP      RMS-DP      [F,P]     Damp
               ***  Starting incremental Fock matrix formation  ***
  0  -2121.6465171740   0.000000000000 0.07498500  0.00124419  0.2315603 0.7000
  1  -2122.2938502007  -0.647333026720 0.05690317  0.00101441  0.1435977 0.7000
                               ***Turning on DIIS***
  2  -2122.6970785948  -0.403228394080 0.13287961  0.00229949  0.0802738 0.0000
  3  -2117.9954890497   4.701589545151 0.05937205  0.00069316  0.0436040 0.0000
  4  -2123.3833243459  -5.387835296267 0.01731898  0.00022943  0.0089632 0.0000
  5  -2123.5270700360  -0.143745690037 0.00814411  0.00013349  0.0048902 0.0000
  6  -2123.5114230956   0.015646940383 0.00479860  0.00008557  0.0021694 0.0000
  7  -2123.6055682545  -0.094145158917 0.00309085  0.00006745  0.0016029 0.0000
  8  -2123.6139558424  -0.008387587868 0.00328320  0.00006426  0.0014999 0.0000
  9  -2123.5858766461   0.028079196307 0.00262851  0.00004545  0.0012049 0.0000
 10  -2123.5941756954  -0.008299049357 0.00527850  0.00009501  0.0009396 0.0000
                      *** Initiating the SOSCF procedure ***
                           *** Shutting down DIIS ***
                      *** Re-Reading the Fockian *** 
                      *** Removing any level shift *** 
ITER      Energy       Delta-E        Grad      Rot      Max-DP    RMS-DP
 11  -2123.48721028   0.1069654131  0.000181  0.000181  0.000241  0.000005
               *** Restarting incremental Fock matrix formation ***
 12  -2123.55318496  -0.0659746787  0.000895  0.006246  0.001432  0.000035
 13  -2123.55329472  -0.0001097636  0.001111  0.030846  0.006568  0.000137
 14  -2123.55347993  -0.0001852081  0.000371  0.001535  0.000605  0.000012
 15  -2123.55349531  -0.0000153758  0.000176  0.002326  0.000584  0.000015
 16  -2123.55350311  -0.0000078029  0.000147  0.002424  0.000463  0.000009
 17  -2123.55350585  -0.0000027428  0.000130  0.001794  0.000308  0.000007
 18  -2123.55350721  -0.0000013597  0.000064  0.000917  0.000247  0.000004
 19  -2123.55350793  -0.0000007199  0.000045  0.001140  0.000212  0.000004
 20  -2123.55350830  -0.0000003641  0.000025  0.000742  0.000114  0.000003
 21  -2123.55350848  -0.0000001814  0.000025  0.000943  0.000146  0.000003
 22  -2123.55350865  -0.0000001690  0.000021  0.000868  0.000139  0.000003
 23  -2123.55350875  -0.0000001054  0.000014  0.000467  0.000077  0.000002
 24  -2123.55350880  -0.0000000502  0.000008  0.000352  0.000055  0.000001
 25  -2123.55350884  -0.0000000332  0.000007  0.000152  0.000039  0.000001
 26  -2123.55350885  -0.0000000153  0.000005  0.000108  0.000032  0.000001
 27  -2123.55350886  -0.0000000037  0.000003  0.000084  0.000022  0.000000
                  ***Gradient check signals convergence***
              ***Rediagonalizing the Fockian in SOSCF/NRSCF***

               *****************************************************
               *                     SUCCESS                       *
               *           SCF CONVERGED AFTER  28 CYCLES          *
               *****************************************************


----------------
TOTAL SCF ENERGY
----------------

Total Energy       :        -2123.55350885 Eh          -57784.82870 eV

Components:
Nuclear Repulsion  :         6233.58947898 Eh          169624.59327 eV
Electronic Energy  :        -8357.14298784 Eh         -227409.42197 eV
One Electron Energy:       -15307.80502693 Eh         -416546.55160 eV
Two Electron Energy:         6950.66203910 Eh          189137.12963 eV

Virial components:
Potential Energy   :        -4245.93040809 Eh         -115537.64022 eV
Kinetic Energy     :         2122.37689924 Eh           57752.81152 eV
Virial Ratio       :            2.00055438


---------------
SCF CONVERGENCE
---------------

  Last Energy change         ...    1.0896e-09  Tolerance :   1.0000e-08
  Last MAX-Density change    ...    1.0802e-05  Tolerance :   1.0000e-07
  Last RMS-Density change    ...    2.1617e-07  Tolerance :   5.0000e-09
  Last Orbital Gradient      ...    2.0549e-06  Tolerance :   1.0000e-05
  Last Orbital Rotation      ...    5.2645e-05  Tolerance :   1.0000e-05

             **** THE GBW FILE WAS UPDATED (/scratch/allen/tmpyp4_amber_gaff2/conf1/conf1/Conf202.orca.gbw) ****
             **** DENSITY /scratch/allen/tmpyp4_amber_gaff2/conf1/conf1/Conf202.orca.scfp WAS UPDATED ****
             **** ENERGY FILE WAS UPDATED (/scratch/allen/tmpyp4_amber_gaff2/conf1/conf1/Conf202.orca.en.tmp) ****
             **** THE GBW FILE WAS UPDATED (/scratch/allen/tmpyp4_amber_gaff2/conf1/conf1/Conf202.orca.gbw) ****
             **** DENSITY /scratch/allen/tmpyp4_amber_gaff2/conf1/conf1/Conf202.orca.scfp WAS UPDATED ****
----------------
ORBITAL ENERGIES
----------------

  NO   OCC          E(Eh)            E(eV) 
   0   2.0000     -15.677773      -426.6139 
   1   2.0000     -15.633907      -425.4202 
   2   2.0000     -15.631667      -425.3593 
   3   2.0000     -15.589116      -424.2014 
   4   2.0000     -15.524967      -422.4558 
   5   2.0000     -15.515893      -422.2089 
   6   2.0000     -15.453490      -420.5108 
   7   2.0000     -15.440172      -420.1485 
   8   2.0000     -11.327777      -308.2445 
   9   2.0000     -11.326688      -308.2149 
  10   2.0000     -11.326634      -308.2134 
  11   2.0000     -11.299279      -307.4690 
  12   2.0000     -11.298258      -307.4412 
  13   2.0000     -11.292857      -307.2943 
  14   2.0000     -11.290933      -307.2419 
  15   2.0000     -11.286574      -307.1233 
  16   2.0000     -11.286557      -307.1228 
  17   2.0000     -11.280157      -306.9487 
  18   2.0000     -11.271160      -306.7039 
  19   2.0000     -11.261973      -306.4539 
  20   2.0000     -11.260989      -306.4271 
  21   2.0000     -11.252778      -306.2037 
  22   2.0000     -11.251953      -306.1812 
  23   2.0000     -11.237632      -305.7915 
  24   2.0000     -11.236449      -305.7593 
  25   2.0000     -11.231109      -305.6140 
  26   2.0000     -11.230311      -305.5923 
  27   2.0000     -11.229638      -305.5740 
  28   2.0000     -11.229509      -305.5705 
  29   2.0000     -11.210599      -305.0559 
  30   2.0000     -11.209279      -305.0200 
  31   2.0000     -11.196312      -304.6671 
  32   2.0000     -11.190751      -304.5158 
  33   2.0000     -11.190702      -304.5145 
  34   2.0000     -11.188633      -304.4582 
  35   2.0000     -11.187723      -304.4334 
  36   2.0000     -11.186426      -304.3981 
  37   2.0000     -11.184231      -304.3384 
  38   2.0000     -11.180195      -304.2286 
  39   2.0000     -11.174011      -304.0603 
  40   2.0000     -11.172137      -304.0093 
  41   2.0000     -11.170651      -303.9689 
  42   2.0000     -11.167957      -303.8955 
  43   2.0000     -11.161117      -303.7094 
  44   2.0000     -11.160321      -303.6878 
  45   2.0000     -11.157283      -303.6051 
  46   2.0000     -11.156055      -303.5717 
  47   2.0000     -11.154700      -303.5348 
  48   2.0000     -11.147312      -303.3338 
  49   2.0000     -11.136623      -303.0429 
  50   2.0000     -11.130172      -302.8674 
  51   2.0000     -11.118364      -302.5461 
  52   2.0000      -1.358666       -36.9712 
  53   2.0000      -1.321160       -35.9506 
  54   2.0000      -1.319479       -35.9048 
  55   2.0000      -1.282185       -34.8900 
  56   2.0000      -1.225873       -33.3577 
  57   2.0000      -1.210416       -32.9371 
  58   2.0000      -1.172928       -31.9170 
  59   2.0000      -1.150936       -31.3186 
  60   2.0000      -1.142236       -31.0818 
  61   2.0000      -1.110241       -30.2112 
  62   2.0000      -1.108791       -30.1717 
  63   2.0000      -1.080488       -29.4016 
  64   2.0000      -1.078546       -29.3487 
  65   2.0000      -1.045339       -28.4451 
  66   2.0000      -1.044159       -28.4130 
  67   2.0000      -1.040179       -28.3047 
  68   2.0000      -1.014780       -27.6136 
  69   2.0000      -1.013112       -27.5682 
  70   2.0000      -1.009279       -27.4639 
  71   2.0000      -0.993232       -27.0272 
  72   2.0000      -0.986101       -26.8332 
  73   2.0000      -0.981079       -26.6965 
  74   2.0000      -0.972577       -26.4652 
  75   2.0000      -0.961663       -26.1682 
  76   2.0000      -0.954150       -25.9637 
  77   2.0000      -0.945894       -25.7391 
  78   2.0000      -0.935812       -25.4647 
  79   2.0000      -0.917899       -24.9773 
  80   2.0000      -0.909067       -24.7370 
  81   2.0000      -0.895518       -24.3683 
  82   2.0000      -0.875686       -23.8286 
  83   2.0000      -0.872052       -23.7297 
  84   2.0000      -0.870051       -23.6753 
  85   2.0000      -0.858332       -23.3564 
  86   2.0000      -0.841890       -22.9090 
  87   2.0000      -0.835700       -22.7405 
  88   2.0000      -0.825851       -22.4726 
  89   2.0000      -0.797124       -21.6909 
  90   2.0000      -0.790112       -21.5000 
  91   2.0000      -0.754426       -20.5290 
  92   2.0000      -0.750183       -20.4135 
  93   2.0000      -0.733307       -19.9543 
  94   2.0000      -0.725790       -19.7497 
  95   2.0000      -0.722645       -19.6642 
  96   2.0000      -0.717553       -19.5256 
  97   2.0000      -0.714706       -19.4481 
  98   2.0000      -0.710253       -19.3270 
  99   2.0000      -0.697686       -18.9850 
 100   2.0000      -0.696532       -18.9536 
 101   2.0000      -0.688249       -18.7282 
 102   2.0000      -0.683991       -18.6123 
 103   2.0000      -0.682991       -18.5851 
 104   2.0000      -0.678520       -18.4635 
 105   2.0000      -0.674056       -18.3420 
 106   2.0000      -0.671445       -18.2710 
 107   2.0000      -0.660384       -17.9700 
 108   2.0000      -0.657525       -17.8922 
 109   2.0000      -0.652957       -17.7679 
 110   2.0000      -0.651603       -17.7310 
 111   2.0000      -0.644773       -17.5452 
 112   2.0000      -0.644472       -17.5370 
 113   2.0000      -0.637930       -17.3589 
 114   2.0000      -0.637366       -17.3436 
 115   2.0000      -0.628035       -17.0897 
 116   2.0000      -0.622536       -16.9401 
 117   2.0000      -0.621302       -16.9065 
 118   2.0000      -0.612933       -16.6788 
 119   2.0000      -0.612263       -16.6605 
 120   2.0000      -0.611384       -16.6366 
 121   2.0000      -0.610021       -16.5995 
 122   2.0000      -0.600812       -16.3489 
 123   2.0000      -0.587221       -15.9791 
 124   2.0000      -0.581612       -15.8265 
 125   2.0000      -0.580649       -15.8003 
 126   2.0000      -0.579844       -15.7784 
 127   2.0000      -0.571572       -15.5533 
 128   2.0000      -0.568841       -15.4789 
 129   2.0000      -0.559585       -15.2271 
 130   2.0000      -0.552594       -15.0368 
 131   2.0000      -0.547576       -14.9003 
 132   2.0000      -0.542226       -14.7547 
 133   2.0000      -0.541827       -14.7439 
 134   2.0000      -0.538477       -14.6527 
 135   2.0000      -0.535917       -14.5830 
 136   2.0000      -0.530332       -14.4311 
 137   2.0000      -0.520685       -14.1685 
 138   2.0000      -0.516887       -14.0652 
 139   2.0000      -0.514617       -14.0035 
 140   2.0000      -0.512138       -13.9360 
 141   2.0000      -0.510634       -13.8951 
 142   2.0000      -0.509061       -13.8522 
 143   2.0000      -0.504118       -13.7177 
 144   2.0000      -0.502422       -13.6716 
 145   2.0000      -0.496454       -13.5092 
 146   2.0000      -0.490487       -13.3468 
 147   2.0000      -0.482420       -13.1273 
 148   2.0000      -0.478444       -13.0191 
 149   2.0000      -0.467145       -12.7116 
 150   2.0000      -0.466383       -12.6909 
 151   2.0000      -0.457008       -12.4358 
 152   2.0000      -0.451244       -12.2790 
 153   2.0000      -0.444814       -12.1040 
 154   2.0000      -0.439795       -11.9674 
 155   2.0000      -0.427836       -11.6420 
 156   2.0000      -0.416434       -11.3317 
 157   2.0000      -0.407560       -11.0903 
 158   2.0000      -0.396089       -10.7781 
 159   2.0000      -0.387862       -10.5543 
 160   2.0000      -0.386340       -10.5129 
 161   2.0000      -0.378431       -10.2976 
 162   2.0000      -0.370101       -10.0710 
 163   2.0000      -0.356605        -9.7037 
 164   2.0000      -0.355754        -9.6806 
 165   2.0000      -0.341502        -9.2928 
 166   2.0000      -0.337651        -9.1879 
 167   2.0000      -0.325042        -8.8448 
 168   2.0000      -0.322265        -8.7693 
 169   2.0000      -0.304943        -8.2979 
 170   2.0000      -0.299535        -8.1508 
 171   2.0000      -0.285517        -7.7693 
 172   2.0000      -0.279989        -7.6189 
 173   2.0000      -0.263485        -7.1698 
 174   2.0000      -0.241691        -6.5767 
 175   2.0000      -0.189956        -5.1690 
 176   2.0000      -0.180639        -4.9154 
 177   2.0000      -0.078060        -2.1241 
 178   2.0000      -0.059175        -1.6102 
 179   0.0000       0.028336         0.7711 
 180   0.0000       0.065623         1.7857 
 181   0.0000       0.090625         2.4660 
 182   0.0000       0.107540         2.9263 
 183   0.0000       0.113124         3.0783 
 184   0.0000       0.137030         3.7288 
 185   0.0000       0.139509         3.7962 
 186   0.0000       0.141987         3.8637 
 187   0.0000       0.163798         4.4572 
 188   0.0000       0.165133         4.4935 
 189   0.0000       0.165749         4.5103 
 190   0.0000       0.171638         4.6705 
 191   0.0000       0.181429         4.9369 
 192   0.0000       0.184831         5.0295 
 193   0.0000       0.188270         5.1231 
 194   0.0000       0.204906         5.5758 
 195   0.0000       0.205660         5.5963 
 196   0.0000       0.208290         5.6678 
 197   0.0000       0.208695         5.6789 
 198   0.0000       0.217514         5.9189 
 199   0.0000       0.227958         6.2031 
 200   0.0000       0.232520         6.3272 
 201   0.0000       0.234769         6.3884 
 202   0.0000       0.239035         6.5045 
 203   0.0000       0.239853         6.5267 
 204   0.0000       0.246854         6.7172 
 205   0.0000       0.255758         6.9595 
 206   0.0000       0.256539         6.9808 
 207   0.0000       0.257311         7.0018 
 208   0.0000       0.259638         7.0651 
 209   0.0000       0.261234         7.1085 
 210   0.0000       0.263863         7.1801 
 211   0.0000       0.267382         7.2758 
 212   0.0000       0.268989         7.3195 
 213   0.0000       0.270292         7.3550 
 214   0.0000       0.273205         7.4343 
 215   0.0000       0.276457         7.5228 
 216   0.0000       0.278824         7.5872 
 217   0.0000       0.280947         7.6450 
 218   0.0000       0.285519         7.7694 
 219   0.0000       0.287758         7.8303 
 220   0.0000       0.288883         7.8609 
 221   0.0000       0.292070         7.9476 
 222   0.0000       0.294379         8.0105 
 223   0.0000       0.296684         8.0732 
 224   0.0000       0.297504         8.0955 
 225   0.0000       0.300639         8.1808 
 226   0.0000       0.304868         8.2959 
 227   0.0000       0.308593         8.3973 
 228   0.0000       0.311087         8.4651 
 229   0.0000       0.324660         8.8345 
 230   0.0000       0.327283         8.9058 
 231   0.0000       0.332950         9.0600 
 232   0.0000       0.342752         9.3268 
 233   0.0000       0.352647         9.5960 
 234   0.0000       0.355163         9.6645 
 235   0.0000       0.359853         9.7921 
 236   0.0000       0.376139        10.2353 
 237   0.0000       0.389723        10.6049 
 238   0.0000       0.395067        10.7503 
 239   0.0000       0.397553        10.8180 
 240   0.0000       0.403419        10.9776 
 241   0.0000       0.409457        11.1419 
 242   0.0000       0.412457        11.2235 
 243   0.0000       0.419279        11.4092 
 244   0.0000       0.429247        11.6804 
 245   0.0000       0.434319        11.8184 
 246   0.0000       0.436428        11.8758 
 247   0.0000       0.441038        12.0013 
 248   0.0000       0.441811        12.0223 
 249   0.0000       0.448388        12.2012 
 250   0.0000       0.458148        12.4668 
 251   0.0000       0.465221        12.6593 
 252   0.0000       0.467333        12.7168 
 253   0.0000       0.470994        12.8164 
 254   0.0000       0.472713        12.8632 
 255   0.0000       0.474051        12.8996 
 256   0.0000       0.476495        12.9661 
 257   0.0000       0.480317        13.0701 
 258   0.0000       0.488203        13.2847 
 259   0.0000       0.496115        13.5000 
 260   0.0000       0.503408        13.6984 
 261   0.0000       0.505493        13.7552 
 262   0.0000       0.506460        13.7815 
 263   0.0000       0.513393        13.9701 
 264   0.0000       0.515083        14.0161 
 265   0.0000       0.518332        14.1045 
 266   0.0000       0.524428        14.2704 
 267   0.0000       0.530335        14.4312 
 268   0.0000       0.532434        14.4883 
 269   0.0000       0.536084        14.5876 
 270   0.0000       0.541589        14.7374 
 271   0.0000       0.545273        14.8376 
 272   0.0000       0.557481        15.1698 
 273   0.0000       0.559486        15.2244 
 274   0.0000       0.561657        15.2835 
 275   0.0000       0.566004        15.4018 
 276   0.0000       0.570159        15.5148 
 277   0.0000       0.573693        15.6110 
 278   0.0000       0.578381        15.7385 
 279   0.0000       0.586283        15.9536 
 280   0.0000       0.590768        16.0756 
 281   0.0000       0.592093        16.1117 
 282   0.0000       0.594384        16.1740 
 283   0.0000       0.595537        16.2054 
 284   0.0000       0.598186        16.2775 
 285   0.0000       0.602375        16.3915 
 286   0.0000       0.607542        16.5321 
 287   0.0000       0.610990        16.6259 
 288   0.0000       0.614674        16.7261 
 289   0.0000       0.624217        16.9858 
 290   0.0000       0.626153        17.0385 
 291   0.0000       0.629357        17.1257 
 292   0.0000       0.634892        17.2763 
 293   0.0000       0.636876        17.3303 
 294   0.0000       0.645423        17.5629 
 295   0.0000       0.647776        17.6269 
 296   0.0000       0.653090        17.7715 
 297   0.0000       0.655390        17.8341 
 298   0.0000       0.661673        18.0050 
 299   0.0000       0.666372        18.1329 
 300   0.0000       0.671792        18.2804 
 301   0.0000       0.675321        18.3764 
 302   0.0000       0.676996        18.4220 
 303   0.0000       0.678543        18.4641 
 304   0.0000       0.679790        18.4980 
 305   0.0000       0.684241        18.6192 
 306   0.0000       0.689349        18.7581 
 307   0.0000       0.692718        18.8498 
 308   0.0000       0.695647        18.9295 
 309   0.0000       0.699044        19.0220 
 310   0.0000       0.702277        19.1099 
 311   0.0000       0.703888        19.1538 
 312   0.0000       0.706110        19.2142 
 313   0.0000       0.711405        19.3583 
 314   0.0000       0.712153        19.3787 
 315   0.0000       0.715709        19.4754 
 316   0.0000       0.717459        19.5231 
 317   0.0000       0.717858        19.5339 
 318   0.0000       0.722638        19.6640 
 319   0.0000       0.724608        19.7176 
 320   0.0000       0.727369        19.7927 
 321   0.0000       0.729871        19.8608 
 322   0.0000       0.730722        19.8840 
 323   0.0000       0.732771        19.9397 
 324   0.0000       0.736210        20.0333 
 325   0.0000       0.741016        20.1641 
 326   0.0000       0.742698        20.2098 
 327   0.0000       0.747157        20.3312 
 328   0.0000       0.752566        20.4784 
 329   0.0000       0.753913        20.5150 
 330   0.0000       0.758093        20.6288 
 331   0.0000       0.760313        20.6892 
 332   0.0000       0.762447        20.7472 
 333   0.0000       0.766961        20.8701 
 334   0.0000       0.768143        20.9022 
 335   0.0000       0.772056        21.0087 
 336   0.0000       0.777553        21.1583 
 337   0.0000       0.781639        21.2695 
 338   0.0000       0.786536        21.4027 
 339   0.0000       0.788870        21.4662 
 340   0.0000       0.791938        21.5497 
 341   0.0000       0.795109        21.6360 
 342   0.0000       0.798051        21.7161 
 343   0.0000       0.802593        21.8397 
 344   0.0000       0.805988        21.9321 
 345   0.0000       0.808424        21.9983 
 346   0.0000       0.809093        22.0165 
 347   0.0000       0.811944        22.0941 
 348   0.0000       0.816227        22.2107 
 349   0.0000       0.817756        22.2523 
 350   0.0000       0.818407        22.2700 
 351   0.0000       0.821006        22.3407 
 352   0.0000       0.824075        22.4242 
 353   0.0000       0.827023        22.5044 
 354   0.0000       0.829750        22.5786 
 355   0.0000       0.831724        22.6324 
 356   0.0000       0.833745        22.6873 
 357   0.0000       0.836472        22.7616 
 358   0.0000       0.838049        22.8045 
 359   0.0000       0.838534        22.8177 
 360   0.0000       0.840228        22.8638 
 361   0.0000       0.841978        22.9114 
 362   0.0000       0.843974        22.9657 
 363   0.0000       0.848109        23.0782 
 364   0.0000       0.851336        23.1660 
 365   0.0000       0.856796        23.3146 
 366   0.0000       0.859700        23.3936 
 367   0.0000       0.861786        23.4504 
 368   0.0000       0.865110        23.5409 
 369   0.0000       0.867001        23.5923 
 370   0.0000       0.869135        23.6504 
 371   0.0000       0.872566        23.7437 
 372   0.0000       0.873992        23.7825 
 373   0.0000       0.877307        23.8727 
 374   0.0000       0.879709        23.9381 
 375   0.0000       0.883063        24.0294 
 376   0.0000       0.887606        24.1530 
 377   0.0000       0.888632        24.1809 
 378   0.0000       0.890986        24.2449 
 379   0.0000       0.891772        24.2663 
 380   0.0000       0.896778        24.4026 
 381   0.0000       0.898082        24.4381 
 382   0.0000       0.900643        24.5078 
 383   0.0000       0.902316        24.5533 
 384   0.0000       0.905675        24.6447 
 385   0.0000       0.905947        24.6521 
 386   0.0000       0.907254        24.6876 
 387   0.0000       0.909881        24.7591 
 388   0.0000       0.915956        24.9244 
 389   0.0000       0.916561        24.9409 
 390   0.0000       0.920668        25.0526 
 391   0.0000       0.924197        25.1487 
 392   0.0000       0.926661        25.2157 
 393   0.0000       0.928145        25.2561 
 394   0.0000       0.929143        25.2833 
 395   0.0000       0.931850        25.3569 
 396   0.0000       0.933234        25.3946 
 397   0.0000       0.938499        25.5379 
 398   0.0000       0.943107        25.6632 
 399   0.0000       0.945586        25.7307 
 400   0.0000       0.946891        25.7662 
 401   0.0000       0.952669        25.9234 
 402   0.0000       0.954414        25.9709 
 403   0.0000       0.955676        26.0053 
 404   0.0000       0.960066        26.1247 
 405   0.0000       0.963093        26.2071 
 406   0.0000       0.969559        26.3830 
 407   0.0000       0.974234        26.5103 
 408   0.0000       0.981102        26.6971 
 409   0.0000       0.982591        26.7377 
 410   0.0000       0.986658        26.8483 
 411   0.0000       0.987461        26.8702 
 412   0.0000       0.996699        27.1216 
 413   0.0000       1.000036        27.2124 
 414   0.0000       1.003588        27.3090 
 415   0.0000       1.006931        27.4000 
 416   0.0000       1.012566        27.5533 
 417   0.0000       1.015773        27.6406 
 418   0.0000       1.023787        27.8587 
 419   0.0000       1.030892        28.0520 
 420   0.0000       1.033206        28.1150 
 421   0.0000       1.035771        28.1848 
 422   0.0000       1.041369        28.3371 
 423   0.0000       1.051420        28.6106 
 424   0.0000       1.058939        28.8152 
 425   0.0000       1.059773        28.8379 
 426   0.0000       1.065947        29.0059 
 427   0.0000       1.069741        29.1091 
 428   0.0000       1.077270        29.3140 
 429   0.0000       1.085221        29.5304 
 430   0.0000       1.086268        29.5588 
 431   0.0000       1.089549        29.6481 
 432   0.0000       1.097247        29.8576 
 433   0.0000       1.098045        29.8793 
 434   0.0000       1.101087        29.9621 
 435   0.0000       1.106385        30.1063 
 436   0.0000       1.109575        30.1931 
 437   0.0000       1.112629        30.2762 
 438   0.0000       1.117306        30.4034 
 439   0.0000       1.121164        30.5084 
 440   0.0000       1.121924        30.5291 
 441   0.0000       1.124500        30.5992 
 442   0.0000       1.128589        30.7105 
 443   0.0000       1.129358        30.7314 
 444   0.0000       1.133015        30.8309 
 445   0.0000       1.137029        30.9401 
 446   0.0000       1.140819        31.0433 
 447   0.0000       1.147582        31.2273 
 448   0.0000       1.149527        31.2802 
 449   0.0000       1.150924        31.3182 
 450   0.0000       1.155386        31.4397 
 451   0.0000       1.159916        31.5629 
 452   0.0000       1.165647        31.7189 
 453   0.0000       1.168010        31.7832 
 454   0.0000       1.169411        31.8213 
 455   0.0000       1.172740        31.9119 
 456   0.0000       1.176447        32.0127 
 457   0.0000       1.183413        32.2023 
 458   0.0000       1.188130        32.3307 
 459   0.0000       1.196616        32.5616 
 460   0.0000       1.197537        32.5866 
 461   0.0000       1.199062        32.6281 
 462   0.0000       1.202738        32.7282 
 463   0.0000       1.204692        32.7813 
 464   0.0000       1.208569        32.8868 
 465   0.0000       1.213569        33.0229 
 466   0.0000       1.216434        33.1009 
 467   0.0000       1.216682        33.1076 
 468   0.0000       1.223882        33.3035 
 469   0.0000       1.229110        33.4458 
 470   0.0000       1.230274        33.4774 
 471   0.0000       1.234992        33.6058 
 472   0.0000       1.236973        33.6597 
 473   0.0000       1.241237        33.7758 
 474   0.0000       1.243445        33.8359 
 475   0.0000       1.245430        33.8899 
 476   0.0000       1.249921        34.0121 
 477   0.0000       1.250322        34.0230 
 478   0.0000       1.252404        34.0796 
 479   0.0000       1.256224        34.1836 
 480   0.0000       1.260873        34.3101 
 481   0.0000       1.263271        34.3754 
 482   0.0000       1.265087        34.4248 
 483   0.0000       1.272323        34.6217 
 484   0.0000       1.277083        34.7512 
 485   0.0000       1.280761        34.8513 
 486   0.0000       1.282880        34.9089 
 487   0.0000       1.287761        35.0418 
 488   0.0000       1.289300        35.0836 
 489   0.0000       1.293060        35.1859 
 490   0.0000       1.297178        35.2980 
 491   0.0000       1.299429        35.3593 
 492   0.0000       1.303537        35.4711 
 493   0.0000       1.310378        35.6572 
 494   0.0000       1.311694        35.6930 
 495   0.0000       1.317891        35.8616 
 496   0.0000       1.319935        35.9173 
 497   0.0000       1.321213        35.9520 
 498   0.0000       1.326364        36.0922 
 499   0.0000       1.330774        36.2122 
 500   0.0000       1.332406        36.2566 
 501   0.0000       1.340810        36.4853 
 502   0.0000       1.343166        36.5494 
 503   0.0000       1.344767        36.5930 
 504   0.0000       1.347178        36.6586 
 505   0.0000       1.350704        36.7545 
 506   0.0000       1.351658        36.7805 
 507   0.0000       1.355341        36.8807 
 508   0.0000       1.358961        36.9792 
 509   0.0000       1.360321        37.0162 
[...]
      pz      :     0.022114  p :     0.079772
      px      :     0.043600
      py      :     0.014059
 77 H s       :     0.884701  s :     0.884701
      pz      :     0.047964  p :     0.079276
      px      :     0.015023
      py      :     0.016289
 78 H s       :     0.885046  s :     0.885046
      pz      :     0.025876  p :     0.079245
      px      :     0.020459
      py      :     0.032909
 79 H s       :     0.910681  s :     0.910681
      pz      :     0.021805  p :     0.086318
      px      :     0.021664
      py      :     0.042849
 80 H s       :     0.864661  s :     0.864661
      pz      :     0.039370  p :     0.084800
      px      :     0.030269
      py      :     0.015161
 81 H s       :     0.886833  s :     0.886833
      pz      :     0.037820  p :     0.084116
      px      :     0.016180
      py      :     0.030117
 82 H s       :     0.915966  s :     0.915966
      pz      :     0.021954  p :     0.086732
      px      :     0.031644
      py      :     0.033134
 83 H s       :     0.873328  s :     0.873328
      pz      :     0.039281  p :     0.084094
      px      :     0.015273
      py      :     0.029540
 84 H s       :     0.886649  s :     0.886649
      pz      :     0.035775  p :     0.083446
      px      :     0.031698
      py      :     0.015974
 85 H s       :     0.892810  s :     0.892810
      pz      :     0.022492  p :     0.079788
      px      :     0.014068
      py      :     0.043228
 86 H s       :     0.890957  s :     0.890957
      pz      :     0.024731  p :     0.078832
      px      :     0.032982
      py      :     0.021118
 87 H s       :     0.889866  s :     0.889866
      pz      :     0.048013  p :     0.078739
      px      :     0.015587
      py      :     0.015139
 88 H s       :     0.910654  s :     0.910654
      pz      :     0.021631  p :     0.087013
      px      :     0.042928
      py      :     0.022454
 89 H s       :     0.871333  s :     0.871333
      pz      :     0.037945  p :     0.083840
      px      :     0.030485
      py      :     0.015409


                      *****************************
                      * MAYER POPULATION ANALYSIS *
                      *****************************

  NA   - Mulliken gross atomic population
  ZA   - Total nuclear charge
  QA   - Mulliken gross atomic charge
  VA   - Mayer's total valence
  BVA  - Mayer's bonded valence
  FA   - Mayer's free valence

  ATOM       NA         ZA         QA         VA         BVA        FA
  0 C      5.7885     6.0000     0.2115     3.8442     3.8442     0.0000
  1 N      7.4561     7.0000    -0.4561     3.3370     3.3370     0.0000
  2 C      6.0707     6.0000    -0.0707     3.9221     3.9221    -0.0000
  3 N      7.3394     7.0000    -0.3394     3.4564     3.4564    -0.0000
  4 C      6.0523     6.0000    -0.0523     4.0648     4.0648     0.0000
  5 N      7.5665     7.0000    -0.5665     3.0949     3.0949     0.0000
  6 C      6.1178     6.0000    -0.1178     3.9720     3.9720    -0.0000
  7 N      7.3406     7.0000    -0.3406     3.4331     3.4331     0.0000
  8 C      5.7887     6.0000     0.2113     3.8465     3.8465    -0.0000
  9 N      7.5622     7.0000    -0.5622     3.0772     3.0772    -0.0000
 10 C      5.8810     6.0000     0.1190     3.9092     3.9092    -0.0000
 11 N      7.4385     7.0000    -0.4385     3.3781     3.3781     0.0000
 12 C      6.0722     6.0000    -0.0722     3.8757     3.8757     0.0000
 13 N      7.4298     7.0000    -0.4298     3.4262     3.4262    -0.0000
 14 C      5.7734     6.0000     0.2266     3.7895     3.7895    -0.0000
 15 N      7.4410     7.0000    -0.4410     3.3723     3.3723    -0.0000
 16 C      5.7705     6.0000     0.2295     3.7769     3.7769    -0.0000
 17 C      6.1136     6.0000    -0.1136     3.9617     3.9617     0.0000
 18 C      6.1873     6.0000    -0.1873     3.7642     3.7642    -0.0000
 19 C      5.7801     6.0000     0.2199     3.8657     3.8657     0.0000
 20 C      5.7867     6.0000     0.2133     3.8291     3.8291     0.0000
 21 C      6.0798     6.0000    -0.0798     3.8582     3.8582     0.0000
 22 C      6.0911     6.0000    -0.0911     3.9828     3.9828    -0.0000
 23 C      6.0397     6.0000    -0.0397     3.9926     3.9926    -0.0000
 24 C      5.8061     6.0000     0.1939     3.8213     3.8213    -0.0000
 25 C      5.8854     6.0000     0.1146     3.8916     3.8916    -0.0000
 26 C      6.0873     6.0000    -0.0873     3.9111     3.9111    -0.0000
 27 C      5.7858     6.0000     0.2142     3.8624     3.8624    -0.0000
 28 C      6.0615     6.0000    -0.0615     3.9886     3.9886     0.0000
 29 C      6.1810     6.0000    -0.1810     3.7453     3.7453    -0.0000
 30 C      5.7542     6.0000     0.2458     3.8007     3.8007     0.0000
 31 C      5.7706     6.0000     0.2294     3.8176     3.8176    -0.0000
 32 C      6.0619     6.0000    -0.0619     3.9229     3.9229    -0.0000
 33 C      6.0611     6.0000    -0.0611     3.9720     3.9720     0.0000
 34 C      6.0511     6.0000    -0.0511     3.9839     3.9839    -0.0000
 35 C      5.7725     6.0000     0.2275     3.8169     3.8169    -0.0000
 36 C      5.8915     6.0000     0.1085     3.8755     3.8755     0.0000
 37 C      6.0643     6.0000    -0.0643     3.9178     3.9178     0.0000
 38 C      5.7687     6.0000     0.2313     3.8005     3.8005     0.0000
 39 C      6.0578     6.0000    -0.0578     3.9835     3.9835    -0.0000
 40 C      6.1816     6.0000    -0.1816     3.7277     3.7277    -0.0000
 41 C      5.7742     6.0000     0.2258     3.8869     3.8869     0.0000
 42 C      5.8024     6.0000     0.1976     3.8258     3.8258    -0.0000
 43 C      6.0723     6.0000    -0.0723     3.9000     3.9000    -0.0000
 44 C      6.0894     6.0000    -0.0894     3.9850     3.9850     0.0000
 45 C      6.0611     6.0000    -0.0611     3.9921     3.9921    -0.0000
 46 C      5.7886     6.0000     0.2114     3.8284     3.8284    -0.0000
 47 C      5.8846     6.0000     0.1154     3.8929     3.8929     0.0000
 48 C      6.0671     6.0000    -0.0671     3.9094     3.9094    -0.0000
 49 C      5.7614     6.0000     0.2386     3.8936     3.8936    -0.0000
 50 C      6.0466     6.0000    -0.0466     3.9904     3.9904    -0.0000
 51 C      6.1927     6.0000    -0.1927     3.7362     3.7362    -0.0000
 52 H      0.9626     1.0000     0.0374     0.9859     0.9859     0.0000
 53 H      1.0174     1.0000    -0.0174     0.9986     0.9986    -0.0000
 54 H      0.9533     1.0000     0.0467     1.0174     1.0174    -0.0000
 55 H      0.9639     1.0000     0.0361     0.9865     0.9865    -0.0000
 56 H      0.9505     1.0000     0.0495     0.9695     0.9695    -0.0000
 57 H      0.9528     1.0000     0.0472     0.9826     0.9826     0.0000
 58 H      0.9522     1.0000     0.0478     0.9848     0.9848     0.0000
 59 H      1.0023     1.0000    -0.0023     1.0009     1.0009    -0.0000
 60 H      0.9514     1.0000     0.0486     1.0194     1.0194     0.0000
 61 H      0.8288     1.0000     0.1712     1.0421     1.0421    -0.0000
 62 H      0.8246     1.0000     0.1754     1.0436     1.0436    -0.0000
 63 H      0.9448     1.0000     0.0552     0.9853     0.9853    -0.0000
 64 H      1.0157     1.0000    -0.0157     0.9930     0.9930     0.0000
 65 H      0.9527     1.0000     0.0473     1.0097     1.0097    -0.0000
 66 H      0.9443     1.0000     0.0557     0.9855     0.9855    -0.0000
 67 H      0.9377     1.0000     0.0623     0.9719     0.9719    -0.0000
 68 H      0.9428     1.0000     0.0572     0.9868     0.9868    -0.0000
 69 H      0.9437     1.0000     0.0563     0.9828     0.9828    -0.0000
 70 H      1.0303     1.0000    -0.0303     0.9938     0.9938     0.0000
 71 H      0.9553     1.0000     0.0447     1.0059     1.0059     0.0000
 72 H      0.9292     1.0000     0.0708     0.9836     0.9836    -0.0000
 73 H      1.0081     1.0000    -0.0081     1.0009     1.0009     0.0000
 74 H      0.9401     1.0000     0.0599     1.0101     1.0101    -0.0000
 75 H      0.9298     1.0000     0.0702     0.9839     0.9839     0.0000
 76 H      0.9255     1.0000     0.0745     0.9721     0.9721     0.0000
 77 H      0.9323     1.0000     0.0677     0.9855     0.9855    -0.0000
 78 H      0.9330     1.0000     0.0670     0.9854     0.9854    -0.0000
 79 H      1.0165     1.0000    -0.0165     0.9975     0.9975     0.0000
 80 H      0.9392     1.0000     0.0608     1.0072     1.0072     0.0000
 81 H      0.9457     1.0000     0.0543     0.9856     0.9856    -0.0000
 82 H      1.0248     1.0000    -0.0248     0.9935     0.9935    -0.0000
 83 H      0.9580     1.0000     0.0420     1.0083     1.0083    -0.0000
 84 H      0.9458     1.0000     0.0542     0.9852     0.9852    -0.0000
 85 H      0.9391     1.0000     0.0609     0.9716     0.9716    -0.0000
 86 H      0.9444     1.0000     0.0556     0.9839     0.9839    -0.0000
 87 H      0.9428     1.0000     0.0572     0.9856     0.9856    -0.0000
 88 H      1.0146     1.0000    -0.0146     0.9967     0.9967     0.0000
 89 H      0.9535     1.0000     0.0465     1.0076     1.0076    -0.0000

  Mayer bond orders larger than 0.100000
B(  0-C ,  1-N ) :   1.0921 B(  0-C , 17-C ) :   1.7129 B(  0-C , 52-H ) :   0.9646 
B(  1-N ,  8-C ) :   1.0929 B(  1-N , 10-C ) :   0.9773 B(  2-C , 12-C ) :   1.4977 
B(  2-C , 16-C ) :   1.3643 B(  2-C , 53-H ) :   0.9739 B(  3-N , 14-C ) :   1.2202 
B(  3-N , 16-C ) :   1.1852 B(  3-N , 61-H ) :   0.8989 B(  4-C ,  6-C ) :   1.2138 
B(  4-C , 17-C ) :   1.2121 B(  4-C , 18-C ) :   1.4567 B(  5-N , 19-C ) :   1.4554 
B(  5-N , 27-C ) :   1.3749 B(  6-C ,  8-C ) :   1.7093 B(  6-C , 54-H ) :   0.9341 
B(  7-N , 30-C ) :   1.1957 B(  7-N , 38-C ) :   1.1900 B(  7-N , 62-H ) :   0.8968 
B(  8-C , 55-H ) :   0.9656 B(  9-N , 41-C ) :   1.3945 B(  9-N , 49-C ) :   1.4251 
B( 10-C , 56-H ) :   0.9774 B( 10-C , 57-H ) :   0.9822 B( 10-C , 58-H ) :   0.9843 
B( 11-N , 20-C ) :   1.1307 B( 11-N , 24-C ) :   1.1071 B( 11-N , 25-C ) :   0.9603 
B( 12-C , 14-C ) :   1.3569 B( 12-C , 59-H ) :   0.9607 B( 13-N , 31-C ) :   1.1599 
B( 13-N , 35-C ) :   1.1584 B( 13-N , 36-C ) :   0.9421 B( 14-C , 18-C ) :   1.1241 
B( 15-N , 42-C ) :   1.1080 B( 15-N , 46-C ) :   1.1240 B( 15-N , 47-C ) :   0.9613 
B( 16-C , 51-C ) :   1.1692 B( 17-C , 60-H ) :   0.9231 B( 18-C , 19-C ) :   1.1256 
B( 19-C , 21-C ) :   1.2500 B( 20-C , 28-C ) :   1.6287 B( 20-C , 63-H ) :   0.9703 
B( 21-C , 26-C ) :   1.5921 B( 21-C , 64-H ) :   0.9475 B( 22-C , 23-C ) :   1.2890 
B( 22-C , 28-C ) :   1.2639 B( 22-C , 29-C ) :   1.2251 B( 23-C , 24-C ) :   1.6204 
B( 23-C , 65-H ) :   0.9703 B( 24-C , 66-H ) :   0.9695 B( 25-C , 67-H ) :   0.9760 
B( 25-C , 68-H ) :   0.9828 B( 25-C , 69-H ) :   0.9823 B( 26-C , 27-C ) :   1.2527 
B( 26-C , 70-H ) :   0.9692 B( 27-C , 29-C ) :   1.2085 B( 28-C , 71-H ) :   0.9720 
B( 29-C , 30-C ) :   1.2447 B( 30-C , 32-C ) :   1.2805 B( 31-C , 39-C ) :   1.5895 
B( 31-C , 72-H ) :   0.9682 B( 32-C , 37-C ) :   1.5782 B( 32-C , 73-H ) :   0.9786 
B( 33-C , 34-C ) :   1.3058 B( 33-C , 39-C ) :   1.3027 B( 33-C , 40-C ) :   1.1789 
B( 34-C , 35-C ) :   1.5870 B( 34-C , 74-H ) :   0.9697 B( 35-C , 75-H ) :   0.9682 
B( 36-C , 76-H ) :   0.9767 B( 36-C , 77-H ) :   0.9816 B( 36-C , 78-H ) :   0.9823 
B( 37-C , 38-C ) :   1.2862 B( 37-C , 79-H ) :   0.9765 B( 38-C , 40-C ) :   1.2327 
B( 39-C , 80-H ) :   0.9705 B( 40-C , 41-C ) :   1.2497 B( 41-C , 43-C ) :   1.1852 
B( 42-C , 50-C ) :   1.6331 B( 42-C , 81-H ) :   0.9697 B( 43-C , 48-C ) :   1.6675 
B( 43-C , 82-H ) :   0.9722 B( 44-C , 45-C ) :   1.2638 B( 44-C , 50-C ) :   1.2723 
B( 44-C , 51-C ) :   1.2605 B( 45-C , 46-C ) :   1.6345 B( 45-C , 83-H ) :   0.9718 
B( 46-C , 84-H ) :   0.9700 B( 47-C , 85-H ) :   0.9762 B( 47-C , 86-H ) :   0.9829 
B( 47-C , 87-H ) :   0.9824 B( 48-C , 49-C ) :   1.1887 B( 48-C , 88-H ) :   0.9748 
B( 49-C , 51-C ) :   1.2432 B( 50-C , 89-H ) :   0.9709 

-------
TIMINGS
-------

Total SCF time: 0 days 0 hours 28 min 58 sec 

Total time                  ....    1738.219 sec
Sum of individual times     ....    1733.365 sec  ( 99.7%)

Fock matrix formation       ....    1705.720 sec  ( 98.1%)
Diagonalization             ....       8.747 sec  (  0.5%)
Density matrix formation    ....       0.522 sec  (  0.0%)
Population analysis         ....       0.588 sec  (  0.0%)
Initial guess               ....       2.536 sec  (  0.1%)
Orbital Transformation      ....       0.000 sec  (  0.0%)
Orbital Orthonormalization  ....       0.000 sec  (  0.0%)
DIIS solution               ....       3.963 sec  (  0.2%)
SOSCF solution              ....       9.992 sec  (  0.6%)

Maximum memory used throughout the entire SCF-calculation: 302.7 MB


           ************************************************************
           *        Program running with 16 parallel MPI-processes    *
           *              working on a common directory               *
           ************************************************************

------------------------------------------------------------------------------
                                ORCA  MP2 
------------------------------------------------------------------------------

Freezing NCore=104 chemical core electrons

----------
MP2 ENERGY (disk based algorithm)
----------

Dimension of the basis                    ...  918
Memory devoted to MP2                     ... 2000 MB   
Data format for buffers                   ... DOUBLE
Compression type for matrix containers    ... UNCOMPRESSED

-------------------------------
PARTIAL EXCHANGE TRANSFORMATION
-------------------------------

Transformation type                        ... one-operator
Generation of integrals (i,mue|j,nue)      ... ON
Generation of integrals (mue,kappa|nue,tau)... OFF
Generation of integrals (i,mue|a,nue)      ... OFF
Dimension of the basis                     ...  918
Number of internal MOs                     ...  127 (  52- 178)
Pair cutoff                                ... 2.500e-12 Eh
Number of AO pairs in the trafo            ... 421821
Total Number of distinct AO pairs          ... 421821
Memory devoted for trafo                   ... 2000.0 MB 
Max. Number of MO pairs treated together   ...  311      
Number Format for Storage                  ... Double (8 Byte)
Integral package used                      ... LIBINT

Starting integral evaluation:
    ... done with AO integral generation
Closing buffer AOK     (38.32 GB; CompressionRatio= 1.32)
Collecting buffer AOK 
Number of MO pairs included in the trafo   ... 8128
------------------------
SORTING OF (i,mue|j,nue)
------------------------

IBATCH = 1 of  2
IBATCH = 2 of  2
Closing buffer KAO     (51.03 GB; CompressionRatio= 1.00)
Collecting buffer KAO 
N(AO-Batches) Done                         ...  86040801 
N(AO-Batches) Skipped                      ...  82295628 
N(IJ)-pairs Skipped                        ...         0 
TOTAL TIME for half transformation         ...  2311.005 sec
AO-integral generation                     ...   210.491 sec
Half transformation                        ...   424.006 sec
K-integral sorting                         ...  1453.549 sec
Process 10:   Internal MO 132
Process 13:   Internal MO 156
Process  4:   Internal MO  84

Finished integral transformation - now doing MP2 part

OPERATOR COMBINATION   0   0: ij=( 52..178, 52..178)
Process  1:   Internal MO  60
Process  7:   Internal MO 108
Process  0:   Internal MO  54
Process  0:   Internal MO  57
Process  2:   Internal MO  69
Process  1:   Internal MO  63
Process  5:   Internal MO  93
Process  3:   Internal MO  78
Process  8:   Internal MO 117
Process  2:   Internal MO  72
Process  1:   Internal MO  66
Process  6:   Internal MO 102
Process  4:   Internal MO  87
Process 14:   Internal MO 165
Process 11:   Internal MO 141
Process  2:   Internal MO  75
Process  3:   Internal MO  81
Process  9:   Internal MO 126
Process  7:   Internal MO 111
Process  5:   Internal MO  96
Process  4:   Internal MO  90
Process 12:   Internal MO 150
Process 15:   Internal MO 174
Process 10:   Internal MO 135
Process  6:   Internal MO 105
Process  8:   Internal MO 120
Process  7:   Internal MO 114
Process  5:   Internal MO  99
Process  9:   Internal MO 129
Process 13:   Internal MO 159
Process 11:   Internal MO 144
Process 14:   Internal MO 168
Process 10:   Internal MO 138
Process 12:   Internal MO 153
Process  8:   Internal MO 123
Process 15:   Internal MO 177
Process 11:   Internal MO 147
Process 13:   Internal MO 162
Process 14:   Internal MO 171
-----------------------------------------------
 MP2 CORRELATION ENERGY   :     -7.286037790 Eh
-----------------------------------------------


-------
TIMINGS
-------
Total time                : 2596.038 sec
Integral trafo            : 2313.026 sec ( 89.1%)
K(i,j)                    :    6.667 sec (  0.3%)
T(i,j)                    :    0.080 sec (  0.0%)

---------------------------------------
MP2 TOTAL ENERGY:    -2130.839546645 Eh
---------------------------------------

Maximum memory used throughout the entire MP2-calculation: 2275.3 MB

-------------------------   --------------------
FINAL SINGLE POINT ENERGY     -2130.839546645276
-------------------------   --------------------


                            ***************************************
                            *     ORCA property calculations      *
                            ***************************************


  WARNING: The energy has been calculated at the MP2 level but the densities
           used in the property calculations are still SCF densities
           MP2 response densities have not been calculated 
           use %mp2 Density relaxed end
           or  %mp2 Density unrelaxed end

                                    ---------------------
                                    Active property flags
                                    ---------------------
   (+) Dipole Moment


------------------------------------------------------------------------------
                       ORCA ELECTRIC PROPERTIES CALCULATION
------------------------------------------------------------------------------

Dipole Moment Calculation                       ... on
Quadrupole Moment Calculation                   ... off
Polarizability Calculation                      ... off
GBWName                                         ... /scratch/allen/tmpyp4_amber_gaff2/conf1/conf1/Conf202.orca.gbw
Electron density                                ... /scratch/allen/tmpyp4_amber_gaff2/conf1/conf1/Conf202.orca.scfp
The origin for moment calculation is the CENTER OF MASS  = ( 0.002864, -0.002079 -0.000657)

-------------
DIPOLE MOMENT
-------------
                                X             Y             Z
Electronic contribution:      2.61692      -4.20934      -0.17881
Nuclear contribution   :      0.07641       0.23801       0.17651
                        -----------------------------------------
Total Dipole Moment    :      2.69333      -3.97134      -0.00231
                        -----------------------------------------
Magnitude (a.u.)       :      4.79849
Magnitude (Debye)      :     12.19680



--------------------
Rotational spectrum 
--------------------
 
Rotational constants in cm-1:     0.001501     0.001479     0.000760 
Rotational constants in MHz :    44.996930    44.337704    22.790204 

 Dipole components along the rotational axes: 
x,y,z [a.u.] :     3.428440     3.357282    -0.002029 
x,y,z [Debye]:     8.714401     8.533532    -0.005157 

 

Timings for individual modules:

Sum of individual times         ...     4358.165 sec (=  72.636 min)
GTO integral calculation        ...        3.463 sec (=   0.058 min)   0.1 %
SCF iterations                  ...     1739.460 sec (=  28.991 min)  39.9 %
MP2 module                      ...     2615.243 sec (=  43.587 min)  60.0 %
                             ****ORCA TERMINATED NORMALLY****
TOTAL RUN TIME: 0 days 1 hours 12 minutes 41 seconds 613 msec
# of primitive gaussian functions

