
                                 *****************
                                 * O   R   C   A *
                                 *****************

                                            #,                                       
                                            ###                                      
                                            ####                                     
                                            #####                                    
                                            ######                                   
                                           ########,                                 
                                     ,,################,,,,,                         
                               ,,#################################,,                 
                          ,,##########################################,,             
                       ,#########################################, ''#####,          
                    ,#############################################,,   '####,        
                  ,##################################################,,,,####,       
                ,###########''''           ''''###############################       
              ,#####''   ,,,,##########,,,,          '''####'''          '####       
            ,##' ,,,,###########################,,,                        '##       
           ' ,,###''''                  '''############,,,                           
         ,,##''                                '''############,,,,        ,,,,,,###''
      ,#''                                            '''#######################'''  
     '                                                          ''''####''''         
             ,#######,   #######,   ,#######,      ##                                
            ,#'     '#,  ##    ##  ,#'     '#,    #''#        ######   ,####,        
            ##       ##  ##   ,#'  ##            #'  '#       #        #'  '#        
            ##       ##  #######   ##           ,######,      #####,   #    #        
            '#,     ,#'  ##    ##  '#,     ,#' ,#      #,         ##   #,  ,#        
             '#######'   ##     ##  '#######'  #'      '#     #####' # '####'        



                  #######################################################
                  #                        -***-                        #
                  #          Department of theory and spectroscopy      #
                  #    Directorship and core code : Frank Neese         #
                  #        Max Planck Institute fuer Kohlenforschung    #
                  #                Kaiser Wilhelm Platz 1               #
                  #                 D-45470 Muelheim/Ruhr               #
                  #                      Germany                        #
                  #                                                     #
                  #                  All rights reserved                #
                  #                        -***-                        #
                  #######################################################


                         Program Version 5.0.4 -  RELEASE  -


 With contributions from (in alphabetic order):
   Daniel Aravena         : Magnetic Suceptibility
   Michael Atanasov       : Ab Initio Ligand Field Theory (pilot matlab implementation)
   Alexander A. Auer      : GIAO ZORA, VPT2 properties, NMR spectrum
   Ute Becker             : Parallelization
   Giovanni Bistoni       : ED, misc. LED, open-shell LED, HFLD
   Martin Brehm           : Molecular dynamics
   Dmytro Bykov           : SCF Hessian
   Vijay G. Chilkuri      : MRCI spin determinant printing, contributions to CSF-ICE
   Dipayan Datta          : RHF DLPNO-CCSD density
   Achintya Kumar Dutta   : EOM-CC, STEOM-CC
   Dmitry Ganyushin       : Spin-Orbit,Spin-Spin,Magnetic field MRCI
   Miquel Garcia          : C-PCM and meta-GGA Hessian, CC/C-PCM, Gaussian charge scheme
   Yang Guo               : DLPNO-NEVPT2, F12-NEVPT2, CIM, IAO-localization
   Andreas Hansen         : Spin unrestricted coupled pair/coupled cluster methods
   Benjamin Helmich-Paris : MC-RPA, TRAH-SCF, COSX integrals
   Lee Huntington         : MR-EOM, pCC
   Robert Izsak           : Overlap fitted RIJCOSX, COSX-SCS-MP3, EOM
   Marcus Kettner         : VPT2
   Christian Kollmar      : KDIIS, OOCD, Brueckner-CCSD(T), CCSD density, CASPT2, CASPT2-K
   Simone Kossmann        : Meta GGA functionals, TD-DFT gradient, OOMP2, MP2 Hessian
   Martin Krupicka        : Initial AUTO-CI
   Lucas Lang             : DCDCAS
   Marvin Lechner         : AUTO-CI (C++ implementation), FIC-MRCC
   Dagmar Lenk            : GEPOL surface, SMD
   Dimitrios Liakos       : Extrapolation schemes; Compound Job, initial MDCI parallelization
   Dimitrios Manganas     : Further ROCIS development; embedding schemes
   Dimitrios Pantazis     : SARC Basis sets
   Anastasios Papadopoulos: AUTO-CI, single reference methods and gradients
   Taras Petrenko         : DFT Hessian,TD-DFT gradient, ASA, ECA, R-Raman, ABS, FL, XAS/XES, NRVS
   Peter Pinski           : DLPNO-MP2, DLPNO-MP2 Gradient
   Christoph Reimann      : Effective Core Potentials
   Marius Retegan         : Local ZFS, SOC
   Christoph Riplinger    : Optimizer, TS searches, QM/MM, DLPNO-CCSD(T), (RO)-DLPNO pert. Triples
   Tobias Risthaus        : Range-separated hybrids, TD-DFT gradient, RPA, STAB
   Michael Roemelt        : Original ROCIS implementation
   Masaaki Saitow         : Open-shell DLPNO-CCSD energy and density
   Barbara Sandhoefer     : DKH picture change effects
   Avijit Sen             : IP-ROCIS
   Kantharuban Sivalingam : CASSCF convergence, NEVPT2, FIC-MRCI
   Bernardo de Souza      : ESD, SOC TD-DFT
   Georgi Stoychev        : AutoAux, RI-MP2 NMR, DLPNO-MP2 response
   Willem Van den Heuvel  : Paramagnetic NMR
   Boris Wezisla          : Elementary symmetry handling
   Frank Wennmohs         : Technical directorship


 We gratefully acknowledge several colleagues who have allowed us to
 interface, adapt or use parts of their codes:
   Stefan Grimme, W. Hujo, H. Kruse, P. Pracht,  : VdW corrections, initial TS optimization,
                  C. Bannwarth, S. Ehlert          DFT functionals, gCP, sTDA/sTD-DF
   Ed Valeev, F. Pavosevic, A. Kumar             : LibInt (2-el integral package), F12 methods
   Garnet Chan, S. Sharma, J. Yang, R. Olivares  : DMRG
   Ulf Ekstrom                                   : XCFun DFT Library
   Mihaly Kallay                                 : mrcc  (arbitrary order and MRCC methods)
   Jiri Pittner, Ondrej Demel                    : Mk-CCSD
   Frank Weinhold                                : gennbo (NPA and NBO analysis)
   Christopher J. Cramer and Donald G. Truhlar   : smd solvation model
   Lars Goerigk                                  : TD-DFT with DH, B97 family of functionals
   V. Asgeirsson, H. Jonsson                     : NEB implementation
   FAccTs GmbH                                   : IRC, NEB, NEB-TS, DLPNO-Multilevel, CI-OPT
                                                   MM, QMMM, 2- and 3-layer-ONIOM, Crystal-QMMM,
                                                   LR-CPCM, SF, NACMEs, symmetry and pop. for TD-DFT,
                                                   nearIR, NL-DFT gradient (VV10), updates on ESD,
                                                   ML-optimized integration grids
   S Lehtola, MJT Oliveira, MAL Marques          : LibXC Library
   Liviu Ungur et al                             : ANISO software


 Your calculation uses the libint2 library for the computation of 2-el integrals
 For citations please refer to: http://libint.valeyev.net

 Your ORCA version has been built with support for libXC version: 5.1.0
 For citations please refer to: https://tddft.org/programs/libxc/

 This ORCA versions uses:
   CBLAS   interface :  Fast vector & matrix operations
   LAPACKE interface :  Fast linear algebra routines
   SCALAPACK package :  Parallel linear algebra routines
   Shared memory     :  Shared parallel matrices
   BLAS/LAPACK       :  OpenBLAS 0.3.15  USE64BITINT DYNAMIC_ARCH NO_AFFINITY Sandybridge SINGLE_THREADED
        Core in use  :  Sandybridge
   Copyright (c) 2011-2014, The OpenBLAS Project


================================================================================

----- Orbital basis set information -----
Your calculation utilizes the basis: cc-pVDZ 
       H, B-Ne : Obtained from the ccRepo (grant-hill.group.shef.ac.uk/ccrepo) Feb. 2017
                 T. H. Dunning, Jr., J. Chem. Phys. 90, 1007 (1989)
            He : Obtained from the ccRepo (grant-hill.group.shef.ac.uk/ccrepo) Feb. 2017
                 D. E. Woon, T. H. Dunning, Jr., J. Chem. Phys. 100, 2975 (1994)
  Li-Be, Na-Mg : Obtained from the ccRepo (grant-hill.group.shef.ac.uk/ccrepo) Feb. 2017
                 B. P. Prascher, D. E. Woon, K. A. Peterson, T. H. Dunning, Jr., A. K. Wilson, Theor. Chem. Acc. 128, 69 (2011)
         Al-Ar : Obtained from the ccRepo (grant-hill.group.shef.ac.uk/ccrepo) Feb. 2017
                 D. E. Woon, T. H. Dunning, Jr., J. Chem. Phys. 98, 1358 (1993)
            Ca : Obtained from the Peterson Research Group Website (tyr0.chem.wsu.edu/~kipeters) Feb. 2017
                 J. Koput, K. A. Peterson, J. Phys. Chem. 106, 9595 (2002)
         Sc-Zn : Obtained from the ccRepo (grant-hill.group.shef.ac.uk/ccrepo) Feb. 2017
                 N. B. Balabanov, K. A. Peterson, J. Chem. Phys. 123, 064107 (2005)
                 N. B. Balabanov, K. A. Peterson, J. Chem. Phys. 125, 074110 (2006)
         Ga-Kr : Obtained from the ccRepo (grant-hill.group.shef.ac.uk/ccrepo) Feb. 2017
                 A. K. Wilson, D. E. Woon, K. A. Peterson, T. H. Dunning, Jr., J. Chem. Phys. 110, 7667 (1999)

================================================================================
                                        WARNINGS
                       Please study these warnings very carefully!
================================================================================


WARNING: No MP2 level density has been requested!
         To caclulate MP2 level properties use
         %mp2 Density relaxed end
         or
         %mp2 Density unrelaxed end

WARNING: Post HF methods need fully converged wavefunctions
  ===> : Setting SCFConvForced true
         You can overwrite this default with %scf ConvForced false 


INFO   : the flag for use of the SHARK integral package has been found!

================================================================================
                                       INPUT FILE
================================================================================
NAME = /scratch/allen/tmpyp4_amber_gaff2/2.Mdgx/conf11/conf11/Conf261.orca
|  1> ! PAL2
|  2> ! mp2 cc-pvdz TightSCF  NoKeepInts
|  3> 
|  4> %scf
|  5>   MaxCore 2000
|  6> end
|  7> %mp2
|  8>   MaxCore 2000
|  9> end
| 10> * xyz 0 1
| 11>    C       -4.17200         5.69400         1.22600
| 12>    C        1.47400         4.04100         0.05700
| 13>    C       -2.80200         4.09300         0.04900
| 14>    C       -3.03900         4.82900        -1.12300
| 15>    C       -3.82400         5.96300        -1.08200
| 16>    C       -5.18700         7.62000         0.09600
| 17>    C        0.13200         4.30700         0.06100
| 18>    C       -0.56900         3.05600         0.04700
| 19>    C        1.64900         2.61800         0.02300
| 20>    C       -3.38900         4.55600         1.23700
| 21>    N       -4.38100         6.37900         0.07900
| 22>    N        0.38800         2.06700         0.02500
| 23>    N       -2.01000         0.39500        -0.07500
| 24>    N       -0.38800        -2.07400        -0.02700
| 25>    N        2.01000        -0.40100         0.06500
| 26>    C       -1.96000         2.86100         0.02400
| 27>    C       -2.62300         1.61500        -0.01800
| 28>    C       -5.57300        -4.32900         1.06600
| 29>    C       -4.07300         1.47100         0.05600
| 30>    C       -4.10600        -2.75600        -0.02600
| 31>    C       -4.99500        -2.75700        -1.11100
| 32>    C       -6.13200        -3.54200        -1.07600
| 33>    C       -7.65100        -5.11300         0.04000
| 34>    C       -4.32400         0.14100         0.03700
| 35>    C       -3.02500        -0.52000        -0.04800
| 36>    C       -4.42200        -3.56600         1.07500
| 37>    N       -6.40700        -4.31300         0.00100
| 38>    C       -2.86700        -1.92200        -0.04000
| 39>    C       -1.65000        -2.62400        -0.02700
| 40>    C        3.56800        -6.14200        -1.04000
| 41>    C       -1.47600        -4.04900        -0.03400
| 42>    C        2.80300        -4.09900        -0.00800
| 43>    C        3.65700        -4.38400         1.06900
| 44>    C        4.42700        -5.53000         1.05900
| 45>    C        5.24500        -7.58800         0.01400
| 46>    C       -0.13400        -4.31500        -0.02200
| 47>    C        0.56800        -3.06400        -0.02700
| 48>    C        2.77500        -5.01200        -1.07400
| 49>    N        4.37600        -6.39100         0.01700
| 50>    C        1.95900        -2.86900        -0.00900
| 51>    C        2.62100        -1.62200         0.00900
| 52>    C        5.54300         4.33900        -1.13000
| 53>    C        4.07000        -1.47900        -0.09400
| 54>    C        4.10400         2.75100        -0.02100
| 55>    C        5.02700         2.72900         1.03600
| 56>    C        6.16600         3.50900         0.97800
| 57>    C        7.61900         5.15300        -0.11500
| 58>    C        4.32100        -0.14800        -0.09200
| 59>    C        3.02500         0.51400         0.01500
| 60>    C        4.38700         3.58200        -1.11500
| 61>    C        2.86600         1.91600         0.01300
| 62>    N        6.41300         4.29600        -0.09500
| 63>    H       -4.65500         6.08000         2.11500
| 64>    H        2.27400         4.76600         0.08100
| 65>    H       -2.60500         4.52800        -2.06900
| 66>    H       -4.02700         6.56700        -1.95700
| 67>    H       -4.52000         8.47500         0.23000
| 68>    H       -5.72000         7.70600        -0.85100
| 69>    H       -5.89700         7.56600         0.92100
| 70>    H       -0.33200         5.28200         0.06900
| 71>    H       -3.25600         4.02400         2.17200
| 72>    H        0.18200         1.07200         0.00500
| 73>    H       -0.18300        -1.08000        -0.02100
| 74>    H       -5.86400        -4.96200         1.89500
| 75>    H       -4.79400         2.27200         0.13900
| 76>    H       -4.80000        -2.16000        -1.99400
| 77>    H       -6.84100        -3.58200        -1.89300
| 78>    H       -8.42800        -4.53600         0.54600
| 79>    H       -7.95600        -5.33700        -0.98100
| 80>    H       -7.45600        -6.03700         0.58400
| 81>    H       -5.28700        -0.34400         0.10000
| 82>    H       -3.78000        -3.60100         1.94700
| 83>    H        3.58700        -6.86800        -1.84300
| 84>    H       -2.27600        -4.77400        -0.05000
| 85>    H        3.71400        -3.72400         1.92600
| 86>    H        5.09200        -5.79500         1.87100
| 87>    H        6.20500        -7.32900        -0.43900
| 88>    H        5.39300        -7.91700         1.04200
| 89>    H        4.75900        -8.37300        -0.56400
| 90>    H        0.32900        -5.29000        -0.00800
| 91>    H        2.14600        -4.84200        -1.94000
| 92>    H        5.80800         4.98600        -1.95600
| 93>    H        4.78800        -2.28100        -0.18500
| 94>    H        4.86000         2.11400         1.91200
| 95>    H        6.90100         3.53100         1.77200
| 96>    H        7.38300         6.10900         0.35600
| 97>    H        8.41400         4.65200         0.43500
| 98>    H        7.92100         5.31000        -1.15000
| 99>    H        5.28300         0.33600        -0.17900
|100>    H        3.72000         3.63200        -1.96700
|101> *
|102> 
|103>                          ****END OF INPUT****
================================================================================

                       ****************************
                       * Single Point Calculation *
                       ****************************

---------------------------------
CARTESIAN COORDINATES (ANGSTROEM)
---------------------------------
  C     -4.172000    5.694000    1.226000
  C      1.474000    4.041000    0.057000
  C     -2.802000    4.093000    0.049000
  C     -3.039000    4.829000   -1.123000
  C     -3.824000    5.963000   -1.082000
  C     -5.187000    7.620000    0.096000
  C      0.132000    4.307000    0.061000
  C     -0.569000    3.056000    0.047000
  C      1.649000    2.618000    0.023000
  C     -3.389000    4.556000    1.237000
  N     -4.381000    6.379000    0.079000
  N      0.388000    2.067000    0.025000
  N     -2.010000    0.395000   -0.075000
  N     -0.388000   -2.074000   -0.027000
  N      2.010000   -0.401000    0.065000
  C     -1.960000    2.861000    0.024000
  C     -2.623000    1.615000   -0.018000
  C     -5.573000   -4.329000    1.066000
  C     -4.073000    1.471000    0.056000
  C     -4.106000   -2.756000   -0.026000
  C     -4.995000   -2.757000   -1.111000
  C     -6.132000   -3.542000   -1.076000
  C     -7.651000   -5.113000    0.040000
  C     -4.324000    0.141000    0.037000
  C     -3.025000   -0.520000   -0.048000
  C     -4.422000   -3.566000    1.075000
  N     -6.407000   -4.313000    0.001000
  C     -2.867000   -1.922000   -0.040000
  C     -1.650000   -2.624000   -0.027000
  C      3.568000   -6.142000   -1.040000
  C     -1.476000   -4.049000   -0.034000
  C      2.803000   -4.099000   -0.008000
  C      3.657000   -4.384000    1.069000
  C      4.427000   -5.530000    1.059000
  C      5.245000   -7.588000    0.014000
  C     -0.134000   -4.315000   -0.022000
  C      0.568000   -3.064000   -0.027000
  C      2.775000   -5.012000   -1.074000
  N      4.376000   -6.391000    0.017000
  C      1.959000   -2.869000   -0.009000
  C      2.621000   -1.622000    0.009000
  C      5.543000    4.339000   -1.130000
  C      4.070000   -1.479000   -0.094000
  C      4.104000    2.751000   -0.021000
  C      5.027000    2.729000    1.036000
  C      6.166000    3.509000    0.978000
  C      7.619000    5.153000   -0.115000
  C      4.321000   -0.148000   -0.092000
  C      3.025000    0.514000    0.015000
  C      4.387000    3.582000   -1.115000
  C      2.866000    1.916000    0.013000
  N      6.413000    4.296000   -0.095000
  H     -4.655000    6.080000    2.115000
  H      2.274000    4.766000    0.081000
  H     -2.605000    4.528000   -2.069000
  H     -4.027000    6.567000   -1.957000
  H     -4.520000    8.475000    0.230000
  H     -5.720000    7.706000   -0.851000
  H     -5.897000    7.566000    0.921000
  H     -0.332000    5.282000    0.069000
  H     -3.256000    4.024000    2.172000
  H      0.182000    1.072000    0.005000
  H     -0.183000   -1.080000   -0.021000
  H     -5.864000   -4.962000    1.895000
  H     -4.794000    2.272000    0.139000
  H     -4.800000   -2.160000   -1.994000
  H     -6.841000   -3.582000   -1.893000
  H     -8.428000   -4.536000    0.546000
  H     -7.956000   -5.337000   -0.981000
  H     -7.456000   -6.037000    0.584000
  H     -5.287000   -0.344000    0.100000
  H     -3.780000   -3.601000    1.947000
  H      3.587000   -6.868000   -1.843000
  H     -2.276000   -4.774000   -0.050000
  H      3.714000   -3.724000    1.926000
  H      5.092000   -5.795000    1.871000
  H      6.205000   -7.329000   -0.439000
  H      5.393000   -7.917000    1.042000
  H      4.759000   -8.373000   -0.564000
  H      0.329000   -5.290000   -0.008000
  H      2.146000   -4.842000   -1.940000
  H      5.808000    4.986000   -1.956000
  H      4.788000   -2.281000   -0.185000
  H      4.860000    2.114000    1.912000
  H      6.901000    3.531000    1.772000
  H      7.383000    6.109000    0.356000
  H      8.414000    4.652000    0.435000
  H      7.921000    5.310000   -1.150000
  H      5.283000    0.336000   -0.179000
  H      3.720000    3.632000   -1.967000

----------------------------
CARTESIAN COORDINATES (A.U.)
----------------------------
  NO LB      ZA    FRAG     MASS         X           Y           Z
   0 C     6.0000    0    12.011   -7.883937   10.760101    2.316804
   1 C     6.0000    0    12.011    2.785456    7.636383    0.107714
   2 C     6.0000    0    12.011   -5.295013    7.734649    0.092597
   3 C     6.0000    0    12.011   -5.742878    9.125488   -2.122162
   4 C     6.0000    0    12.011   -7.226313   11.268437   -2.044684
   5 C     6.0000    0    12.011   -9.802009   14.399713    0.181414
   6 C     6.0000    0    12.011    0.249444    8.139050    0.115273
   7 C     6.0000    0    12.011   -1.075254    5.775003    0.088817
   8 C     6.0000    0    12.011    3.116158    4.947303    0.043464
   9 C     6.0000    0    12.011   -6.404282    8.609592    2.337591
  10 N     7.0000    0    14.007   -8.278890   12.054563    0.149288
  11 N     7.0000    0    14.007    0.733214    3.906064    0.047243
  12 N     7.0000    0    14.007   -3.798350    0.746442   -0.141729
  13 N     7.0000    0    14.007   -0.733214   -3.919292   -0.051023
  14 N     7.0000    0    14.007    3.798350   -0.757780    0.122832
  15 C     6.0000    0    12.011   -3.703863    5.406506    0.045353
  16 C     6.0000    0    12.011   -4.956752    3.051908   -0.034015
  17 C     6.0000    0    12.011  -10.531444   -8.180624    2.014448
  18 C     6.0000    0    12.011   -7.696855    2.779787    0.105825
  19 C     6.0000    0    12.011   -7.759216   -5.208085   -0.049133
  20 C     6.0000    0    12.011   -9.439182   -5.209975   -2.099486
  21 C     6.0000    0    12.011  -11.587801   -6.693410   -2.033345
  22 C     6.0000    0    12.011  -14.458295   -9.662170    0.075589
  23 C     6.0000    0    12.011   -8.171176    0.266451    0.069920
  24 C     6.0000    0    12.011   -5.716422   -0.982658   -0.090707
  25 C     6.0000    0    12.011   -8.356369   -6.738763    2.031456
  26 N     7.0000    0    14.007  -12.107475   -8.150389    0.001890
  27 C     6.0000    0    12.011   -5.417845   -3.632054   -0.075589
  28 C     6.0000    0    12.011   -3.118048   -4.958641   -0.051023
  29 C     6.0000    0    12.011    6.742543  -11.606698   -1.965315
  30 C     6.0000    0    12.011   -2.789236   -7.651501   -0.064251
  31 C     6.0000    0    12.011    5.296902   -7.745987   -0.015118
  32 C     6.0000    0    12.011    6.910728   -8.284559    2.020117
  33 C     6.0000    0    12.011    8.365818  -10.450186    2.001220
  34 C     6.0000    0    12.011    9.911614  -14.339242    0.026456
  35 C     6.0000    0    12.011   -0.253223   -8.154168   -0.041574
  36 C     6.0000    0    12.011    1.073364   -5.790121   -0.051023
  37 C     6.0000    0    12.011    5.243990   -9.471307   -2.029566
  38 N     7.0000    0    14.007    8.269442  -12.077240    0.032125
  39 C     6.0000    0    12.011    3.701973   -5.421624   -0.017008
  40 C     6.0000    0    12.011    4.952972   -3.065136    0.017008
  41 C     6.0000    0    12.011   10.474752    8.199522   -2.135391
  42 C     6.0000    0    12.011    7.691185   -2.794905   -0.177634
  43 C     6.0000    0    12.011    7.755436    5.198637   -0.039684
  44 C     6.0000    0    12.011    9.499653    5.157063    1.957756
  45 C     6.0000    0    12.011   11.652051    6.631049    1.848152
  46 C     6.0000    0    12.011   14.397823    9.737759   -0.217319
  47 C     6.0000    0    12.011    8.165507   -0.279679   -0.173855
  48 C     6.0000    0    12.011    5.716422    0.971319    0.028346
  49 C     6.0000    0    12.011    8.290229    6.768999   -2.107045
  50 C     6.0000    0    12.011    5.415955    3.620715    0.024566
  51 N     7.0000    0    14.007   12.118814    8.118263   -0.179524
  52 H     1.0000    0     1.008   -8.796675   11.489535    3.996771
  53 H     1.0000    0     1.008    4.297237    9.006435    0.153068
  54 H     1.0000    0     1.008   -4.922737    8.556680   -3.909843
  55 H     1.0000    0     1.008   -7.609927   12.409832   -3.698194
  56 H     1.0000    0     1.008   -8.541562   16.015429    0.434637
  57 H     1.0000    0     1.008  -10.809233   14.562230   -1.608157
  58 H     1.0000    0     1.008  -11.143715   14.297668    1.740438
  59 H     1.0000    0     1.008   -0.627389    9.981533    0.130391
  60 H     1.0000    0     1.008   -6.152948    7.604258    4.104485
  61 H     1.0000    0     1.008    0.343930    2.025786    0.009449
  62 H     1.0000    0     1.008   -0.345820   -2.040904   -0.039684
  63 H     1.0000    0     1.008  -11.081354   -9.376821    3.581031
  64 H     1.0000    0     1.008   -9.059347    4.293458    0.262672
  65 H     1.0000    0     1.008   -9.070685   -4.081808   -3.768114
  66 H     1.0000    0     1.008  -12.927616   -6.768999   -3.577252
  67 H     1.0000    0     1.008  -15.926612   -8.571798    1.031790
  68 H     1.0000    0     1.008  -15.034661  -10.085468   -1.853821
  69 H     1.0000    0     1.008  -14.089798  -11.408277    1.103600
  70 H     1.0000    0     1.008   -9.990982   -0.650066    0.188973
  71 H     1.0000    0     1.008   -7.143165   -6.804904    3.679297
  72 H     1.0000    0     1.008    6.778448  -12.978639   -3.482765
  73 H     1.0000    0     1.008   -4.301017   -9.021553   -0.094486
  74 H     1.0000    0     1.008    7.018443   -7.037340    3.639613
  75 H     1.0000    0     1.008    9.622485  -10.950963    3.535678
  76 H     1.0000    0     1.008   11.725751  -13.849803   -0.829590
  77 H     1.0000    0     1.008   10.191293  -14.960962    1.969095
  78 H     1.0000    0     1.008    8.993207  -15.822677   -1.065806
  79 H     1.0000    0     1.008    0.621720   -9.996651   -0.015118
  80 H     1.0000    0     1.008    4.055352   -9.150054   -3.666069
  81 H     1.0000    0     1.008   10.975529    9.422175   -3.696304
  82 H     1.0000    0     1.008    9.048009   -4.310465   -0.349599
  83 H     1.0000    0     1.008    9.184069    3.994881    3.613156
  84 H     1.0000    0     1.008   13.041000    6.672623    3.348595
  85 H     1.0000    0     1.008   13.951848   11.544337    0.672743
  86 H     1.0000    0     1.008   15.900156    8.791006    0.822031
  87 H     1.0000    0     1.008   14.968521   10.034446   -2.173185
  88 H     1.0000    0     1.008    9.983423    0.634948   -0.338261
  89 H     1.0000    0     1.008    7.029781    6.863485   -3.717091

--------------------------------
INTERNAL COORDINATES (ANGSTROEM)
--------------------------------
 C      0   0   0     0.000000000000     0.00000000     0.00000000
 C      1   0   0     5.998023507790     0.00000000     0.00000000
 C      1   2   0     2.413592757695    35.69303744     0.00000000
 C      3   1   2     1.404082974756    87.91013907   259.02039294
 C      4   3   1     1.379805058695   120.13452348     0.14081849
 C      5   4   3     2.447672772247   152.55808145     1.57525962
 C      2   1   3     1.368114030335    12.17848517    29.90124783
 C      7   2   3     1.434084376876   108.05010202     0.84668783
 C      2   1   3     1.434123425651   113.13742889   321.50015755
 C      1   2   3     1.381395671052    40.62101919    49.26970864
 N      1   2   3     1.352225942659    96.87925217   278.65508463
 N      9   2   1     1.376127174356   106.58526707    11.15482780
 N     12   9   2     2.925062050624   168.53581413   171.12065651
 N     13  12   9     2.954513327098    91.55032014    11.12112580
 N     14  13  12     2.925371258490    88.43092389   359.84326247
 C      8   7   2     1.404790019896   127.24786865   181.11170171
 C     13  12   9     1.366535034311    81.72106996   188.00453233
 C     14  13  12     5.758810554272    80.56209567   166.76250791
 C     17  13  12     1.459010623676   111.08861209   183.82872609
 C     18  14  13     2.412235892279    27.27532823    36.33507194
 C     20  18  14     1.402692767501    87.95206320   148.94598259
 C     21  20  18     1.382106725257   120.14573887   359.70382047
 C     18  14  13     2.446510985056   144.15733107    82.80075377
 C     19  17  13     1.353610726908   106.29293361   359.75308708
 C     13  12   9     1.366813447402   172.21332906    33.46711076
 C     18  14  13     1.380960173213    15.08449437   309.23336894
 N     22  21  20     1.352773077792   120.73759875     0.27865223
 C     25  13  17     1.410897586645   125.60330303   182.37774668
 C     14  13  12     1.376642291955    80.24689249   177.85461986
 C     14  13  12     5.764089607215   164.51507311   312.20821879
 C     29  14  13     1.435600919476   106.58649366   178.76395472
 C     30  14  13     2.413316804732    27.10625047    82.12560436
 C     32  30  14     1.403734305344    87.90059683   149.76154742
 C     33  32  30     1.380694028378   120.14881443   359.74174632
 C     34  33  32     2.448777858443   152.49203239     2.45173620
 C     31  29  14     1.368160809262   108.16950133     0.70383075
 C     14  13  12     1.376239804685   169.26375223   353.09862627
 C     30  14  13     1.380907310430    14.68948582   353.70041132
 N     34  33  32     1.352658863128   120.85575621     0.19603406
 C     37  14  29     1.404717053360   126.01551127   180.90772073
 C     15  14  13     1.366491126938    81.61824056   183.09049352
 C      2   1   3     4.249062720177   159.47803190   128.50520498
 C     41  15  14     1.459677704153   111.05201287   175.08990246
 C     42   2   1     2.412953791518    41.78584867   168.30694617
 C     44  42   2     1.403446472082    87.95153797   233.97558675
 C     45  44  42     1.381696421071   120.11137308     0.19721020
 C     42   2   1     2.450019795838   135.97209175    78.62179528
 C     43  41  15     1.354461516618   106.26758155     0.30894352
 C     15  14  13     1.367461151185   171.87382904   332.35056460
 C     42   2   1     1.381886391857    32.59078432   217.16222537
 C      9   2   1     1.404988612053   126.98745415   192.15916533
 N     42   2   1     1.352765315936   113.57249190   106.35838447
 H      1   2   3     1.082869336531   132.69542189   142.29304977
 H      2   1   3     1.079907866440   120.52910149   153.11079560
 H      4   3   1     1.083454198386   121.03565851   179.48748460
 H      5   4   3     1.082427826693   122.77049713   179.42657942
 H      6   5   4     1.092643583242   104.40799203   100.14596149
 H      6   5   4     1.090088987193    84.69733571   209.54291500
 H      6   5   4     1.089789429202   133.91457112   322.42550445
 H      7   2  54     1.079807853278   126.66122480     1.30600390
 H     10   1   2     1.083945570589   118.73375466   119.63139433
 H     12   9   2     1.016297692608   125.29023241   180.00180175
 H     14  13  12     1.014936943854    44.97226959   359.42596618
 H     18  14  13     1.082871645210   128.03556573   234.20482432
 H     19  17  13     1.080893611786   126.41830519   178.11313280
 H     21  20  18     1.083569563987   121.05669627   180.67006309
 H     22  21  20     1.082483256222   122.73097286   180.59748951
 H     23  18  14     1.092105306278   103.92715769   234.93429879
 H     23  18  14     1.088871893291   134.19244188    12.25587044
 H     23  18  14     1.089833473518    84.85857450   125.45241208
 H     24  19  17     1.080075460327   127.28078426   178.44613241
 H     26  18  14     1.083408048706   118.76995697   244.94906660
 H     30  14  13     1.082703098730   127.99711412   279.66882698
 H     31  29  14     1.079759695488   125.22293469   180.92530585
 H     33  32  30     1.083188810873   121.01964473   180.74284758
 H     34  33  32     1.082494341787   122.70821597   180.59516895
 H     35  34  33     1.092652735319   105.73575241    97.19771933
 H     35  34  33     1.089462711615    84.05943581   206.43036958
 H     35  34  33     1.089268102902   133.08365142   318.50306270
 H     36  31  29     1.079439669458   126.61599965   178.98859863
 H     38  30  73     1.083742127999   118.77264435   359.90091293
 H     42   2   1     1.082178358682   119.31790784   322.98991492
 H     43  41  15     1.080281907652   126.36969097   182.06329380
 H     45  44  42     1.083277434455   121.10105945   179.58025624
 H     46  45  44     1.082194529648   122.72144639   179.46906377
 H     47  42   2     1.091546151109   106.65128841   315.16475048
 H     47  42   2     1.088818625851   132.46019523    94.52397119
 H     47  42   2     1.089531091801    83.63838232   206.04504406
 H     48  43  41     1.080402239909   127.23657387   181.62955349
 H     50  42   2     1.083186502870   118.77001737    94.71359229

---------------------------
INTERNAL COORDINATES (A.U.)
---------------------------
 C      0   0   0     0.000000000000     0.00000000     0.00000000
 C      1   0   0    11.334621774545     0.00000000     0.00000000
 C      1   2   0     4.561029310860    35.69303744     0.00000000
 C      3   1   2     2.653332291591    87.91013907   259.02039294
 C      4   3   1     2.607453679132   120.13452348     0.14081849
 C      5   4   3     4.625431205003   152.55808145     1.57525962
 C      2   1   3     2.585360837309    12.17848517    29.90124783
 C      7   2   3     2.710026725231   108.05010202     0.84668783
 C      2   1   3     2.710100516721   113.13742889   321.50015755
 C      1   2   3     2.610459500872    40.62101919    49.26970864
 N      1   2   3     2.555336702809    96.87925217   278.65508463
 N      9   2   1     2.600503484979   106.58526707    11.15482780
 N     12   9   2     5.527566200405   168.53581413   171.12065651
 N     13  12   9     5.583221047236    91.55032014    11.12112580
 N     14  13  12     5.528150518591    88.43092389   359.84326247
 C      8   7   2     2.654668413270   127.24786865   181.11170171
 C     13  12   9     2.582376967257    81.72106996   188.00453233
 C     14  13  12    10.882574804710    80.56209567   166.76250791
 C     17  13  12     2.757130505230   111.08861209   183.82872609
 C     18  14  13     4.558465206823    27.27532823    36.33507194
 C     20  18  14     2.650705180609    87.95206320   148.94598259
 C     21  20  18     2.611803198586   120.14573887   359.70382047
 C     18  14  13     4.623235745386   144.15733107    82.80075377
 C     19  17  13     2.557953565794   106.29293361   359.75308708
 C     13  12   9     2.582903091751   172.21332906    33.46711076
 C     18  14  13     2.609636529225    15.08449437   309.23336894
 N     22  21  20     2.556370638369   120.73759875     0.27865223
 C     25  13  17     2.666210041769   125.60330303   182.37774668
 C     14  13  12     2.601476916169    80.24689249   177.85461986
 C     14  13  12    10.892550769017   164.51507311   312.20821879
 C     29  14  13     2.712892575415   106.58649366   178.76395472
 C     30  14  13     4.560507835333    27.10625047    82.12560436
 C     32  30  14     2.652673401891    87.90059683   149.76154742
 C     33  32  30     2.609133588376   120.14881443   359.74174632
 C     34  33  32     4.627519515267   152.49203239     2.45173620
 C     31  29  14     2.585449236669   108.16950133     0.70383075
 C     14  13  12     2.600716325456   169.26375223   353.09862627
 C     30  14  13     2.609536633043    14.68948582   353.70041132
 N     34  33  32     2.556154803934   120.85575621     0.19603406
 C     37  14  29     2.654530526499   126.01551127   180.90772073
 C     15  14  13     2.582293994346    81.61824056   183.09049352
 C      2   1   3     8.029564866989   159.47803190   128.50520498
 C     41  15  14     2.758391104639   111.05201287   175.08990246
 C     42   2   1     4.559821839776    41.78584867   168.30694617
 C     44  42   2     2.652129475853    87.95153797   233.97558675
 C     45  44  42     2.611027836043   120.11137308     0.19721020
 C     42   2   1     4.629866436820   135.97209175    78.62179528
 C     43  41  15     2.559561325344   106.26758155     0.30894352
 C     15  14  13     2.584127074516   171.87382904   332.35056460
 C     42   2   1     2.611386828803    32.59078432   217.16222537
 C      9   2   1     2.655043698059   126.98745415   192.15916533
 N     42   2   1     2.556355970587   113.57249190   106.35838447
 H      1   2   3     2.046326484865   132.69542189   142.29304977
 H      2   1   3     2.040730117440   120.52910149   153.11079560
 H      4   3   1     2.047431713597   121.03565851   179.48748460
 H      5   4   3     2.045492152186   122.77049713   179.42657942
 H      6   5   4     2.064797134314   104.40799203   100.14596149
 H      6   5   4     2.059969647399    84.69733571   209.54291500
 H      6   5   4     2.059403564834   133.91457112   322.42550445
 H      7   2  54     2.040541119952   126.66122480     1.30600390
 H     10   1   2     2.048360272491   118.73375466   119.63139433
 H     12   9   2     1.920524309565   125.29023241   180.00180175
 H     14  13  12     1.917952867083    44.97226959   359.42596618
 H     18  14  13     2.046330847636   128.03556573   234.20482432
 H     19  17  13     2.042592906181   126.41830519   178.11313280
 H     21  20  18     2.047649722989   121.05669627   180.67006309
 H     22  21  20     2.045596898814   122.73097286   180.59748951
 H     23  18  14     2.063779938267   103.92715769   234.93429879
 H     23  18  14     2.057669673245   134.19244188    12.25587044
 H     23  18  14     2.059486796529    84.85857450   125.45241208
 H     24  19  17     2.041046823986   127.28078426   178.44613241
 H     26  18  14     2.047344503340   118.76995697   244.94906660
 H     30  14  13     2.046012340948   127.99711412   279.66882698
 H     31  29  14     2.040450114918   125.22293469   180.92530585
 H     33  32  30     2.046930203877   121.01964473   180.74284758
 H     34  33  32     2.045617847496   122.70821597   180.59516895
 H     35  34  33     2.064814429233   105.73575241    97.19771933
 H     35  34  33     2.058786158072    84.05943581   206.43036958
 H     35  34  33     2.058418400901   133.08365142   318.50306270
 H     36  31  29     2.039845353366   126.61599965   178.98859863
 H     38  30  73     2.047975821711   118.77264435   359.90091293
 H     42   2   1     2.045020725966   119.31790784   322.98991492
 H     43  41  15     2.041436952892   126.36969097   182.06329380
 H     45  44  42     2.047097678177   121.10105945   179.58025624
 H     46  45  44     2.045051284662   122.72144639   179.46906377
 H     47  42   2     2.062723288131   106.65128841   315.16475048
 H     47  42   2     2.057569012371   132.46019523    94.52397119
 H     47  42   2     2.058915377895    83.63838232   206.04504406
 H     48  43  41     2.041664347903   127.23657387   181.62955349
 H     50  42   2     2.046925842384   118.77001737    94.71359229

---------------------
BASIS SET INFORMATION
---------------------
There are 3 groups of distinct atoms

 Group   1 Type C   : 17s4p1d contracted to 3s2p1d pattern {881/31/1}
 Group   2 Type N   : 17s4p1d contracted to 3s2p1d pattern {881/31/1}
 Group   3 Type H   : 4s1p contracted to 2s1p pattern {31/1}

Atom   0C    basis set group =>   1
Atom   1N    basis set group =>   2
Atom   2C    basis set group =>   1
Atom   3N    basis set group =>   2
Atom   4C    basis set group =>   1
Atom   5N    basis set group =>   2
Atom   6C    basis set group =>   1
Atom   7N    basis set group =>   2
Atom   8C    basis set group =>   1
Atom   9N    basis set group =>   2
Atom  10C    basis set group =>   1
Atom  11N    basis set group =>   2
Atom  12C    basis set group =>   1
Atom  13N    basis set group =>   2
Atom  14C    basis set group =>   1
Atom  15N    basis set group =>   2
Atom  16C    basis set group =>   1
Atom  17C    basis set group =>   1
Atom  18C    basis set group =>   1
Atom  19C    basis set group =>   1
Atom  20C    basis set group =>   1
Atom  21C    basis set group =>   1
Atom  22C    basis set group =>   1
Atom  23C    basis set group =>   1
Atom  24C    basis set group =>   1
Atom  25C    basis set group =>   1
Atom  26C    basis set group =>   1
Atom  27C    basis set group =>   1
Atom  28C    basis set group =>   1
Atom  29C    basis set group =>   1
Atom  30C    basis set group =>   1
Atom  31C    basis set group =>   1
Atom  32C    basis set group =>   1
Atom  33C    basis set group =>   1
Atom  34C    basis set group =>   1
Atom  35C    basis set group =>   1
Atom  36C    basis set group =>   1
Atom  37C    basis set group =>   1
Atom  38C    basis set group =>   1
Atom  39C    basis set group =>   1
Atom  40C    basis set group =>   1
Atom  41C    basis set group =>   1
Atom  42C    basis set group =>   1
Atom  43C    basis set group =>   1
Atom  44C    basis set group =>   1
Atom  45C    basis set group =>   1
Atom  46C    basis set group =>   1
Atom  47C    basis set group =>   1
Atom  48C    basis set group =>   1
Atom  49C    basis set group =>   1
Atom  50C    basis set group =>   1
Atom  51C    basis set group =>   1
Atom  52H    basis set group =>   3
Atom  53H    basis set group =>   3
Atom  54H    basis set group =>   3
Atom  55H    basis set group =>   3
Atom  56H    basis set group =>   3
Atom  57H    basis set group =>   3
Atom  58H    basis set group =>   3
Atom  59H    basis set group =>   3
Atom  60H    basis set group =>   3
Atom  61H    basis set group =>   3
Atom  62H    basis set group =>   3
Atom  63H    basis set group =>   3
Atom  64H    basis set group =>   3
Atom  65H    basis set group =>   3
Atom  66H    basis set group =>   3
Atom  67H    basis set group =>   3
Atom  68H    basis set group =>   3
Atom  69H    basis set group =>   3
Atom  70H    basis set group =>   3
Atom  71H    basis set group =>   3
Atom  72H    basis set group =>   3
Atom  73H    basis set group =>   3
Atom  74H    basis set group =>   3
Atom  75H    basis set group =>   3
Atom  76H    basis set group =>   3
Atom  77H    basis set group =>   3
Atom  78H    basis set group =>   3
Atom  79H    basis set group =>   3
Atom  80H    basis set group =>   3
Atom  81H    basis set group =>   3
Atom  82H    basis set group =>   3
Atom  83H    basis set group =>   3
Atom  84H    basis set group =>   3
Atom  85H    basis set group =>   3
Atom  86H    basis set group =>   3
Atom  87H    basis set group =>   3
Atom  88H    basis set group =>   3
Atom  89H    basis set group =>   3


           ************************************************************
           *        Program running with 16 parallel MPI-processes    *
           *              working on a common directory               *
           ************************************************************
------------------------------------------------------------------------------
                           ORCA GTO INTEGRAL CALCULATION
------------------------------------------------------------------------------
------------------------------------------------------------------------------
                   ___                                                        
                  /   \      - P O W E R E D   B Y -                         
                 /     \                                                     
                 |  |  |   _    _      __       _____    __    __             
                 |  |  |  | |  | |    /  \     |  _  \  |  |  /  |          
                  \  \/   | |  | |   /    \    | | | |  |  | /  /          
                 / \  \   | |__| |  /  /\  \   | |_| |  |  |/  /          
                |  |  |   |  __  | /  /__\  \  |    /   |      \           
                |  |  |   | |  | | |   __   |  |    \   |  |\   \          
                \     /   | |  | | |  |  |  |  | |\  \  |  | \   \       
                 \___/    |_|  |_| |__|  |__|  |_| \__\ |__|  \__/        
                                                                              
                      - O R C A' S   B I G   F R I E N D -                    
                                      &                                       
                       - I N T E G R A L  F E E D E R -                       
                                                                              
 v1 FN, 2020, v2 2021                                                         
------------------------------------------------------------------------------


Reading SHARK input file /scratch/allen/tmpyp4_amber_gaff2/conf1/conf1/Conf261.orca.SHARKINP.tmp ... ok
----------------------
SHARK INTEGRAL PACKAGE
----------------------

Number of atoms                             ...     90
Number of basis functions                   ...   1230
Number of shells                            ...    738
Maximum angular momentum                    ...      2
Integral batch strategy                     ... SHARK/LIBINT Hybrid
RI-J (if used) integral strategy            ... SPLIT-RIJ (Revised 2003 algorithm where possible)
Printlevel                                  ...      1
Contraction scheme used                     ... PARTIAL GENERAL contraction
Coulomb Range Separation                    ... NOT USED
Exchange Range Separation                   ... NOT USED
Finite Nucleus Model                        ... NOT USED
Auxiliary Coulomb fitting basis             ... NOT available
Auxiliary J/K fitting basis                 ... NOT available
Auxiliary Correlation fitting basis         ... NOT available
Auxiliary 'external' fitting basis          ... NOT available
Integral threshold                          ...     2.500000e-11
Primitive cut-off                           ...     2.500000e-12
Primitive pair pre-selection threshold      ...     2.500000e-12

Calculating pre-screening integrals         ... done (  0.1 sec) Dimension = 738
Calculating pre-screening integrals (ORCA)  ... done (  0.3 sec) Dimension = 426
Organizing shell pair data                  ... done (  0.7 sec)
Shell pair information
Total number of shell pairs                 ...    272691
Shell pairs after pre-screening             ...     71593
Total number of primitive shell pairs       ...    422091
Primitive shell pairs kept                  ...     92337
          la=0 lb=0:  29416 shell pairs
          la=1 lb=0:  25953 shell pairs
          la=1 lb=1:   4686 shell pairs
          la=2 lb=0:   7892 shell pairs
          la=2 lb=1:   3115 shell pairs
          la=2 lb=2:    531 shell pairs

Calculating one electron integrals          ... done (  0.2 sec)
Calculating Nuclear repulsion               ... done (  0.0 sec) ENN=   6222.206444227116 Eh

SHARK setup successfully completed in   2.2 seconds

Maximum memory used throughout the entire GTOINT-calculation: 99.0 MB


           ************************************************************
           *        Program running with 16 parallel MPI-processes    *
           *              working on a common directory               *
           ************************************************************
-------------------------------------------------------------------------------
                                 ORCA SCF
-------------------------------------------------------------------------------

------------
SCF SETTINGS
------------
Hamiltonian:
 Ab initio Hamiltonian  Method          .... Hartree-Fock(GTOs)


General Settings:
 Integral files         IntName         .... /scratch/allen/tmpyp4_amber_gaff2/conf1/conf1/Conf261.orca
 Hartree-Fock type      HFTyp           .... RHF
 Total Charge           Charge          ....    0
 Multiplicity           Mult            ....    1
 Number of Electrons    NEL             ....  358
 Basis Dimension        Dim             ....  918
 Nuclear Repulsion      ENuc            ....   6222.2064442271 Eh

Convergence Acceleration:
 DIIS                   CNVDIIS         .... on
   Start iteration      DIISMaxIt       ....    12
   Startup error        DIISStart       ....  0.200000
   # of expansion vecs  DIISMaxEq       ....     5
   Bias factor          DIISBfac        ....   1.050
   Max. coefficient     DIISMaxC        ....  10.000
 Trust-Rad. Augm. Hess. CNVTRAH         .... auto
   Auto Start mean grad. ratio tolernc. ....  1.125000
   Auto Start start iteration           ....    20
   Auto Start num. interpolation iter.  ....    10
   Max. Number of Micro iterations      ....    16
   Max. Number of Macro iterations      .... Maxiter - #DIIS iter
   Number of Davidson start vectors     ....     2
   Converg. threshold I  (grad. norm)   ....   1.000e-05
   Converg. threshold II (energy diff.) ....   1.000e-08
   Grad. Scal. Fac. for Micro threshold ....   0.100
   Minimum threshold for Micro iter.    ....   0.010
   NR start threshold (gradient norm)   ....   0.001
   Initial trust radius                 ....   0.400
   Minimum AH scaling param. (alpha)    ....   1.000
   Maximum AH scaling param. (alpha)    .... 1000.000
   Orbital update algorithm             .... Taylor
   White noise on init. David. guess    .... on
   Maximum white noise                  ....   0.010
   Quad. conv. algorithm                .... NR
 SOSCF                  CNVSOSCF        .... on
   Start iteration      SOSCFMaxIt      ....   150
   Startup grad/error   SOSCFStart      ....  0.003300
 Level Shifting         CNVShift        .... on
   Level shift para.    LevelShift      ....    0.2500
   Turn off err/grad.   ShiftErr        ....    0.0010
 Zerner damping         CNVZerner       .... off
 Static damping         CNVDamp         .... on
   Fraction old density DampFac         ....    0.7000
   Max. Damping (<1)    DampMax         ....    0.9800
   Min. Damping (>=0)   DampMin         ....    0.0000
   Turn off err/grad.   DampErr         ....    0.1000
 Fernandez-Rico         CNVRico         .... off

SCF Procedure:
 Maximum # iterations   MaxIter         ....   125
 SCF integral mode      SCFMode         .... Direct
   Integral package                     .... SHARK and LIBINT hybrid scheme
 Reset frequency        DirectResetFreq ....    20
 Integral Threshold     Thresh          ....  2.500e-11 Eh
 Primitive CutOff       TCut            ....  2.500e-12 Eh

Convergence Tolerance:
 Convergence Check Mode ConvCheckMode   .... Total+1el-Energy
 Convergence forced     ConvForced      .... 1
 Energy Change          TolE            ....  1.000e-08 Eh
 1-El. energy change                    ....  1.000e-05 Eh
 Orbital Gradient       TolG            ....  1.000e-05
 Orbital Rotation angle TolX            ....  1.000e-05
 DIIS Error             TolErr          ....  5.000e-07


Diagonalization of the overlap matrix:
Smallest eigenvalue                        ... 2.261e-04
Time for diagonalization                   ...    0.485 sec
Threshold for overlap eigenvalues          ... 1.000e-08
Number of eigenvalues below threshold      ... 0
Time for construction of square roots      ...    0.266 sec
Total time needed                          ...    0.758 sec

Time for model grid setup =    1.300 sec

------------------------------
INITIAL GUESS: MODEL POTENTIAL
------------------------------
Loading Hartree-Fock densities                     ... done
Calculating cut-offs                               ... done
Initializing the effective Hamiltonian             ... done
Setting up the integral package (SHARK)            ... done
Starting the Coulomb interaction                   ... done (   1.4 sec)
Reading the grid                                   ... done
Mapping shells                                     ... done
Starting the XC term evaluation                    ... done (   0.2 sec)
Transforming the Hamiltonian                       ... done (   0.3 sec)
Diagonalizing the Hamiltonian                      ... done (   0.4 sec)
Back transforming the eigenvectors                 ... done (   0.1 sec)
Now organizing SCF variables                       ... done
                      ------------------
                      INITIAL GUESS DONE (   3.8 sec)
                      ------------------
--------------
SCF ITERATIONS
--------------
ITER       Energy         Delta-E        Max-DP      RMS-DP      [F,P]     Damp
               ***  Starting incremental Fock matrix formation  ***
  0  -2121.6434426468   0.000000000000 0.06932442  0.00121247  0.2349193 0.7000
  1  -2122.3123730043  -0.668930357582 0.05269320  0.00098275  0.1452967 0.7000
                               ***Turning on DIIS***
  2  -2122.7284878195  -0.416114815163 0.11733393  0.00222185  0.0806484 0.0000
  3  -2117.7462934336   4.982194385846 0.03412996  0.00068686  0.0443007 0.0000
  4  -2123.4086806189  -5.662387185243 0.00921624  0.00023060  0.0073154 0.0000
  5  -2123.5802413072  -0.171560688264 0.00529592  0.00013881  0.0051326 0.0000
  6  -2123.5602280595   0.020013247666 0.00438696  0.00009452  0.0023904 0.0000
  7  -2123.6656481751  -0.105420115578 0.00390449  0.00007921  0.0018703 0.0000
  8  -2123.6941952350  -0.028547059968 0.00376535  0.00008011  0.0017560 0.0000
                      *** Initiating the SOSCF procedure ***
                           *** Shutting down DIIS ***
                      *** Re-Reading the Fockian *** 
                      *** Removing any level shift *** 
ITER      Energy       Delta-E        Grad      Rot      Max-DP    RMS-DP
  9  -2123.65290270   0.0412925376  0.003149  0.003149  0.002929  0.000059
               *** Restarting incremental Fock matrix formation ***
 10  -2123.60912601   0.0437766836  0.002215  0.020452  0.005775  0.000095
 11  -2123.60973532  -0.0006093020  0.001434  0.067878  0.015990  0.000302
 12  -2123.61068802  -0.0009527010  0.000967  0.011257  0.004811  0.000063
 13  -2123.61091959  -0.0002315685  0.000801  0.013443  0.004436  0.000074
 14  -2123.61108005  -0.0001604666  0.000488  0.013010  0.004245  0.000059
 15  -2123.61115598  -0.0000759325  0.000299  0.011871  0.003431  0.000055
 16  -2123.61120924  -0.0000532561  0.000357  0.009680  0.001985  0.000037
 17  -2123.61123635  -0.0000271056  0.000192  0.002753  0.001019  0.000015
 18  -2123.61124424  -0.0000078960  0.000158  0.002635  0.000613  0.000010
 19  -2123.61124864  -0.0000044013  0.000113  0.002942  0.000619  0.000010
 20  -2123.61125177  -0.0000031284  0.000092  0.004357  0.000815  0.000014
 21  -2123.61125432  -0.0000025449  0.000067  0.003153  0.000562  0.000010
 22  -2123.61125555  -0.0000012313  0.000038  0.001813  0.000319  0.000006
 23  -2123.61125610  -0.0000005560  0.000028  0.000614  0.000172  0.000003
 24  -2123.61125635  -0.0000002425  0.000030  0.000699  0.000187  0.000003
 25  -2123.61125651  -0.0000001615  0.000024  0.000741  0.000231  0.000003
 26  -2123.61125664  -0.0000001334  0.000013  0.000700  0.000224  0.000003
 27  -2123.61125673  -0.0000000896  0.000013  0.000521  0.000135  0.000002
 28  -2123.61125677  -0.0000000389  0.000007  0.000166  0.000033  0.000001
 29  -2123.61125679  -0.0000000156  0.000004  0.000062  0.000015  0.000000
               *** Restarting incremental Fock matrix formation ***
 30  -2123.61125683  -0.0000000492  0.000003  0.000070  0.000018  0.000000
                 **** Energy Check signals convergence ****
              ***Rediagonalizing the Fockian in SOSCF/NRSCF***

               *****************************************************
               *                     SUCCESS                       *
               *           SCF CONVERGED AFTER  31 CYCLES          *
               *****************************************************


----------------
TOTAL SCF ENERGY
----------------

Total Energy       :        -2123.61125684 Eh          -57786.40010 eV

Components:
Nuclear Repulsion  :         6222.20644423 Eh          169314.84515 eV
Electronic Energy  :        -8345.81770106 Eh         -227101.24525 eV
One Electron Energy:       -15285.88110848 Eh         -415949.97145 eV
Two Electron Energy:         6940.06340741 Eh          188848.72620 eV

Virial components:
Potential Energy   :        -4245.59754583 Eh         -115528.58258 eV
Kinetic Energy     :         2121.98628899 Eh           57742.18248 eV
Virial Ratio       :            2.00076578


---------------
SCF CONVERGENCE
---------------

  Last Energy change         ...   -1.4188e-10  Tolerance :   1.0000e-08
  Last MAX-Density change    ...    1.4552e-05  Tolerance :   1.0000e-07
  Last RMS-Density change    ...    2.7719e-07  Tolerance :   5.0000e-09
  Last Orbital Gradient      ...    1.8306e-06  Tolerance :   1.0000e-05
  Last Orbital Rotation      ...    7.1593e-05  Tolerance :   1.0000e-05

             **** THE GBW FILE WAS UPDATED (/scratch/allen/tmpyp4_amber_gaff2/conf1/conf1/Conf261.orca.gbw) ****
             **** DENSITY /scratch/allen/tmpyp4_amber_gaff2/conf1/conf1/Conf261.orca.scfp WAS UPDATED ****
             **** ENERGY FILE WAS UPDATED (/scratch/allen/tmpyp4_amber_gaff2/conf1/conf1/Conf261.orca.en.tmp) ****
             **** THE GBW FILE WAS UPDATED (/scratch/allen/tmpyp4_amber_gaff2/conf1/conf1/Conf261.orca.gbw) ****
             **** DENSITY /scratch/allen/tmpyp4_amber_gaff2/conf1/conf1/Conf261.orca.scfp WAS UPDATED ****
----------------
ORBITAL ENERGIES
----------------

  NO   OCC          E(Eh)            E(eV) 
   0   2.0000     -15.707189      -427.4143 
   1   2.0000     -15.631294      -425.3491 
   2   2.0000     -15.619596      -425.0308 
   3   2.0000     -15.583060      -424.0366 
   4   2.0000     -15.520211      -422.3264 
   5   2.0000     -15.505786      -421.9339 
   6   2.0000     -15.450378      -420.4262 
   7   2.0000     -15.428602      -419.8336 
   8   2.0000     -11.348251      -308.8016 
   9   2.0000     -11.347574      -308.7832 
  10   2.0000     -11.343116      -308.6619 
  11   2.0000     -11.302996      -307.5702 
  12   2.0000     -11.298018      -307.4347 
  13   2.0000     -11.292273      -307.2784 
  14   2.0000     -11.290234      -307.2229 
  15   2.0000     -11.283406      -307.0371 
  16   2.0000     -11.281855      -306.9949 
  17   2.0000     -11.279425      -306.9288 
  18   2.0000     -11.279062      -306.9189 
  19   2.0000     -11.272799      -306.7485 
  20   2.0000     -11.267299      -306.5988 
  21   2.0000     -11.248562      -306.0889 
  22   2.0000     -11.245099      -305.9947 
  23   2.0000     -11.234876      -305.7165 
  24   2.0000     -11.228628      -305.5465 
  25   2.0000     -11.227738      -305.5223 
  26   2.0000     -11.223907      -305.4180 
  27   2.0000     -11.219741      -305.3047 
  28   2.0000     -11.219421      -305.2960 
  29   2.0000     -11.208673      -305.0035 
  30   2.0000     -11.207458      -304.9704 
  31   2.0000     -11.193117      -304.5802 
  32   2.0000     -11.192334      -304.5589 
  33   2.0000     -11.192268      -304.5571 
  34   2.0000     -11.191151      -304.5267 
  35   2.0000     -11.190432      -304.5071 
  36   2.0000     -11.189384      -304.4786 
  37   2.0000     -11.181960      -304.2766 
  38   2.0000     -11.181828      -304.2730 
  39   2.0000     -11.174513      -304.0740 
  40   2.0000     -11.166684      -303.8609 
  41   2.0000     -11.165456      -303.8275 
  42   2.0000     -11.163344      -303.7700 
  43   2.0000     -11.161178      -303.7111 
  44   2.0000     -11.159657      -303.6697 
  45   2.0000     -11.147620      -303.3422 
  46   2.0000     -11.147192      -303.3305 
  47   2.0000     -11.142547      -303.2041 
  48   2.0000     -11.140948      -303.1606 
  49   2.0000     -11.133705      -302.9635 
  50   2.0000     -11.119604      -302.5798 
  51   2.0000     -11.114605      -302.4438 
  52   2.0000      -1.381733       -37.5989 
  53   2.0000      -1.319069       -35.8937 
  54   2.0000      -1.308488       -35.6058 
  55   2.0000      -1.277452       -34.7612 
  56   2.0000      -1.222887       -33.2765 
  57   2.0000      -1.201889       -32.7051 
  58   2.0000      -1.175071       -31.9753 
  59   2.0000      -1.158301       -31.5190 
  60   2.0000      -1.139300       -31.0019 
  61   2.0000      -1.107878       -30.1469 
  62   2.0000      -1.100805       -29.9544 
  63   2.0000      -1.098238       -29.8846 
  64   2.0000      -1.070910       -29.1409 
  65   2.0000      -1.051081       -28.6014 
  66   2.0000      -1.043311       -28.3899 
  67   2.0000      -1.033402       -28.1203 
  68   2.0000      -1.014308       -27.6007 
  69   2.0000      -1.004808       -27.3422 
  70   2.0000      -1.003992       -27.3200 
  71   2.0000      -0.992383       -27.0041 
  72   2.0000      -0.984344       -26.7854 
  73   2.0000      -0.978406       -26.6238 
  74   2.0000      -0.964255       -26.2387 
  75   2.0000      -0.961879       -26.1741 
  76   2.0000      -0.951383       -25.8884 
  77   2.0000      -0.941602       -25.6223 
  78   2.0000      -0.926757       -25.2183 
  79   2.0000      -0.921952       -25.0876 
  80   2.0000      -0.914359       -24.8810 
  81   2.0000      -0.889529       -24.2053 
  82   2.0000      -0.883434       -24.0395 
  83   2.0000      -0.870086       -23.6762 
  84   2.0000      -0.860843       -23.4247 
  85   2.0000      -0.848163       -23.0797 
  86   2.0000      -0.832309       -22.6483 
  87   2.0000      -0.828252       -22.5379 
  88   2.0000      -0.821353       -22.3502 
  89   2.0000      -0.794950       -21.6317 
  90   2.0000      -0.787465       -21.4280 
  91   2.0000      -0.766271       -20.8513 
  92   2.0000      -0.733725       -19.9657 
  93   2.0000      -0.731904       -19.9161 
  94   2.0000      -0.727936       -19.8082 
  95   2.0000      -0.721872       -19.6431 
  96   2.0000      -0.716615       -19.5001 
  97   2.0000      -0.707252       -19.2453 
  98   2.0000      -0.704155       -19.1610 
  99   2.0000      -0.700260       -19.0550 
 100   2.0000      -0.695713       -18.9313 
 101   2.0000      -0.689747       -18.7690 
 102   2.0000      -0.684001       -18.6126 
 103   2.0000      -0.674736       -18.3605 
 104   2.0000      -0.673630       -18.3304 
 105   2.0000      -0.668329       -18.1862 
 106   2.0000      -0.663503       -18.0548 
 107   2.0000      -0.663265       -18.0484 
 108   2.0000      -0.653169       -17.7736 
 109   2.0000      -0.650485       -17.7006 
 110   2.0000      -0.648598       -17.6493 
 111   2.0000      -0.642969       -17.4961 
 112   2.0000      -0.640294       -17.4233 
 113   2.0000      -0.637157       -17.3379 
 114   2.0000      -0.631163       -17.1748 
 115   2.0000      -0.627511       -17.0754 
 116   2.0000      -0.625851       -17.0303 
 117   2.0000      -0.618745       -16.8369 
 118   2.0000      -0.612315       -16.6619 
 119   2.0000      -0.610721       -16.6186 
 120   2.0000      -0.609579       -16.5875 
 121   2.0000      -0.601513       -16.3680 
 122   2.0000      -0.590581       -16.0705 
 123   2.0000      -0.585905       -15.9433 
 124   2.0000      -0.585301       -15.9268 
 125   2.0000      -0.579615       -15.7721 
 126   2.0000      -0.575911       -15.6713 
 127   2.0000      -0.574647       -15.6369 
 128   2.0000      -0.571504       -15.5514 
 129   2.0000      -0.563204       -15.3256 
 130   2.0000      -0.556623       -15.1465 
 131   2.0000      -0.547161       -14.8890 
 132   2.0000      -0.541959       -14.7475 
 133   2.0000      -0.539716       -14.6864 
 134   2.0000      -0.534174       -14.5356 
 135   2.0000      -0.529925       -14.4200 
 136   2.0000      -0.518454       -14.1079 
 137   2.0000      -0.516209       -14.0468 
 138   2.0000      -0.514095       -13.9892 
 139   2.0000      -0.512657       -13.9501 
 140   2.0000      -0.510586       -13.8938 
 141   2.0000      -0.503135       -13.6910 
 142   2.0000      -0.501614       -13.6496 
 143   2.0000      -0.499481       -13.5916 
 144   2.0000      -0.495455       -13.4820 
 145   2.0000      -0.493872       -13.4389 
 146   2.0000      -0.490108       -13.3365 
 147   2.0000      -0.475706       -12.9446 
 148   2.0000      -0.473801       -12.8928 
 149   2.0000      -0.465824       -12.6757 
 150   2.0000      -0.461877       -12.5683 
 151   2.0000      -0.459837       -12.5128 
 152   2.0000      -0.451669       -12.2906 
 153   2.0000      -0.441273       -12.0077 
 154   2.0000      -0.434890       -11.8339 
 155   2.0000      -0.433108       -11.7855 
 156   2.0000      -0.420233       -11.4351 
 157   2.0000      -0.414464       -11.2781 
 158   2.0000      -0.412673       -11.2294 
 159   2.0000      -0.402779       -10.9602 
 160   2.0000      -0.382035       -10.3957 
 161   2.0000      -0.370347       -10.0777 
 162   2.0000      -0.354934        -9.6582 
 163   2.0000      -0.353592        -9.6217 
 164   2.0000      -0.346449        -9.4273 
 165   2.0000      -0.340235        -9.2583 
 166   2.0000      -0.338873        -9.2212 
 167   2.0000      -0.321456        -8.7473 
 168   2.0000      -0.313957        -8.5432 
 169   2.0000      -0.302850        -8.2410 
 170   2.0000      -0.298403        -8.1200 
 171   2.0000      -0.283359        -7.7106 
 172   2.0000      -0.277180        -7.5425 
 173   2.0000      -0.265415        -7.2223 
 174   2.0000      -0.231527        -6.3002 
 175   2.0000      -0.183667        -4.9978 
 176   2.0000      -0.173795        -4.7292 
 177   2.0000      -0.062578        -1.7028 
 178   2.0000      -0.050806        -1.3825 
 179   0.0000       0.034954         0.9512 
 180   0.0000       0.056916         1.5488 
 181   0.0000       0.081684         2.2227 
 182   0.0000       0.097955         2.6655 
 183   0.0000       0.102044         2.7768 
 184   0.0000       0.128947         3.5088 
 185   0.0000       0.139658         3.8003 
 186   0.0000       0.148372         4.0374 
 187   0.0000       0.163076         4.4375 
 188   0.0000       0.166015         4.5175 
 189   0.0000       0.169138         4.6025 
 190   0.0000       0.171416         4.6645 
 191   0.0000       0.172676         4.6987 
 192   0.0000       0.175580         4.7778 
 193   0.0000       0.192285         5.2323 
 194   0.0000       0.204811         5.5732 
 195   0.0000       0.205332         5.5874 
 196   0.0000       0.210746         5.7347 
 197   0.0000       0.212000         5.7688 
 198   0.0000       0.217263         5.9120 
 199   0.0000       0.222575         6.0566 
 200   0.0000       0.233246         6.3469 
 201   0.0000       0.234900         6.3920 
 202   0.0000       0.236337         6.4310 
 203   0.0000       0.240231         6.5370 
 204   0.0000       0.243762         6.6331 
 205   0.0000       0.246740         6.7141 
 206   0.0000       0.251621         6.8470 
 207   0.0000       0.253287         6.8923 
 208   0.0000       0.255505         6.9526 
 209   0.0000       0.258365         7.0305 
 210   0.0000       0.263558         7.1718 
 211   0.0000       0.265306         7.2193 
 212   0.0000       0.267152         7.2696 
 213   0.0000       0.273470         7.4415 
 214   0.0000       0.278970         7.5912 
 215   0.0000       0.280215         7.6250 
 216   0.0000       0.282765         7.6944 
 217   0.0000       0.284891         7.7523 
 218   0.0000       0.288100         7.8396 
 219   0.0000       0.288840         7.8597 
 220   0.0000       0.291560         7.9337 
 221   0.0000       0.293931         7.9983 
 222   0.0000       0.297460         8.0943 
 223   0.0000       0.298496         8.1225 
 224   0.0000       0.300620         8.1803 
 225   0.0000       0.303901         8.2696 
 226   0.0000       0.305335         8.3086 
 227   0.0000       0.306181         8.3316 
 228   0.0000       0.315599         8.5879 
 229   0.0000       0.318276         8.6607 
 230   0.0000       0.326542         8.8857 
 231   0.0000       0.327416         8.9094 
 232   0.0000       0.329944         8.9782 
 233   0.0000       0.334475         9.1015 
 234   0.0000       0.338717         9.2170 
 235   0.0000       0.355949         9.6859 
 236   0.0000       0.358800         9.7634 
 237   0.0000       0.362806         9.8724 
 238   0.0000       0.380657        10.3582 
 239   0.0000       0.392514        10.6808 
 240   0.0000       0.398800        10.8519 
 241   0.0000       0.399345        10.8667 
 242   0.0000       0.407883        11.0991 
 243   0.0000       0.419604        11.4180 
 244   0.0000       0.424780        11.5588 
 245   0.0000       0.428568        11.6619 
 246   0.0000       0.436314        11.8727 
 247   0.0000       0.438272        11.9260 
 248   0.0000       0.442003        12.0275 
 249   0.0000       0.445497        12.1226 
 250   0.0000       0.451051        12.2737 
 251   0.0000       0.456017        12.4089 
 252   0.0000       0.464313        12.6346 
 253   0.0000       0.466954        12.7065 
 254   0.0000       0.470189        12.7945 
 255   0.0000       0.475273        12.9328 
 256   0.0000       0.477334        12.9889 
 257   0.0000       0.484038        13.1713 
 258   0.0000       0.487273        13.2594 
 259   0.0000       0.492725        13.4077 
 260   0.0000       0.502325        13.6689 
 261   0.0000       0.504324        13.7234 
 262   0.0000       0.507736        13.8162 
 263   0.0000       0.508544        13.8382 
 264   0.0000       0.512780        13.9535 
 265   0.0000       0.516574        14.0567 
 266   0.0000       0.521139        14.1809 
 267   0.0000       0.525145        14.2899 
 268   0.0000       0.531323        14.4580 
 269   0.0000       0.541977        14.7479 
 270   0.0000       0.542805        14.7705 
 271   0.0000       0.545300        14.8384 
 272   0.0000       0.548235        14.9182 
 273   0.0000       0.551049        14.9948 
 274   0.0000       0.552721        15.0403 
 275   0.0000       0.559320        15.2199 
 276   0.0000       0.567561        15.4441 
 277   0.0000       0.570781        15.5317 
 278   0.0000       0.578168        15.7328 
 279   0.0000       0.584758        15.9121 
 280   0.0000       0.589248        16.0343 
 281   0.0000       0.593716        16.1558 
 282   0.0000       0.595632        16.2080 
 283   0.0000       0.598345        16.2818 
 284   0.0000       0.601448        16.3662 
 285   0.0000       0.603764        16.4292 
 286   0.0000       0.606518        16.5042 
 287   0.0000       0.608099        16.5472 
 288   0.0000       0.613306        16.6889 
 289   0.0000       0.619458        16.8563 
 290   0.0000       0.625463        17.0197 
 291   0.0000       0.629175        17.1207 
 292   0.0000       0.630063        17.1449 
 293   0.0000       0.635370        17.2893 
 294   0.0000       0.643702        17.5160 
 295   0.0000       0.647144        17.6097 
 296   0.0000       0.654553        17.8113 
 297   0.0000       0.657989        17.9048 
 298   0.0000       0.659487        17.9456 
 299   0.0000       0.663340        18.0504 
 300   0.0000       0.667641        18.1674 
 301   0.0000       0.668608        18.1937 
 302   0.0000       0.672939        18.3116 
 303   0.0000       0.675045        18.3689 
 304   0.0000       0.677248        18.4289 
 305   0.0000       0.679784        18.4979 
 306   0.0000       0.683693        18.6042 
 307   0.0000       0.688400        18.7323 
 308   0.0000       0.690882        18.7999 
 309   0.0000       0.697097        18.9690 
 310   0.0000       0.698818        19.0158 
 311   0.0000       0.700751        19.0684 
 312   0.0000       0.705690        19.2028 
 313   0.0000       0.707580        19.2542 
 314   0.0000       0.714074        19.4309 
 315   0.0000       0.714761        19.4496 
 316   0.0000       0.715961        19.4823 
 317   0.0000       0.717742        19.5308 
 318   0.0000       0.719009        19.5652 
 319   0.0000       0.723332        19.6829 
 320   0.0000       0.725292        19.7362 
 321   0.0000       0.729122        19.8404 
 322   0.0000       0.731312        19.9000 
 323   0.0000       0.735602        20.0167 
 324   0.0000       0.740872        20.1602 
 325   0.0000       0.741786        20.1850 
 326   0.0000       0.746129        20.3032 
 327   0.0000       0.746883        20.3237 
 328   0.0000       0.749593        20.3975 
 329   0.0000       0.756537        20.5864 
 330   0.0000       0.758220        20.6322 
 331   0.0000       0.759637        20.6708 
 332   0.0000       0.761433        20.7196 
 333   0.0000       0.763386        20.7728 
 334   0.0000       0.766552        20.8589 
 335   0.0000       0.767513        20.8851 
 336   0.0000       0.772798        21.0289 
 337   0.0000       0.778586        21.1864 
 338   0.0000       0.780997        21.2520 
 339   0.0000       0.787098        21.4180 
 340   0.0000       0.790001        21.4970 
 341   0.0000       0.792260        21.5585 
 342   0.0000       0.793421        21.5901 
 343   0.0000       0.794412        21.6170 
 344   0.0000       0.796943        21.6859 
 345   0.0000       0.801828        21.8188 
 346   0.0000       0.803043        21.8519 
 347   0.0000       0.806322        21.9411 
 348   0.0000       0.812346        22.1051 
 349   0.0000       0.815657        22.1952 
 350   0.0000       0.816981        22.2312 
 351   0.0000       0.822984        22.3945 
 352   0.0000       0.823580        22.4107 
 353   0.0000       0.826063        22.4783 
 354   0.0000       0.828623        22.5480 
 355   0.0000       0.830236        22.5919 
 356   0.0000       0.831824        22.6351 
 357   0.0000       0.836338        22.7579 
 358   0.0000       0.839073        22.8323 
 359   0.0000       0.839806        22.8523 
 360   0.0000       0.843952        22.9651 
 361   0.0000       0.846588        23.0368 
 362   0.0000       0.848046        23.0765 
 363   0.0000       0.849480        23.1155 
 364   0.0000       0.851698        23.1759 
 365   0.0000       0.854282        23.2462 
 366   0.0000       0.857677        23.3386 
 367   0.0000       0.859255        23.3815 
 368   0.0000       0.864060        23.5123 
 369   0.0000       0.864780        23.5319 
 370   0.0000       0.866475        23.5780 
 371   0.0000       0.869710        23.6660 
 372   0.0000       0.871799        23.7228 
 373   0.0000       0.872497        23.7418 
 374   0.0000       0.873949        23.7813 
 375   0.0000       0.876596        23.8534 
 376   0.0000       0.876906        23.8618 
 377   0.0000       0.880854        23.9693 
 378   0.0000       0.887215        24.1423 
 379   0.0000       0.888857        24.1870 
 380   0.0000       0.890082        24.2204 
 381   0.0000       0.893869        24.3234 
 382   0.0000       0.899764        24.4838 
 383   0.0000       0.903608        24.5884 
 384   0.0000       0.905306        24.6346 
 385   0.0000       0.906954        24.6795 
 386   0.0000       0.908203        24.7135 
 387   0.0000       0.915145        24.9024 
 388   0.0000       0.917418        24.9642 
 389   0.0000       0.918309        24.9885 
 390   0.0000       0.920890        25.0587 
 391   0.0000       0.922914        25.1138 
 392   0.0000       0.927516        25.2390 
 393   0.0000       0.931494        25.3472 
 394   0.0000       0.932454        25.3734 
 395   0.0000       0.933876        25.4120 
 396   0.0000       0.937860        25.5205 
 397   0.0000       0.938192        25.5295 
 398   0.0000       0.939816        25.5737 
 399   0.0000       0.942814        25.6553 
 400   0.0000       0.948668        25.8146 
 401   0.0000       0.949502        25.8373 
 402   0.0000       0.951504        25.8917 
 403   0.0000       0.955752        26.0073 
 404   0.0000       0.957526        26.0556 
 405   0.0000       0.958698        26.0875 
 406   0.0000       0.964233        26.2381 
 407   0.0000       0.966103        26.2890 
 408   0.0000       0.966736        26.3062 
 409   0.0000       0.973935        26.5021 
 410   0.0000       0.978080        26.6149 
 411   0.0000       0.982066        26.7234 
 412   0.0000       0.988363        26.8947 
 413   0.0000       0.994722        27.0678 
 414   0.0000       0.995807        27.0973 
 415   0.0000       0.998396        27.1677 
 416   0.0000       1.002112        27.2689 
 417   0.0000       1.005104        27.3503 
 418   0.0000       1.008297        27.4372 
 419   0.0000       1.017957        27.7000 
 420   0.0000       1.020678        27.7740 
 421   0.0000       1.024278        27.8720 
 422   0.0000       1.033997        28.1365 
 423   0.0000       1.036251        28.1978 
 424   0.0000       1.041173        28.3318 
 425   0.0000       1.044938        28.4342 
 426   0.0000       1.055970        28.7344 
 427   0.0000       1.063758        28.9463 
 428   0.0000       1.071827        29.1659 
 429   0.0000       1.073387        29.2084 
 430   0.0000       1.073581        29.2136 
 431   0.0000       1.080581        29.4041 
 432   0.0000       1.084539        29.5118 
 433   0.0000       1.087543        29.5936 
 434   0.0000       1.093568        29.7575 
 435   0.0000       1.097326        29.8598 
 436   0.0000       1.104544        30.0562 
 437   0.0000       1.111420        30.2433 
 438   0.0000       1.114068        30.3153 
 439   0.0000       1.115370        30.3508 
 440   0.0000       1.117053        30.3966 
 441   0.0000       1.121654        30.5218 
 442   0.0000       1.127386        30.6777 
 443   0.0000       1.129942        30.7473 
 444   0.0000       1.131908        30.8008 
 445   0.0000       1.135090        30.8874 
 446   0.0000       1.140875        31.0448 
 447   0.0000       1.143285        31.1104 
 448   0.0000       1.145528        31.1714 
 449   0.0000       1.148565        31.2540 
 450   0.0000       1.154585        31.4179 
 451   0.0000       1.156788        31.4778 
 452   0.0000       1.158263        31.5180 
 453   0.0000       1.161541        31.6071 
 454   0.0000       1.163897        31.6712 
 455   0.0000       1.166813        31.7506 
 456   0.0000       1.172548        31.9067 
 457   0.0000       1.178054        32.0565 
 458   0.0000       1.184083        32.2205 
 459   0.0000       1.187625        32.3169 
 460   0.0000       1.189923        32.3795 
 461   0.0000       1.193234        32.4695 
 462   0.0000       1.197432        32.5838 
 463   0.0000       1.203183        32.7403 
 464   0.0000       1.207539        32.8588 
 465   0.0000       1.207966        32.8704 
 466   0.0000       1.210732        32.9457 
 467   0.0000       1.212589        32.9962 
 468   0.0000       1.221233        33.2314 
 469   0.0000       1.224576        33.3224 
 470   0.0000       1.227583        33.4042 
 471   0.0000       1.232395        33.5352 
 472   0.0000       1.234490        33.5922 
 473   0.0000       1.236563        33.6486 
 474   0.0000       1.238139        33.6915 
 475   0.0000       1.242554        33.8116 
 476   0.0000       1.246336        33.9145 
 477   0.0000       1.249197        33.9924 
 478   0.0000       1.255249        34.1571 
 479   0.0000       1.256722        34.1971 
 480   0.0000       1.260349        34.2958 
 481   0.0000       1.264191        34.4004 
 482   0.0000       1.265705        34.4416 
 483   0.0000       1.269714        34.5507 
 484   0.0000       1.275138        34.6983 
 485   0.0000       1.279340        34.8126 
 486   0.0000       1.282744        34.9052 
 487   0.0000       1.286322        35.0026 
 488   0.0000       1.289122        35.0788 
 489   0.0000       1.292618        35.1739 
 490   0.0000       1.296254        35.2729 
 491   0.0000       1.299362        35.3574 
 492   0.0000       1.301499        35.4156 
 493   0.0000       1.308405        35.6035 
 494   0.0000       1.311721        35.6937 
 495   0.0000       1.315456        35.7954 
 496   0.0000       1.318215        35.8705 
 497   0.0000       1.322971        35.9999 
 498   0.0000       1.327286        36.1173 
 499   0.0000       1.328283        36.1444 
 500   0.0000       1.332561        36.2608 
 501   0.0000       1.338325        36.4177 
 502   0.0000       1.341331        36.4995 
[...]
      pz      :     0.021765  p :     0.079269
      px      :     0.042849
      py      :     0.014655
 77 H s       :     0.895595  s :     0.895595
      pz      :     0.047119  p :     0.078337
      px      :     0.015003
      py      :     0.016215
 78 H s       :     0.895991  s :     0.895991
      pz      :     0.025445  p :     0.078250
      px      :     0.020707
      py      :     0.032098
 79 H s       :     0.907249  s :     0.907249
      pz      :     0.022617  p :     0.087272
      px      :     0.021900
      py      :     0.042755
 80 H s       :     0.879765  s :     0.879765
      pz      :     0.038152  p :     0.083178
      px      :     0.029478
      py      :     0.015549
 81 H s       :     0.888853  s :     0.888853
      pz      :     0.037543  p :     0.083302
      px      :     0.016084
      py      :     0.029676
 82 H s       :     0.914139  s :     0.914139
      pz      :     0.022480  p :     0.087151
      px      :     0.030923
      py      :     0.033747
 83 H s       :     0.872332  s :     0.872332
      pz      :     0.039168  p :     0.083629
      px      :     0.015247
      py      :     0.029214
 84 H s       :     0.888828  s :     0.888828
      pz      :     0.035805  p :     0.084441
      px      :     0.031803
      py      :     0.016832
 85 H s       :     0.896147  s :     0.896147
      pz      :     0.022507  p :     0.079603
      px      :     0.014158
      py      :     0.042937
 86 H s       :     0.890831  s :     0.890831
      pz      :     0.024697  p :     0.078885
      px      :     0.032987
      py      :     0.021201
 87 H s       :     0.891403  s :     0.891403
      pz      :     0.047797  p :     0.078579
      px      :     0.015658
      py      :     0.015123
 88 H s       :     0.918168  s :     0.918168
      pz      :     0.022505  p :     0.086823
      px      :     0.041991
      py      :     0.022327
 89 H s       :     0.875555  s :     0.875555
      pz      :     0.037787  p :     0.084012
      px      :     0.030451
      py      :     0.015774


                      *****************************
                      * MAYER POPULATION ANALYSIS *
                      *****************************

  NA   - Mulliken gross atomic population
  ZA   - Total nuclear charge
  QA   - Mulliken gross atomic charge
  VA   - Mayer's total valence
  BVA  - Mayer's bonded valence
  FA   - Mayer's free valence

  ATOM       NA         ZA         QA         VA         BVA        FA
  0 C      5.7658     6.0000     0.2342     3.8031     3.8031     0.0000
  1 N      7.4158     7.0000    -0.4158     3.4682     3.4682    -0.0000
  2 C      6.0664     6.0000    -0.0664     3.9204     3.9204    -0.0000
  3 N      7.3429     7.0000    -0.3429     3.4232     3.4232     0.0000
  4 C      6.0684     6.0000    -0.0684     3.9592     3.9592     0.0000
  5 N      7.5659     7.0000    -0.5659     3.0679     3.0679    -0.0000
  6 C      6.0295     6.0000    -0.0295     3.9633     3.9633     0.0000
  7 N      7.3368     7.0000    -0.3368     3.4458     3.4458     0.0000
  8 C      5.7674     6.0000     0.2326     3.8044     3.8044     0.0000
  9 N      7.5663     7.0000    -0.5663     3.0915     3.0915    -0.0000
 10 C      5.8960     6.0000     0.1040     3.8623     3.8623     0.0000
 11 N      7.4395     7.0000    -0.4395     3.3744     3.3744    -0.0000
 12 C      6.0595     6.0000    -0.0595     3.9092     3.9092     0.0000
 13 N      7.4507     7.0000    -0.4507     3.3199     3.3199     0.0000
 14 C      5.7775     6.0000     0.2225     3.8086     3.8086     0.0000
 15 N      7.4417     7.0000    -0.4417     3.3628     3.3628     0.0000
 16 C      5.7450     6.0000     0.2550     3.8058     3.8058    -0.0000
 17 C      6.0337     6.0000    -0.0337     3.9648     3.9648     0.0000
 18 C      6.1821     6.0000    -0.1821     3.6823     3.6823    -0.0000
 19 C      5.7665     6.0000     0.2335     3.8974     3.8974    -0.0000
 20 C      5.8105     6.0000     0.1895     3.8211     3.8211     0.0000
 21 C      6.0701     6.0000    -0.0701     3.8927     3.8927     0.0000
 22 C      6.0904     6.0000    -0.0904     3.9853     3.9853    -0.0000
 23 C      6.0664     6.0000    -0.0664     3.9882     3.9882    -0.0000
 24 C      5.7829     6.0000     0.2171     3.8297     3.8297    -0.0000
 25 C      5.8852     6.0000     0.1148     3.8933     3.8933     0.0000
 26 C      6.0660     6.0000    -0.0660     3.9098     3.9098     0.0000
 27 C      5.7533     6.0000     0.2467     3.9028     3.9028    -0.0000
 28 C      6.0403     6.0000    -0.0403     3.9901     3.9901    -0.0000
 29 C      6.1966     6.0000    -0.1966     3.7271     3.7271    -0.0000
 30 C      5.7787     6.0000     0.2213     3.7796     3.7796     0.0000
 31 C      5.8115     6.0000     0.1885     3.8335     3.8335     0.0000
 32 C      6.0652     6.0000    -0.0652     3.9128     3.9128     0.0000
 33 C      6.1019     6.0000    -0.1019     3.9847     3.9847    -0.0000
 34 C      6.0507     6.0000    -0.0507     3.9993     3.9993     0.0000
 35 C      5.8206     6.0000     0.1794     3.8299     3.8299     0.0000
 36 C      5.8792     6.0000     0.1208     3.9099     3.9099    -0.0000
 37 C      6.0706     6.0000    -0.0706     3.9140     3.9140     0.0000
 38 C      5.7560     6.0000     0.2440     3.7944     3.7944     0.0000
 39 C      6.0650     6.0000    -0.0650     3.9987     3.9987    -0.0000
 40 C      6.2040     6.0000    -0.2040     3.7522     3.7522    -0.0000
 41 C      5.7832     6.0000     0.2168     3.8744     3.8744    -0.0000
 42 C      5.7885     6.0000     0.2115     3.8327     3.8327    -0.0000
 43 C      6.0771     6.0000    -0.0771     3.9050     3.9050    -0.0000
 44 C      6.0924     6.0000    -0.0924     3.9831     3.9831    -0.0000
 45 C      6.0388     6.0000    -0.0388     3.9964     3.9964    -0.0000
 46 C      5.8155     6.0000     0.1845     3.8203     3.8203     0.0000
 47 C      5.8832     6.0000     0.1168     3.8972     3.8972    -0.0000
 48 C      6.0814     6.0000    -0.0814     3.8980     3.8980    -0.0000
 49 C      5.7912     6.0000     0.2088     3.8636     3.8636    -0.0000
 50 C      6.0670     6.0000    -0.0670     3.9903     3.9903    -0.0000
 51 C      6.1889     6.0000    -0.1889     3.7423     3.7423    -0.0000
 52 H      0.9193     1.0000     0.0807     0.9823     0.9823     0.0000
 53 H      1.0072     1.0000    -0.0072     1.0023     1.0023    -0.0000
 54 H      0.9342     1.0000     0.0658     1.0048     1.0048     0.0000
 55 H      0.9212     1.0000     0.0788     0.9831     0.9831    -0.0000
 56 H      0.9167     1.0000     0.0833     0.9726     0.9726    -0.0000
 57 H      0.9249     1.0000     0.0751     0.9849     0.9849     0.0000
 58 H      0.9264     1.0000     0.0736     0.9867     0.9867     0.0000
 59 H      1.0283     1.0000    -0.0283     0.9962     0.9962     0.0000
 60 H      0.9336     1.0000     0.0664     1.0058     1.0058     0.0000
 61 H      0.8230     1.0000     0.1770     1.0437     1.0437     0.0000
 62 H      0.8321     1.0000     0.1679     1.0433     1.0433    -0.0000
 63 H      0.9470     1.0000     0.0530     0.9862     0.9862    -0.0000
 64 H      1.0333     1.0000    -0.0333     0.9927     0.9927     0.0000
 65 H      0.9587     1.0000     0.0413     1.0077     1.0077     0.0000
 66 H      0.9448     1.0000     0.0552     0.9847     0.9847     0.0000
 67 H      0.9415     1.0000     0.0585     0.9716     0.9716     0.0000
 68 H      0.9438     1.0000     0.0562     0.9864     0.9864    -0.0000
 69 H      0.9409     1.0000     0.0591     0.9830     0.9830    -0.0000
 70 H      1.0141     1.0000    -0.0141     0.9980     0.9980    -0.0000
 71 H      0.9532     1.0000     0.0468     1.0076     1.0076    -0.0000
 72 H      0.9620     1.0000     0.0380     0.9860     0.9860    -0.0000
 73 H      1.0195     1.0000    -0.0195     0.9962     0.9962     0.0000
 74 H      0.9701     1.0000     0.0299     1.0091     1.0091    -0.0000
 75 H      0.9633     1.0000     0.0367     0.9867     0.9867    -0.0000
 76 H      0.9533     1.0000     0.0467     0.9702     0.9702    -0.0000
 77 H      0.9536     1.0000     0.0464     0.9842     0.9842     0.0000
 78 H      0.9544     1.0000     0.0456     0.9835     0.9835     0.0000
 79 H      1.0119     1.0000    -0.0119     1.0018     1.0018     0.0000
 80 H      0.9703     1.0000     0.0297     1.0063     1.0063    -0.0000
 81 H      0.9499     1.0000     0.0501     0.9853     0.9853     0.0000
 82 H      1.0229     1.0000    -0.0229     0.9952     0.9952    -0.0000
 83 H      0.9574     1.0000     0.0426     1.0107     1.0107     0.0000
 84 H      0.9508     1.0000     0.0492     0.9864     0.9864     0.0000
 85 H      0.9458     1.0000     0.0542     0.9713     0.9713    -0.0000
 86 H      0.9438     1.0000     0.0562     0.9841     0.9841     0.0000
 87 H      0.9457     1.0000     0.0543     0.9852     0.9852     0.0000
 88 H      1.0299     1.0000    -0.0299     0.9912     0.9912    -0.0000
 89 H      0.9614     1.0000     0.0386     1.0060     1.0060    -0.0000

  Mayer bond orders larger than 0.100000
B(  0-C ,  1-N ) :   1.1961 B(  0-C , 17-C ) :   1.5281 B(  0-C , 52-H ) :   0.9671 
B(  1-N ,  8-C ) :   1.1920 B(  1-N , 10-C ) :   0.9292 B(  2-C , 12-C ) :   1.5747 
B(  2-C , 16-C ) :   1.2795 B(  2-C , 53-H ) :   0.9792 B(  3-N , 14-C ) :   1.1771 
B(  3-N , 16-C ) :   1.2028 B(  3-N , 61-H ) :   0.8954 B(  4-C ,  6-C ) :   1.3452 
B(  4-C , 17-C ) :   1.3537 B(  4-C , 18-C ) :   1.0744 B(  5-N , 19-C ) :   1.3691 
B(  5-N , 27-C ) :   1.4449 B(  6-C ,  8-C ) :   1.5350 B(  6-C , 54-H ) :   0.9709 
B(  7-N , 30-C ) :   1.1852 B(  7-N , 38-C ) :   1.2144 B(  7-N , 62-H ) :   0.9012 
B(  8-C , 55-H ) :   0.9677 B(  9-N , 41-C ) :   1.4333 B(  9-N , 49-C ) :   1.3938 
B( 10-C , 56-H ) :   0.9766 B( 10-C , 57-H ) :   0.9808 B( 10-C , 58-H ) :   0.9818 
B( 11-N , 20-C ) :   1.1003 B( 11-N , 24-C ) :   1.1346 B( 11-N , 25-C ) :   0.9615 
B( 12-C , 14-C ) :   1.2796 B( 12-C , 59-H ) :   0.9768 B( 13-N , 31-C ) :   1.0849 
B( 13-N , 35-C ) :   1.0752 B( 13-N , 36-C ) :   0.9807 B( 14-C , 18-C ) :   1.2545 
B( 15-N , 42-C ) :   1.1251 B( 15-N , 46-C ) :   1.0908 B( 15-N , 47-C ) :   0.9662 
B( 16-C , 51-C ) :   1.2406 B( 17-C , 60-H ) :   0.9708 B( 18-C , 19-C ) :   1.3033 
B( 19-C , 21-C ) :   1.1657 B( 20-C , 28-C ) :   1.6275 B( 20-C , 63-H ) :   0.9708 
B( 21-C , 26-C ) :   1.6800 B( 21-C , 64-H ) :   0.9717 B( 22-C , 23-C ) :   1.2589 
B( 22-C , 28-C ) :   1.2802 B( 22-C , 29-C ) :   1.2539 B( 23-C , 24-C ) :   1.6323 
B( 23-C , 65-H ) :   0.9721 B( 24-C , 66-H ) :   0.9690 B( 25-C , 67-H ) :   0.9763 
B( 25-C , 68-H ) :   0.9833 B( 25-C , 69-H ) :   0.9819 B( 26-C , 27-C ) :   1.1747 
B( 26-C , 70-H ) :   0.9755 B( 27-C , 29-C ) :   1.2426 B( 28-C , 71-H ) :   0.9709 
B( 29-C , 30-C ) :   1.1765 B( 30-C , 32-C ) :   1.3494 B( 31-C , 39-C ) :   1.6807 
B( 31-C , 72-H ) :   0.9708 B( 32-C , 37-C ) :   1.5102 B( 32-C , 73-H ) :   0.9771 
B( 33-C , 34-C ) :   1.2355 B( 33-C , 39-C ) :   1.2281 B( 33-C , 40-C ) :   1.3496 
B( 34-C , 35-C ) :   1.6791 B( 34-C , 74-H ) :   0.9709 B( 35-C , 75-H ) :   0.9708 
B( 36-C , 76-H ) :   0.9756 B( 36-C , 77-H ) :   0.9825 B( 36-C , 78-H ) :   0.9837 
B( 37-C , 38-C ) :   1.3441 B( 37-C , 79-H ) :   0.9791 B( 38-C , 40-C ) :   1.1795 
B( 39-C , 80-H ) :   0.9721 B( 40-C , 41-C ) :   1.1729 B( 41-C , 43-C ) :   1.2518 
B( 42-C , 50-C ) :   1.6419 B( 42-C , 81-H ) :   0.9697 B( 43-C , 48-C ) :   1.5993 
B( 43-C , 82-H ) :   0.9755 B( 44-C , 45-C ) :   1.2801 B( 44-C , 50-C ) :   1.2500 
B( 44-C , 51-C ) :   1.2484 B( 45-C , 46-C ) :   1.6333 B( 45-C , 83-H ) :   0.9703 
B( 46-C , 84-H ) :   0.9709 B( 47-C , 85-H ) :   0.9760 B( 47-C , 86-H ) :   0.9826 
B( 47-C , 87-H ) :   0.9830 B( 48-C , 49-C ) :   1.2465 B( 48-C , 88-H ) :   0.9727 
B( 49-C , 51-C ) :   1.1942 B( 50-C , 89-H ) :   0.9722 

-------
TIMINGS
-------

Total SCF time: 0 days 0 hours 32 min 10 sec 

Total time                  ....    1930.858 sec
Sum of individual times     ....    1925.948 sec  ( 99.7%)

Fock matrix formation       ....    1897.425 sec  ( 98.3%)
Diagonalization             ....       7.329 sec  (  0.4%)
Density matrix formation    ....       0.597 sec  (  0.0%)
Population analysis         ....       0.586 sec  (  0.0%)
Initial guess               ....       2.515 sec  (  0.1%)
Orbital Transformation      ....       0.000 sec  (  0.0%)
Orbital Orthonormalization  ....       0.000 sec  (  0.0%)
DIIS solution               ....       3.252 sec  (  0.2%)
SOSCF solution              ....      12.944 sec  (  0.7%)

Maximum memory used throughout the entire SCF-calculation: 302.6 MB


           ************************************************************
           *        Program running with 16 parallel MPI-processes    *
           *              working on a common directory               *
           ************************************************************

------------------------------------------------------------------------------
                                ORCA  MP2 
------------------------------------------------------------------------------

Freezing NCore=104 chemical core electrons

----------
MP2 ENERGY (disk based algorithm)
----------

Dimension of the basis                    ...  918
Memory devoted to MP2                     ... 2000 MB   
Data format for buffers                   ... DOUBLE
Compression type for matrix containers    ... UNCOMPRESSED

-------------------------------
PARTIAL EXCHANGE TRANSFORMATION
-------------------------------

Transformation type                        ... one-operator
Generation of integrals (i,mue|j,nue)      ... ON
Generation of integrals (mue,kappa|nue,tau)... OFF
Generation of integrals (i,mue|a,nue)      ... OFF
Dimension of the basis                     ...  918
Number of internal MOs                     ...  127 (  52- 178)
Pair cutoff                                ... 2.500e-12 Eh
Number of AO pairs in the trafo            ... 421821
Total Number of distinct AO pairs          ... 421821
Memory devoted for trafo                   ... 2000.0 MB 
Max. Number of MO pairs treated together   ...  311      
Number Format for Storage                  ... Double (8 Byte)
Integral package used                      ... LIBINT

Starting integral evaluation:
    ... done with AO integral generation
Closing buffer AOK     (37.86 GB; CompressionRatio= 1.34)
Collecting buffer AOK 
Number of MO pairs included in the trafo   ... 8128
------------------------
SORTING OF (i,mue|j,nue)
------------------------

IBATCH = 1 of  2
IBATCH = 2 of  2
Closing buffer KAO     (51.03 GB; CompressionRatio= 1.00)
Collecting buffer KAO 
N(AO-Batches) Done                         ...  85577825 
N(AO-Batches) Skipped                      ...  82009523 
N(IJ)-pairs Skipped                        ...         0 
TOTAL TIME for half transformation         ...  2834.845 sec
AO-integral generation                     ...   209.618 sec
Half transformation                        ...   422.846 sec
K-integral sorting                         ...  1981.928 sec

Finished integral transformation - now doing MP2 part

OPERATOR COMBINATION   0   0: ij=( 52..178, 52..178)
Process 13:   Internal MO 156
Process 10:   Internal MO 132
Process  1:   Internal MO  60
Process  7:   Internal MO 108
Process  4:   Internal MO  84
Process  0:   Internal MO  54
Process  0:   Internal MO  57
Process  2:   Internal MO  69
Process  1:   Internal MO  63
Process  5:   Internal MO  93
Process  3:   Internal MO  78
Process  1:   Internal MO  66
Process  2:   Internal MO  72
Process 11:   Internal MO 141
Process  4:   Internal MO  87
Process  6:   Internal MO 102
Process 14:   Internal MO 165
Process  8:   Internal MO 117
Process  2:   Internal MO  75
Process  7:   Internal MO 111
Process 12:   Internal MO 150
Process  9:   Internal MO 126
Process  4:   Internal MO  90
Process 15:   Internal MO 174
Process  3:   Internal MO  81
Process 10:   Internal MO 135
Process  6:   Internal MO 105
Process  5:   Internal MO  96
Process  8:   Internal MO 120
Process  7:   Internal MO 114
Process 11:   Internal MO 144
Process  5:   Internal MO  99
Process  9:   Internal MO 129
Process 12:   Internal MO 153
Process 14:   Internal MO 168
Process 10:   Internal MO 138
Process 13:   Internal MO 159
Process  8:   Internal MO 123
Process 15:   Internal MO 177
Process 11:   Internal MO 147
Process 14:   Internal MO 171
Process 13:   Internal MO 162
-----------------------------------------------
 MP2 CORRELATION ENERGY   :     -7.266517190 Eh
-----------------------------------------------


-------
TIMINGS
-------
Total time                : 3142.011 sec
Integral trafo            : 2838.218 sec ( 90.3%)
K(i,j)                    :    5.662 sec (  0.2%)
T(i,j)                    :    0.082 sec (  0.0%)

---------------------------------------
MP2 TOTAL ENERGY:    -2130.877774025 Eh
---------------------------------------

Maximum memory used throughout the entire MP2-calculation: 2275.2 MB

-------------------------   --------------------
FINAL SINGLE POINT ENERGY     -2130.877774024570
-------------------------   --------------------


                            ***************************************
                            *     ORCA property calculations      *
                            ***************************************


  WARNING: The energy has been calculated at the MP2 level but the densities
           used in the property calculations are still SCF densities
           MP2 response densities have not been calculated 
           use %mp2 Density relaxed end
           or  %mp2 Density unrelaxed end

                                    ---------------------
                                    Active property flags
                                    ---------------------
   (+) Dipole Moment


------------------------------------------------------------------------------
                       ORCA ELECTRIC PROPERTIES CALCULATION
------------------------------------------------------------------------------

Dipole Moment Calculation                       ... on
Quadrupole Moment Calculation                   ... off
Polarizability Calculation                      ... off
GBWName                                         ... /scratch/allen/tmpyp4_amber_gaff2/conf1/conf1/Conf261.orca.gbw
Electron density                                ... /scratch/allen/tmpyp4_amber_gaff2/conf1/conf1/Conf261.orca.scfp
The origin for moment calculation is the CENTER OF MASS  = ( 0.000704, -0.003551 -0.001695)

-------------
DIPOLE MOMENT
-------------
                                X             Y             Z
Electronic contribution:     -4.29772       4.66913      -0.07475
Nuclear contribution   :      0.06364       0.23197       0.09858
                        -----------------------------------------
Total Dipole Moment    :     -4.23408       4.90110       0.02383
                        -----------------------------------------
Magnitude (a.u.)       :      6.47679
Magnitude (Debye)      :     16.46268



--------------------
Rotational spectrum 
--------------------
 
Rotational constants in cm-1:     0.001498     0.001472     0.000763 
Rotational constants in MHz :    44.911166    44.139649    22.865244 

 Dipole components along the rotational axes: 
x,y,z [a.u.] :    -5.774809     2.932531     0.024620 
x,y,z [Debye]:   -14.678399     7.453901     0.062580 

 

Timings for individual modules:

Sum of individual times         ...     5097.777 sec (=  84.963 min)
GTO integral calculation        ...        3.479 sec (=   0.058 min)   0.1 %
SCF iterations                  ...     1932.108 sec (=  32.202 min)  37.9 %
MP2 module                      ...     3162.190 sec (=  52.703 min)  62.0 %
                             ****ORCA TERMINATED NORMALLY****
TOTAL RUN TIME: 0 days 1 hours 25 minutes 1 seconds 451 msec
# of primitive gaussian functions

