
                                 *****************
                                 * O   R   C   A *
                                 *****************

                                            #,                                       
                                            ###                                      
                                            ####                                     
                                            #####                                    
                                            ######                                   
                                           ########,                                 
                                     ,,################,,,,,                         
                               ,,#################################,,                 
                          ,,##########################################,,             
                       ,#########################################, ''#####,          
                    ,#############################################,,   '####,        
                  ,##################################################,,,,####,       
                ,###########''''           ''''###############################       
              ,#####''   ,,,,##########,,,,          '''####'''          '####       
            ,##' ,,,,###########################,,,                        '##       
           ' ,,###''''                  '''############,,,                           
         ,,##''                                '''############,,,,        ,,,,,,###''
      ,#''                                            '''#######################'''  
     '                                                          ''''####''''         
             ,#######,   #######,   ,#######,      ##                                
            ,#'     '#,  ##    ##  ,#'     '#,    #''#        ######   ,####,        
            ##       ##  ##   ,#'  ##            #'  '#       #        #'  '#        
            ##       ##  #######   ##           ,######,      #####,   #    #        
            '#,     ,#'  ##    ##  '#,     ,#' ,#      #,         ##   #,  ,#        
             '#######'   ##     ##  '#######'  #'      '#     #####' # '####'        



                  #######################################################
                  #                        -***-                        #
                  #          Department of theory and spectroscopy      #
                  #    Directorship and core code : Frank Neese         #
                  #        Max Planck Institute fuer Kohlenforschung    #
                  #                Kaiser Wilhelm Platz 1               #
                  #                 D-45470 Muelheim/Ruhr               #
                  #                      Germany                        #
                  #                                                     #
                  #                  All rights reserved                #
                  #                        -***-                        #
                  #######################################################


                         Program Version 5.0.4 -  RELEASE  -


 With contributions from (in alphabetic order):
   Daniel Aravena         : Magnetic Suceptibility
   Michael Atanasov       : Ab Initio Ligand Field Theory (pilot matlab implementation)
   Alexander A. Auer      : GIAO ZORA, VPT2 properties, NMR spectrum
   Ute Becker             : Parallelization
   Giovanni Bistoni       : ED, misc. LED, open-shell LED, HFLD
   Martin Brehm           : Molecular dynamics
   Dmytro Bykov           : SCF Hessian
   Vijay G. Chilkuri      : MRCI spin determinant printing, contributions to CSF-ICE
   Dipayan Datta          : RHF DLPNO-CCSD density
   Achintya Kumar Dutta   : EOM-CC, STEOM-CC
   Dmitry Ganyushin       : Spin-Orbit,Spin-Spin,Magnetic field MRCI
   Miquel Garcia          : C-PCM and meta-GGA Hessian, CC/C-PCM, Gaussian charge scheme
   Yang Guo               : DLPNO-NEVPT2, F12-NEVPT2, CIM, IAO-localization
   Andreas Hansen         : Spin unrestricted coupled pair/coupled cluster methods
   Benjamin Helmich-Paris : MC-RPA, TRAH-SCF, COSX integrals
   Lee Huntington         : MR-EOM, pCC
   Robert Izsak           : Overlap fitted RIJCOSX, COSX-SCS-MP3, EOM
   Marcus Kettner         : VPT2
   Christian Kollmar      : KDIIS, OOCD, Brueckner-CCSD(T), CCSD density, CASPT2, CASPT2-K
   Simone Kossmann        : Meta GGA functionals, TD-DFT gradient, OOMP2, MP2 Hessian
   Martin Krupicka        : Initial AUTO-CI
   Lucas Lang             : DCDCAS
   Marvin Lechner         : AUTO-CI (C++ implementation), FIC-MRCC
   Dagmar Lenk            : GEPOL surface, SMD
   Dimitrios Liakos       : Extrapolation schemes; Compound Job, initial MDCI parallelization
   Dimitrios Manganas     : Further ROCIS development; embedding schemes
   Dimitrios Pantazis     : SARC Basis sets
   Anastasios Papadopoulos: AUTO-CI, single reference methods and gradients
   Taras Petrenko         : DFT Hessian,TD-DFT gradient, ASA, ECA, R-Raman, ABS, FL, XAS/XES, NRVS
   Peter Pinski           : DLPNO-MP2, DLPNO-MP2 Gradient
   Christoph Reimann      : Effective Core Potentials
   Marius Retegan         : Local ZFS, SOC
   Christoph Riplinger    : Optimizer, TS searches, QM/MM, DLPNO-CCSD(T), (RO)-DLPNO pert. Triples
   Tobias Risthaus        : Range-separated hybrids, TD-DFT gradient, RPA, STAB
   Michael Roemelt        : Original ROCIS implementation
   Masaaki Saitow         : Open-shell DLPNO-CCSD energy and density
   Barbara Sandhoefer     : DKH picture change effects
   Avijit Sen             : IP-ROCIS
   Kantharuban Sivalingam : CASSCF convergence, NEVPT2, FIC-MRCI
   Bernardo de Souza      : ESD, SOC TD-DFT
   Georgi Stoychev        : AutoAux, RI-MP2 NMR, DLPNO-MP2 response
   Willem Van den Heuvel  : Paramagnetic NMR
   Boris Wezisla          : Elementary symmetry handling
   Frank Wennmohs         : Technical directorship


 We gratefully acknowledge several colleagues who have allowed us to
 interface, adapt or use parts of their codes:
   Stefan Grimme, W. Hujo, H. Kruse, P. Pracht,  : VdW corrections, initial TS optimization,
                  C. Bannwarth, S. Ehlert          DFT functionals, gCP, sTDA/sTD-DF
   Ed Valeev, F. Pavosevic, A. Kumar             : LibInt (2-el integral package), F12 methods
   Garnet Chan, S. Sharma, J. Yang, R. Olivares  : DMRG
   Ulf Ekstrom                                   : XCFun DFT Library
   Mihaly Kallay                                 : mrcc  (arbitrary order and MRCC methods)
   Jiri Pittner, Ondrej Demel                    : Mk-CCSD
   Frank Weinhold                                : gennbo (NPA and NBO analysis)
   Christopher J. Cramer and Donald G. Truhlar   : smd solvation model
   Lars Goerigk                                  : TD-DFT with DH, B97 family of functionals
   V. Asgeirsson, H. Jonsson                     : NEB implementation
   FAccTs GmbH                                   : IRC, NEB, NEB-TS, DLPNO-Multilevel, CI-OPT
                                                   MM, QMMM, 2- and 3-layer-ONIOM, Crystal-QMMM,
                                                   LR-CPCM, SF, NACMEs, symmetry and pop. for TD-DFT,
                                                   nearIR, NL-DFT gradient (VV10), updates on ESD,
                                                   ML-optimized integration grids
   S Lehtola, MJT Oliveira, MAL Marques          : LibXC Library
   Liviu Ungur et al                             : ANISO software


 Your calculation uses the libint2 library for the computation of 2-el integrals
 For citations please refer to: http://libint.valeyev.net

 Your ORCA version has been built with support for libXC version: 5.1.0
 For citations please refer to: https://tddft.org/programs/libxc/

 This ORCA versions uses:
   CBLAS   interface :  Fast vector & matrix operations
   LAPACKE interface :  Fast linear algebra routines
   SCALAPACK package :  Parallel linear algebra routines
   Shared memory     :  Shared parallel matrices
   BLAS/LAPACK       :  OpenBLAS 0.3.15  USE64BITINT DYNAMIC_ARCH NO_AFFINITY Sandybridge SINGLE_THREADED
        Core in use  :  Sandybridge
   Copyright (c) 2011-2014, The OpenBLAS Project


================================================================================

----- Orbital basis set information -----
Your calculation utilizes the basis: cc-pVDZ 
       H, B-Ne : Obtained from the ccRepo (grant-hill.group.shef.ac.uk/ccrepo) Feb. 2017
                 T. H. Dunning, Jr., J. Chem. Phys. 90, 1007 (1989)
            He : Obtained from the ccRepo (grant-hill.group.shef.ac.uk/ccrepo) Feb. 2017
                 D. E. Woon, T. H. Dunning, Jr., J. Chem. Phys. 100, 2975 (1994)
  Li-Be, Na-Mg : Obtained from the ccRepo (grant-hill.group.shef.ac.uk/ccrepo) Feb. 2017
                 B. P. Prascher, D. E. Woon, K. A. Peterson, T. H. Dunning, Jr., A. K. Wilson, Theor. Chem. Acc. 128, 69 (2011)
         Al-Ar : Obtained from the ccRepo (grant-hill.group.shef.ac.uk/ccrepo) Feb. 2017
                 D. E. Woon, T. H. Dunning, Jr., J. Chem. Phys. 98, 1358 (1993)
            Ca : Obtained from the Peterson Research Group Website (tyr0.chem.wsu.edu/~kipeters) Feb. 2017
                 J. Koput, K. A. Peterson, J. Phys. Chem. 106, 9595 (2002)
         Sc-Zn : Obtained from the ccRepo (grant-hill.group.shef.ac.uk/ccrepo) Feb. 2017
                 N. B. Balabanov, K. A. Peterson, J. Chem. Phys. 123, 064107 (2005)
                 N. B. Balabanov, K. A. Peterson, J. Chem. Phys. 125, 074110 (2006)
         Ga-Kr : Obtained from the ccRepo (grant-hill.group.shef.ac.uk/ccrepo) Feb. 2017
                 A. K. Wilson, D. E. Woon, K. A. Peterson, T. H. Dunning, Jr., J. Chem. Phys. 110, 7667 (1999)

================================================================================
                                        WARNINGS
                       Please study these warnings very carefully!
================================================================================


WARNING: No MP2 level density has been requested!
         To caclulate MP2 level properties use
         %mp2 Density relaxed end
         or
         %mp2 Density unrelaxed end

WARNING: Post HF methods need fully converged wavefunctions
  ===> : Setting SCFConvForced true
         You can overwrite this default with %scf ConvForced false 


INFO   : the flag for use of the SHARK integral package has been found!

================================================================================
                                       INPUT FILE
================================================================================
NAME = /scratch/allen/tmpyp4_amber_gaff2/2.Mdgx/conf11/conf11/Conf343.orca
|  1> ! PAL2
|  2> ! mp2 cc-pvdz TightSCF  NoKeepInts
|  3> 
|  4> %scf
|  5>   MaxCore 2000
|  6> end
|  7> %mp2
|  8>   MaxCore 2000
|  9> end
| 10> * xyz 0 1
| 11>    C       -3.08500         6.45200         0.47100
| 12>    C        1.47400         4.04100         0.05700
| 13>    C       -2.80200         4.09300         0.04900
| 14>    C       -4.15500         4.05000        -0.32300
| 15>    C       -4.92000         5.19800        -0.28900
| 16>    C       -5.22200         7.59600         0.09600
| 17>    C        0.13200         4.30700         0.06100
| 18>    C       -0.56900         3.05600         0.04700
| 19>    C        1.64900         2.61800         0.02300
| 20>    C       -2.27700         5.33200         0.44800
| 21>    N       -4.38500         6.37600         0.10700
| 22>    N        0.38800         2.06700         0.02500
| 23>    N       -2.01000         0.39500        -0.07500
| 24>    N       -0.38800        -2.07400        -0.02700
| 25>    N        2.01000        -0.40100         0.06500
| 26>    C       -1.96000         2.86100         0.02400
| 27>    C       -2.62300         1.61500        -0.01800
| 28>    C       -5.57300        -4.32900         1.06600
| 29>    C       -4.07300         1.47100         0.05600
| 30>    C       -4.10600        -2.75600        -0.02600
| 31>    C       -4.99500        -2.75700        -1.11100
| 32>    C       -6.13200        -3.54200        -1.07600
| 33>    C       -7.65100        -5.11300         0.04000
| 34>    C       -4.32400         0.14100         0.03700
| 35>    C       -3.02500        -0.52000        -0.04800
| 36>    C       -4.42200        -3.56600         1.07500
| 37>    N       -6.40700        -4.31300         0.00100
| 38>    C       -2.86700        -1.92200        -0.04000
| 39>    C       -1.65000        -2.62400        -0.02700
| 40>    C        3.56800        -6.14200        -1.04000
| 41>    C       -1.47600        -4.04900        -0.03400
| 42>    C        2.80300        -4.09900        -0.00800
| 43>    C        3.65700        -4.38400         1.06900
| 44>    C        4.42700        -5.53000         1.05900
| 45>    C        5.24500        -7.58800         0.01400
| 46>    C       -0.13400        -4.31500        -0.02200
| 47>    C        0.56800        -3.06400        -0.02700
| 48>    C        2.77500        -5.01200        -1.07400
| 49>    N        4.37600        -6.39100         0.01700
| 50>    C        1.95900        -2.86900        -0.00900
| 51>    C        2.62100        -1.62200         0.00900
| 52>    C        5.54300         4.33900        -1.13000
| 53>    C        4.07000        -1.47900        -0.09400
| 54>    C        4.10400         2.75100        -0.02100
| 55>    C        5.02700         2.72900         1.03600
| 56>    C        6.16600         3.50900         0.97800
| 57>    C        7.61900         5.15300        -0.11500
| 58>    C        4.32100        -0.14800        -0.09200
| 59>    C        3.02500         0.51400         0.01500
| 60>    C        4.38700         3.58200        -1.11500
| 61>    C        2.86600         1.91600         0.01300
| 62>    N        6.41300         4.29600        -0.09500
| 63>    H       -2.72500         7.42500         0.78300
| 64>    H        2.27400         4.76600         0.08100
| 65>    H       -4.61500         3.12500        -0.64900
| 66>    H       -5.96400         5.21500        -0.57400
| 67>    H       -5.19400         8.03800        -0.90300
| 68>    H       -6.24400         7.32300         0.35600
| 69>    H       -4.82600         8.30000         0.82800
| 70>    H       -0.33200         5.28200         0.06900
| 71>    H       -1.24300         5.42800         0.76000
| 72>    H        0.18200         1.07200         0.00500
| 73>    H       -0.18300        -1.08000        -0.02100
| 74>    H       -5.86400        -4.96200         1.89500
| 75>    H       -4.79400         2.27200         0.13900
| 76>    H       -4.80000        -2.16000        -1.99400
| 77>    H       -6.84100        -3.58200        -1.89300
| 78>    H       -8.42800        -4.53600         0.54600
| 79>    H       -7.95600        -5.33700        -0.98100
| 80>    H       -7.45600        -6.03700         0.58400
| 81>    H       -5.28700        -0.34400         0.10000
| 82>    H       -3.78000        -3.60100         1.94700
| 83>    H        3.58700        -6.86800        -1.84300
| 84>    H       -2.27600        -4.77400        -0.05000
| 85>    H        3.71400        -3.72400         1.92600
| 86>    H        5.09200        -5.79500         1.87100
| 87>    H        6.20500        -7.32900        -0.43900
| 88>    H        5.39300        -7.91700         1.04200
| 89>    H        4.75900        -8.37300        -0.56400
| 90>    H        0.32900        -5.29000        -0.00800
| 91>    H        2.14600        -4.84200        -1.94000
| 92>    H        5.80800         4.98600        -1.95600
| 93>    H        4.78800        -2.28100        -0.18500
| 94>    H        4.86000         2.11400         1.91200
| 95>    H        6.90100         3.53100         1.77200
| 96>    H        7.38300         6.10900         0.35600
| 97>    H        8.41400         4.65200         0.43500
| 98>    H        7.92100         5.31000        -1.15000
| 99>    H        5.28300         0.33600        -0.17900
|100>    H        3.72000         3.63200        -1.96700
|101> *
|102> 
|103>                          ****END OF INPUT****
================================================================================

                       ****************************
                       * Single Point Calculation *
                       ****************************

---------------------------------
CARTESIAN COORDINATES (ANGSTROEM)
---------------------------------
  C     -3.085000    6.452000    0.471000
  C      1.474000    4.041000    0.057000
  C     -2.802000    4.093000    0.049000
  C     -4.155000    4.050000   -0.323000
  C     -4.920000    5.198000   -0.289000
  C     -5.222000    7.596000    0.096000
  C      0.132000    4.307000    0.061000
  C     -0.569000    3.056000    0.047000
  C      1.649000    2.618000    0.023000
  C     -2.277000    5.332000    0.448000
  N     -4.385000    6.376000    0.107000
  N      0.388000    2.067000    0.025000
  N     -2.010000    0.395000   -0.075000
  N     -0.388000   -2.074000   -0.027000
  N      2.010000   -0.401000    0.065000
  C     -1.960000    2.861000    0.024000
  C     -2.623000    1.615000   -0.018000
  C     -5.573000   -4.329000    1.066000
  C     -4.073000    1.471000    0.056000
  C     -4.106000   -2.756000   -0.026000
  C     -4.995000   -2.757000   -1.111000
  C     -6.132000   -3.542000   -1.076000
  C     -7.651000   -5.113000    0.040000
  C     -4.324000    0.141000    0.037000
  C     -3.025000   -0.520000   -0.048000
  C     -4.422000   -3.566000    1.075000
  N     -6.407000   -4.313000    0.001000
  C     -2.867000   -1.922000   -0.040000
  C     -1.650000   -2.624000   -0.027000
  C      3.568000   -6.142000   -1.040000
  C     -1.476000   -4.049000   -0.034000
  C      2.803000   -4.099000   -0.008000
  C      3.657000   -4.384000    1.069000
  C      4.427000   -5.530000    1.059000
  C      5.245000   -7.588000    0.014000
  C     -0.134000   -4.315000   -0.022000
  C      0.568000   -3.064000   -0.027000
  C      2.775000   -5.012000   -1.074000
  N      4.376000   -6.391000    0.017000
  C      1.959000   -2.869000   -0.009000
  C      2.621000   -1.622000    0.009000
  C      5.543000    4.339000   -1.130000
  C      4.070000   -1.479000   -0.094000
  C      4.104000    2.751000   -0.021000
  C      5.027000    2.729000    1.036000
  C      6.166000    3.509000    0.978000
  C      7.619000    5.153000   -0.115000
  C      4.321000   -0.148000   -0.092000
  C      3.025000    0.514000    0.015000
  C      4.387000    3.582000   -1.115000
  C      2.866000    1.916000    0.013000
  N      6.413000    4.296000   -0.095000
  H     -2.725000    7.425000    0.783000
  H      2.274000    4.766000    0.081000
  H     -4.615000    3.125000   -0.649000
  H     -5.964000    5.215000   -0.574000
  H     -5.194000    8.038000   -0.903000
  H     -6.244000    7.323000    0.356000
  H     -4.826000    8.300000    0.828000
  H     -0.332000    5.282000    0.069000
  H     -1.243000    5.428000    0.760000
  H      0.182000    1.072000    0.005000
  H     -0.183000   -1.080000   -0.021000
  H     -5.864000   -4.962000    1.895000
  H     -4.794000    2.272000    0.139000
  H     -4.800000   -2.160000   -1.994000
  H     -6.841000   -3.582000   -1.893000
  H     -8.428000   -4.536000    0.546000
  H     -7.956000   -5.337000   -0.981000
  H     -7.456000   -6.037000    0.584000
  H     -5.287000   -0.344000    0.100000
  H     -3.780000   -3.601000    1.947000
  H      3.587000   -6.868000   -1.843000
  H     -2.276000   -4.774000   -0.050000
  H      3.714000   -3.724000    1.926000
  H      5.092000   -5.795000    1.871000
  H      6.205000   -7.329000   -0.439000
  H      5.393000   -7.917000    1.042000
  H      4.759000   -8.373000   -0.564000
  H      0.329000   -5.290000   -0.008000
  H      2.146000   -4.842000   -1.940000
  H      5.808000    4.986000   -1.956000
  H      4.788000   -2.281000   -0.185000
  H      4.860000    2.114000    1.912000
  H      6.901000    3.531000    1.772000
  H      7.383000    6.109000    0.356000
  H      8.414000    4.652000    0.435000
  H      7.921000    5.310000   -1.150000
  H      5.283000    0.336000   -0.179000
  H      3.720000    3.632000   -1.967000

----------------------------
CARTESIAN COORDINATES (A.U.)
----------------------------
  NO LB      ZA    FRAG     MASS         X           Y           Z
   0 C     6.0000    0    12.011   -5.829805   12.192513    0.890061
   1 C     6.0000    0    12.011    2.785456    7.636383    0.107714
   2 C     6.0000    0    12.011   -5.295013    7.734649    0.092597
   3 C     6.0000    0    12.011   -7.851812    7.653391   -0.610382
   4 C     6.0000    0    12.011   -9.297453    9.822796   -0.546131
   5 C     6.0000    0    12.011   -9.868150   14.354360    0.181414
   6 C     6.0000    0    12.011    0.249444    8.139050    0.115273
   7 C     6.0000    0    12.011   -1.075254    5.775003    0.088817
   8 C     6.0000    0    12.011    3.116158    4.947303    0.043464
   9 C     6.0000    0    12.011   -4.302906   10.076020    0.846597
  10 N     7.0000    0    14.007   -8.286449   12.048894    0.202201
  11 N     7.0000    0    14.007    0.733214    3.906064    0.047243
  12 N     7.0000    0    14.007   -3.798350    0.746442   -0.141729
  13 N     7.0000    0    14.007   -0.733214   -3.919292   -0.051023
  14 N     7.0000    0    14.007    3.798350   -0.757780    0.122832
  15 C     6.0000    0    12.011   -3.703863    5.406506    0.045353
  16 C     6.0000    0    12.011   -4.956752    3.051908   -0.034015
  17 C     6.0000    0    12.011  -10.531444   -8.180624    2.014448
  18 C     6.0000    0    12.011   -7.696855    2.779787    0.105825
  19 C     6.0000    0    12.011   -7.759216   -5.208085   -0.049133
  20 C     6.0000    0    12.011   -9.439182   -5.209975   -2.099486
  21 C     6.0000    0    12.011  -11.587801   -6.693410   -2.033345
  22 C     6.0000    0    12.011  -14.458295   -9.662170    0.075589
  23 C     6.0000    0    12.011   -8.171176    0.266451    0.069920
  24 C     6.0000    0    12.011   -5.716422   -0.982658   -0.090707
  25 C     6.0000    0    12.011   -8.356369   -6.738763    2.031456
  26 N     7.0000    0    14.007  -12.107475   -8.150389    0.001890
  27 C     6.0000    0    12.011   -5.417845   -3.632054   -0.075589
  28 C     6.0000    0    12.011   -3.118048   -4.958641   -0.051023
  29 C     6.0000    0    12.011    6.742543  -11.606698   -1.965315
  30 C     6.0000    0    12.011   -2.789236   -7.651501   -0.064251
  31 C     6.0000    0    12.011    5.296902   -7.745987   -0.015118
  32 C     6.0000    0    12.011    6.910728   -8.284559    2.020117
  33 C     6.0000    0    12.011    8.365818  -10.450186    2.001220
  34 C     6.0000    0    12.011    9.911614  -14.339242    0.026456
  35 C     6.0000    0    12.011   -0.253223   -8.154168   -0.041574
  36 C     6.0000    0    12.011    1.073364   -5.790121   -0.051023
  37 C     6.0000    0    12.011    5.243990   -9.471307   -2.029566
  38 N     7.0000    0    14.007    8.269442  -12.077240    0.032125
  39 C     6.0000    0    12.011    3.701973   -5.421624   -0.017008
  40 C     6.0000    0    12.011    4.952972   -3.065136    0.017008
  41 C     6.0000    0    12.011   10.474752    8.199522   -2.135391
  42 C     6.0000    0    12.011    7.691185   -2.794905   -0.177634
  43 C     6.0000    0    12.011    7.755436    5.198637   -0.039684
  44 C     6.0000    0    12.011    9.499653    5.157063    1.957756
  45 C     6.0000    0    12.011   11.652051    6.631049    1.848152
  46 C     6.0000    0    12.011   14.397823    9.737759   -0.217319
  47 C     6.0000    0    12.011    8.165507   -0.279679   -0.173855
  48 C     6.0000    0    12.011    5.716422    0.971319    0.028346
  49 C     6.0000    0    12.011    8.290229    6.768999   -2.107045
  50 C     6.0000    0    12.011    5.415955    3.620715    0.024566
  51 N     7.0000    0    14.007   12.118814    8.118263   -0.179524
  52 H     1.0000    0     1.008   -5.149504   14.031217    1.479656
  53 H     1.0000    0     1.008    4.297237    9.006435    0.153068
  54 H     1.0000    0     1.008   -8.721086    5.905394   -1.226432
  55 H     1.0000    0     1.008  -11.270327    9.854922   -1.084703
  56 H     1.0000    0     1.008   -9.815238   15.189619   -1.706423
  57 H     1.0000    0     1.008  -11.799450   13.838464    0.672743
  58 H     1.0000    0     1.008   -9.119818   15.684727    1.564693
  59 H     1.0000    0     1.008   -0.627389    9.981533    0.130391
  60 H     1.0000    0     1.008   -2.348930   10.257433    1.436192
  61 H     1.0000    0     1.008    0.343930    2.025786    0.009449
  62 H     1.0000    0     1.008   -0.345820   -2.040904   -0.039684
  63 H     1.0000    0     1.008  -11.081354   -9.376821    3.581031
  64 H     1.0000    0     1.008   -9.059347    4.293458    0.262672
  65 H     1.0000    0     1.008   -9.070685   -4.081808   -3.768114
  66 H     1.0000    0     1.008  -12.927616   -6.768999   -3.577252
  67 H     1.0000    0     1.008  -15.926612   -8.571798    1.031790
  68 H     1.0000    0     1.008  -15.034661  -10.085468   -1.853821
  69 H     1.0000    0     1.008  -14.089798  -11.408277    1.103600
  70 H     1.0000    0     1.008   -9.990982   -0.650066    0.188973
  71 H     1.0000    0     1.008   -7.143165   -6.804904    3.679297
  72 H     1.0000    0     1.008    6.778448  -12.978639   -3.482765
  73 H     1.0000    0     1.008   -4.301017   -9.021553   -0.094486
  74 H     1.0000    0     1.008    7.018443   -7.037340    3.639613
  75 H     1.0000    0     1.008    9.622485  -10.950963    3.535678
  76 H     1.0000    0     1.008   11.725751  -13.849803   -0.829590
  77 H     1.0000    0     1.008   10.191293  -14.960962    1.969095
  78 H     1.0000    0     1.008    8.993207  -15.822677   -1.065806
  79 H     1.0000    0     1.008    0.621720   -9.996651   -0.015118
  80 H     1.0000    0     1.008    4.055352   -9.150054   -3.666069
  81 H     1.0000    0     1.008   10.975529    9.422175   -3.696304
  82 H     1.0000    0     1.008    9.048009   -4.310465   -0.349599
  83 H     1.0000    0     1.008    9.184069    3.994881    3.613156
  84 H     1.0000    0     1.008   13.041000    6.672623    3.348595
  85 H     1.0000    0     1.008   13.951848   11.544337    0.672743
  86 H     1.0000    0     1.008   15.900156    8.791006    0.822031
  87 H     1.0000    0     1.008   14.968521   10.034446   -2.173185
  88 H     1.0000    0     1.008    9.983423    0.634948   -0.338261
  89 H     1.0000    0     1.008    7.029781    6.863485   -3.717091

--------------------------------
INTERNAL COORDINATES (ANGSTROEM)
--------------------------------
 C      0   0   0     0.000000000000     0.00000000     0.00000000
 C      1   0   0     5.173857168496     0.00000000     0.00000000
 C      1   2   0     2.413100495214    55.04855327     0.00000000
 C      3   1   2     1.403866802799    87.89422630   194.58024071
 C      4   3   1     1.379958332704   120.15017741     0.14113564
 C      5   4   3     2.447413532691   152.54768517     1.62330471
 C      2   1   3     1.368114030335    17.21936276     5.33746328
 C      7   2   1     1.434084376876   108.05010202   194.47873925
 C      2   1   3     1.434123425651   124.87609238   349.36782214
 C      1   2   3     1.381228800742    26.53480213    16.17385683
 N      1   2   3     1.352136087825   143.07772881   335.28024085
 N      9   2   1     1.376127174356   106.58526707     4.15644921
 N     12   9   2     2.925062050624   168.53581413   171.12065651
 N     13  12   9     2.954513327098    91.55032014    11.12112580
 N     14  13  12     2.925371258490    88.43092389   359.84326247
 C      8   7   2     1.404790019896   127.24786865   181.11170171
 C     13  12   9     1.366535034311    81.72106996   188.00453233
 C     14  13  12     5.758810554272    80.56209567   166.76250791
 C     17  13  12     1.459010623676   111.08861209   183.82872609
 C     18  14  13     2.412235892279    27.27532823    36.33507194
 C     20  18  14     1.402692767501    87.95206320   148.94598259
 C     21  20  18     1.382106725257   120.14573887   359.70382047
 C     18  14  13     2.446510985056   144.15733107    82.80075377
 C     19  17  13     1.353610726908   106.29293361   359.75308708
 C     13  12   9     1.366813447402   172.21332906    33.46711076
 C     18  14  13     1.380960173213    15.08449437   309.23336894
 N     22  21  20     1.352773077792   120.73759875     0.27865223
 C     25  13  17     1.410897586645   125.60330303   182.37774668
 C     14  13  12     1.376642291955    80.24689249   177.85461986
 C     14  13  12     5.764089607215   164.51507311   312.20821879
 C     29  14  13     1.435600919476   106.58649366   178.76395472
 C     30  14  13     2.413316804732    27.10625047    82.12560436
 C     32  30  14     1.403734305344    87.90059683   149.76154742
 C     33  32  30     1.380694028378   120.14881443   359.74174632
 C     34  33  32     2.448777858443   152.49203239     2.45173620
 C     31  29  14     1.368160809262   108.16950133     0.70383075
 C     14  13  12     1.376239804685   169.26375223   353.09862627
 C     30  14  13     1.380907310430    14.68948582   353.70041132
 N     34  33  32     1.352658863128   120.85575621     0.19603406
 C     37  14  29     1.404717053360   126.01551127   180.90772073
 C     15  14  13     1.366491126938    81.61824056   183.09049352
 C      2   1   3     4.249062720177   146.45907633   148.19917477
 C     41  15  14     1.459677704153   111.05201287   175.08990246
 C     42   2   1     2.412953791518    41.78584867   173.61437083
 C     44  42   2     1.403446472082    87.95153797   233.97558675
 C     45  44  42     1.381696421071   120.11137308     0.19721020
 C     42   2   1     2.450019795838   135.97209175    83.92921993
 C     43  41  15     1.354461516618   106.26758155     0.30894352
 C     15  14  13     1.367461151185   171.87382904   332.35056460
 C     42   2   1     1.381886391857    32.59078432   222.46965002
 C      9   2   1     1.404988612053   126.98745415   185.16078674
 N     42   2   1     1.352765315936   113.57249190   111.66580912
 H      1   2   3     1.083361897059    98.55515050   172.82152601
 H      2   1   3     1.079907866440   109.76362682   173.92406829
 H      4   3   1     1.083282511628   121.00725925   179.56942501
 H      5   4   3     1.082335437838   122.77274210   179.49828319
 H      6   5   4     1.092771247792   104.43833548   100.12675563
 H      6   5   4     1.089317676346    84.70757545   209.54628435
 H      6   5   4     1.090071557284   133.91561576   322.38677638
 H      7   2   1     1.079807853278   126.66122480    14.71715304
 H     10   1   2     1.084304385309   118.76799576    28.10418653
 H     12   9   2     1.016297692608   125.29023241   180.00180175
 H     14  13  12     1.014936943854    44.97226959   359.42596618
 H     18  14  13     1.082871645210   128.03556573   234.20482432
 H     19  17  13     1.080893611786   126.41830519   178.11313280
 H     21  20  18     1.083569563987   121.05669627   180.67006309
 H     22  21  20     1.082483256222   122.73097286   180.59748951
 H     23  18  14     1.092105306278   103.92715769   234.93429879
 H     23  18  14     1.088871893291   134.19244188    12.25587044
 H     23  18  14     1.089833473518    84.85857450   125.45241208
 H     24  19  17     1.080075460327   127.28078426   178.44613241
 H     26  18  14     1.083408048706   118.76995697   244.94906660
 H     30  14  13     1.082703098730   127.99711412   279.66882698
 H     31  29  14     1.079759695488   125.22293469   180.92530585
 H     33  32  30     1.083188810873   121.01964473   180.74284758
 H     34  33  32     1.082494341787   122.70821597   180.59516895
 H     35  34  33     1.092652735319   105.73575241    97.19771933
 H     35  34  33     1.089462711615    84.05943581   206.43036958
 H     35  34  33     1.089268102902   133.08365142   318.50306270
 H     36  31  29     1.079439669458   126.61599965   178.98859863
 H     38  30  73     1.083742127999   118.77264435   359.90091293
 H     42   2   1     1.082178358682   119.31790784   328.29733958
 H     43  41  15     1.080281907652   126.36969097   182.06329380
 H     45  44  42     1.083277434455   121.10105945   179.58025624
 H     46  45  44     1.082194529648   122.72144639   179.46906377
 H     47  42   2     1.091546151109   106.65128841   315.16475048
 H     47  42   2     1.088818625851   132.46019523    94.52397119
 H     47  42   2     1.089531091801    83.63838232   206.04504406
 H     48  43  41     1.080402239909   127.23657387   181.62955349
 H     50  42   2     1.083186502870   118.77001737    94.71359229

---------------------------
INTERNAL COORDINATES (A.U.)
---------------------------
 C      0   0   0     0.000000000000     0.00000000     0.00000000
 C      1   0   0     9.777173104483     0.00000000     0.00000000
 C      1   2   0     4.560099069583    55.04855327     0.00000000
 C      3   1   2     2.652923785793    87.89422630   194.58024071
 C      4   3   1     2.607743325034   120.15017741     0.14113564
 C      5   4   3     4.624941313239   152.54768517     1.62330471
 C      2   1   3     2.585360837309    17.21936276     5.33746328
 C      7   2   1     2.710026725231   108.05010202   194.47873925
 C      2   1   3     2.710100516721   124.87609238   349.36782214
 C      1   2   3     2.610144161687    26.53480213    16.17385683
 N      1   2   3     2.555166901782   143.07772881   335.28024085
 N      9   2   1     2.600503484979   106.58526707     4.15644921
 N     12   9   2     5.527566200405   168.53581413   171.12065651
 N     13  12   9     5.583221047236    91.55032014    11.12112580
 N     14  13  12     5.528150518591    88.43092389   359.84326247
 C      8   7   2     2.654668413270   127.24786865   181.11170171
 C     13  12   9     2.582376967257    81.72106996   188.00453233
 C     14  13  12    10.882574804710    80.56209567   166.76250791
 C     17  13  12     2.757130505230   111.08861209   183.82872609
 C     18  14  13     4.558465206823    27.27532823    36.33507194
 C     20  18  14     2.650705180609    87.95206320   148.94598259
 C     21  20  18     2.611803198586   120.14573887   359.70382047
 C     18  14  13     4.623235745386   144.15733107    82.80075377
 C     19  17  13     2.557953565794   106.29293361   359.75308708
 C     13  12   9     2.582903091751   172.21332906    33.46711076
 C     18  14  13     2.609636529225    15.08449437   309.23336894
 N     22  21  20     2.556370638369   120.73759875     0.27865223
 C     25  13  17     2.666210041769   125.60330303   182.37774668
 C     14  13  12     2.601476916169    80.24689249   177.85461986
 C     14  13  12    10.892550769017   164.51507311   312.20821879
 C     29  14  13     2.712892575415   106.58649366   178.76395472
 C     30  14  13     4.560507835333    27.10625047    82.12560436
 C     32  30  14     2.652673401891    87.90059683   149.76154742
 C     33  32  30     2.609133588376   120.14881443   359.74174632
 C     34  33  32     4.627519515267   152.49203239     2.45173620
 C     31  29  14     2.585449236669   108.16950133     0.70383075
 C     14  13  12     2.600716325456   169.26375223   353.09862627
 C     30  14  13     2.609536633043    14.68948582   353.70041132
 N     34  33  32     2.556154803934   120.85575621     0.19603406
 C     37  14  29     2.654530526499   126.01551127   180.90772073
 C     15  14  13     2.582293994346    81.61824056   183.09049352
 C      2   1   3     8.029564866989   146.45907633   148.19917477
 C     41  15  14     2.758391104639   111.05201287   175.08990246
 C     42   2   1     4.559821839776    41.78584867   173.61437083
 C     44  42   2     2.652129475853    87.95153797   233.97558675
 C     45  44  42     2.611027836043   120.11137308     0.19721020
 C     42   2   1     4.629866436820   135.97209175    83.92921993
 C     43  41  15     2.559561325344   106.26758155     0.30894352
 C     15  14  13     2.584127074516   171.87382904   332.35056460
 C     42   2   1     2.611386828803    32.59078432   222.46965002
 C      9   2   1     2.655043698059   126.98745415   185.16078674
 N     42   2   1     2.556355970587   113.57249190   111.66580912
 H      1   2   3     2.047257289368    98.55515050   172.82152601
 H      2   1   3     2.040730117440   109.76362682   173.92406829
 H      4   3   1     2.047107272644   121.00725925   179.56942501
 H      5   4   3     2.045317562552   122.77274210   179.49828319
 H      6   5   4     2.065038385350   104.43833548   100.12675563
 H      6   5   4     2.058512081134    84.70757545   209.54628435
 H      6   5   4     2.059936709644   133.91561576   322.38677638
 H      7   2   1     2.040541119952   126.66122480    14.71715304
 H     10   1   2     2.049038334044   118.76799576    28.10418653
 H     12   9   2     1.920524309565   125.29023241   180.00180175
 H     14  13  12     1.917952867083    44.97226959   359.42596618
 H     18  14  13     2.046330847636   128.03556573   234.20482432
 H     19  17  13     2.042592906181   126.41830519   178.11313280
 H     21  20  18     2.047649722989   121.05669627   180.67006309
 H     22  21  20     2.045596898814   122.73097286   180.59748951
 H     23  18  14     2.063779938267   103.92715769   234.93429879
 H     23  18  14     2.057669673245   134.19244188    12.25587044
 H     23  18  14     2.059486796529    84.85857450   125.45241208
 H     24  19  17     2.041046823986   127.28078426   178.44613241
 H     26  18  14     2.047344503340   118.76995697   244.94906660
 H     30  14  13     2.046012340948   127.99711412   279.66882698
 H     31  29  14     2.040450114918   125.22293469   180.92530585
 H     33  32  30     2.046930203877   121.01964473   180.74284758
 H     34  33  32     2.045617847496   122.70821597   180.59516895
 H     35  34  33     2.064814429233   105.73575241    97.19771933
 H     35  34  33     2.058786158072    84.05943581   206.43036958
 H     35  34  33     2.058418400901   133.08365142   318.50306270
 H     36  31  29     2.039845353366   126.61599965   178.98859863
 H     38  30  73     2.047975821711   118.77264435   359.90091293
 H     42   2   1     2.045020725966   119.31790784   328.29733958
 H     43  41  15     2.041436952892   126.36969097   182.06329380
 H     45  44  42     2.047097678177   121.10105945   179.58025624
 H     46  45  44     2.045051284662   122.72144639   179.46906377
 H     47  42   2     2.062723288131   106.65128841   315.16475048
 H     47  42   2     2.057569012371   132.46019523    94.52397119
 H     47  42   2     2.058915377895    83.63838232   206.04504406
 H     48  43  41     2.041664347903   127.23657387   181.62955349
 H     50  42   2     2.046925842384   118.77001737    94.71359229

---------------------
BASIS SET INFORMATION
---------------------
There are 3 groups of distinct atoms

 Group   1 Type C   : 17s4p1d contracted to 3s2p1d pattern {881/31/1}
 Group   2 Type N   : 17s4p1d contracted to 3s2p1d pattern {881/31/1}
 Group   3 Type H   : 4s1p contracted to 2s1p pattern {31/1}

Atom   0C    basis set group =>   1
Atom   1N    basis set group =>   2
Atom   2C    basis set group =>   1
Atom   3N    basis set group =>   2
Atom   4C    basis set group =>   1
Atom   5N    basis set group =>   2
Atom   6C    basis set group =>   1
Atom   7N    basis set group =>   2
Atom   8C    basis set group =>   1
Atom   9N    basis set group =>   2
Atom  10C    basis set group =>   1
Atom  11N    basis set group =>   2
Atom  12C    basis set group =>   1
Atom  13N    basis set group =>   2
Atom  14C    basis set group =>   1
Atom  15N    basis set group =>   2
Atom  16C    basis set group =>   1
Atom  17C    basis set group =>   1
Atom  18C    basis set group =>   1
Atom  19C    basis set group =>   1
Atom  20C    basis set group =>   1
Atom  21C    basis set group =>   1
Atom  22C    basis set group =>   1
Atom  23C    basis set group =>   1
Atom  24C    basis set group =>   1
Atom  25C    basis set group =>   1
Atom  26C    basis set group =>   1
Atom  27C    basis set group =>   1
Atom  28C    basis set group =>   1
Atom  29C    basis set group =>   1
Atom  30C    basis set group =>   1
Atom  31C    basis set group =>   1
Atom  32C    basis set group =>   1
Atom  33C    basis set group =>   1
Atom  34C    basis set group =>   1
Atom  35C    basis set group =>   1
Atom  36C    basis set group =>   1
Atom  37C    basis set group =>   1
Atom  38C    basis set group =>   1
Atom  39C    basis set group =>   1
Atom  40C    basis set group =>   1
Atom  41C    basis set group =>   1
Atom  42C    basis set group =>   1
Atom  43C    basis set group =>   1
Atom  44C    basis set group =>   1
Atom  45C    basis set group =>   1
Atom  46C    basis set group =>   1
Atom  47C    basis set group =>   1
Atom  48C    basis set group =>   1
Atom  49C    basis set group =>   1
Atom  50C    basis set group =>   1
Atom  51C    basis set group =>   1
Atom  52H    basis set group =>   3
Atom  53H    basis set group =>   3
Atom  54H    basis set group =>   3
Atom  55H    basis set group =>   3
Atom  56H    basis set group =>   3
Atom  57H    basis set group =>   3
Atom  58H    basis set group =>   3
Atom  59H    basis set group =>   3
Atom  60H    basis set group =>   3
Atom  61H    basis set group =>   3
Atom  62H    basis set group =>   3
Atom  63H    basis set group =>   3
Atom  64H    basis set group =>   3
Atom  65H    basis set group =>   3
Atom  66H    basis set group =>   3
Atom  67H    basis set group =>   3
Atom  68H    basis set group =>   3
Atom  69H    basis set group =>   3
Atom  70H    basis set group =>   3
Atom  71H    basis set group =>   3
Atom  72H    basis set group =>   3
Atom  73H    basis set group =>   3
Atom  74H    basis set group =>   3
Atom  75H    basis set group =>   3
Atom  76H    basis set group =>   3
Atom  77H    basis set group =>   3
Atom  78H    basis set group =>   3
Atom  79H    basis set group =>   3
Atom  80H    basis set group =>   3
Atom  81H    basis set group =>   3
Atom  82H    basis set group =>   3
Atom  83H    basis set group =>   3
Atom  84H    basis set group =>   3
Atom  85H    basis set group =>   3
Atom  86H    basis set group =>   3
Atom  87H    basis set group =>   3
Atom  88H    basis set group =>   3
Atom  89H    basis set group =>   3


           ************************************************************
           *        Program running with 8 parallel MPI-processes     *
           *              working on a common directory               *
           ************************************************************
------------------------------------------------------------------------------
                           ORCA GTO INTEGRAL CALCULATION
------------------------------------------------------------------------------
------------------------------------------------------------------------------
                   ___                                                        
                  /   \      - P O W E R E D   B Y -                         
                 /     \                                                     
                 |  |  |   _    _      __       _____    __    __             
                 |  |  |  | |  | |    /  \     |  _  \  |  |  /  |          
                  \  \/   | |  | |   /    \    | | | |  |  | /  /          
                 / \  \   | |__| |  /  /\  \   | |_| |  |  |/  /          
                |  |  |   |  __  | /  /__\  \  |    /   |      \           
                |  |  |   | |  | | |   __   |  |    \   |  |\   \          
                \     /   | |  | | |  |  |  |  | |\  \  |  | \   \       
                 \___/    |_|  |_| |__|  |__|  |_| \__\ |__|  \__/        
                                                                              
                      - O R C A' S   B I G   F R I E N D -                    
                                      &                                       
                       - I N T E G R A L  F E E D E R -                       
                                                                              
 v1 FN, 2020, v2 2021                                                         
------------------------------------------------------------------------------


Reading SHARK input file /scratch/chu_02/allen/tmpyp4_amber_gaff2/conf1/conf1/Conf343.orca.SHARKINP.tmp ... ok
----------------------
SHARK INTEGRAL PACKAGE
----------------------

Number of atoms                             ...     90
Number of basis functions                   ...   1230
Number of shells                            ...    738
Maximum angular momentum                    ...      2
Integral batch strategy                     ... SHARK/LIBINT Hybrid
RI-J (if used) integral strategy            ... SPLIT-RIJ (Revised 2003 algorithm where possible)
Printlevel                                  ...      1
Contraction scheme used                     ... PARTIAL GENERAL contraction
Coulomb Range Separation                    ... NOT USED
Exchange Range Separation                   ... NOT USED
Finite Nucleus Model                        ... NOT USED
Auxiliary Coulomb fitting basis             ... NOT available
Auxiliary J/K fitting basis                 ... NOT available
Auxiliary Correlation fitting basis         ... NOT available
Auxiliary 'external' fitting basis          ... NOT available
Integral threshold                          ...     2.500000e-11
Primitive cut-off                           ...     2.500000e-12
Primitive pair pre-selection threshold      ...     2.500000e-12

Calculating pre-screening integrals         ... done (  0.1 sec) Dimension = 738
Calculating pre-screening integrals (ORCA)  ... done (  0.3 sec) Dimension = 426
Organizing shell pair data                  ... done (  0.6 sec)
Shell pair information
Total number of shell pairs                 ...    272691
Shell pairs after pre-screening             ...     71710
Total number of primitive shell pairs       ...    422091
Primitive shell pairs kept                  ...     92611
          la=0 lb=0:  29431 shell pairs
          la=1 lb=0:  26031 shell pairs
          la=1 lb=1:   4703 shell pairs
          la=2 lb=0:   7892 shell pairs
          la=2 lb=1:   3124 shell pairs
          la=2 lb=2:    529 shell pairs

Calculating one electron integrals          ... done (  0.2 sec)
Calculating Nuclear repulsion               ... done (  0.0 sec) ENN=   6233.871189697009 Eh

SHARK setup successfully completed in   1.7 seconds

Maximum memory used throughout the entire GTOINT-calculation: 99.1 MB


           ************************************************************
           *        Program running with 8 parallel MPI-processes     *
           *              working on a common directory               *
           ************************************************************
-------------------------------------------------------------------------------
                                 ORCA SCF
-------------------------------------------------------------------------------

------------
SCF SETTINGS
------------
Hamiltonian:
 Ab initio Hamiltonian  Method          .... Hartree-Fock(GTOs)


General Settings:
 Integral files         IntName         .... /scratch/chu_02/allen/tmpyp4_amber_gaff2/conf1/conf1/Conf343.orca
 Hartree-Fock type      HFTyp           .... RHF
 Total Charge           Charge          ....    0
 Multiplicity           Mult            ....    1
 Number of Electrons    NEL             ....  358
 Basis Dimension        Dim             ....  918
 Nuclear Repulsion      ENuc            ....   6233.8711896970 Eh

Convergence Acceleration:
 DIIS                   CNVDIIS         .... on
   Start iteration      DIISMaxIt       ....    12
   Startup error        DIISStart       ....  0.200000
   # of expansion vecs  DIISMaxEq       ....     5
   Bias factor          DIISBfac        ....   1.050
   Max. coefficient     DIISMaxC        ....  10.000
 Trust-Rad. Augm. Hess. CNVTRAH         .... auto
   Auto Start mean grad. ratio tolernc. ....  1.125000
   Auto Start start iteration           ....    20
   Auto Start num. interpolation iter.  ....    10
   Max. Number of Micro iterations      ....    16
   Max. Number of Macro iterations      .... Maxiter - #DIIS iter
   Number of Davidson start vectors     ....     2
   Converg. threshold I  (grad. norm)   ....   1.000e-05
   Converg. threshold II (energy diff.) ....   1.000e-08
   Grad. Scal. Fac. for Micro threshold ....   0.100
   Minimum threshold for Micro iter.    ....   0.010
   NR start threshold (gradient norm)   ....   0.001
   Initial trust radius                 ....   0.400
   Minimum AH scaling param. (alpha)    ....   1.000
   Maximum AH scaling param. (alpha)    .... 1000.000
   Orbital update algorithm             .... Taylor
   White noise on init. David. guess    .... on
   Maximum white noise                  ....   0.010
   Quad. conv. algorithm                .... NR
 SOSCF                  CNVSOSCF        .... on
   Start iteration      SOSCFMaxIt      ....   150
   Startup grad/error   SOSCFStart      ....  0.003300
 Level Shifting         CNVShift        .... on
   Level shift para.    LevelShift      ....    0.2500
   Turn off err/grad.   ShiftErr        ....    0.0010
 Zerner damping         CNVZerner       .... off
 Static damping         CNVDamp         .... on
   Fraction old density DampFac         ....    0.7000
   Max. Damping (<1)    DampMax         ....    0.9800
   Min. Damping (>=0)   DampMin         ....    0.0000
   Turn off err/grad.   DampErr         ....    0.1000
 Fernandez-Rico         CNVRico         .... off

SCF Procedure:
 Maximum # iterations   MaxIter         ....   125
 SCF integral mode      SCFMode         .... Direct
   Integral package                     .... SHARK and LIBINT hybrid scheme
 Reset frequency        DirectResetFreq ....    20
 Integral Threshold     Thresh          ....  2.500e-11 Eh
 Primitive CutOff       TCut            ....  2.500e-12 Eh

Convergence Tolerance:
 Convergence Check Mode ConvCheckMode   .... Total+1el-Energy
 Convergence forced     ConvForced      .... 1
 Energy Change          TolE            ....  1.000e-08 Eh
 1-El. energy change                    ....  1.000e-05 Eh
 Orbital Gradient       TolG            ....  1.000e-05
 Orbital Rotation angle TolX            ....  1.000e-05
 DIIS Error             TolErr          ....  5.000e-07


Diagonalization of the overlap matrix:
Smallest eigenvalue                        ... 1.910e-04
Time for diagonalization                   ...    0.230 sec
Threshold for overlap eigenvalues          ... 1.000e-08
Number of eigenvalues below threshold      ... 0
Time for construction of square roots      ...    0.142 sec
Total time needed                          ...    0.377 sec

Time for model grid setup =    1.372 sec

------------------------------
INITIAL GUESS: MODEL POTENTIAL
------------------------------
Loading Hartree-Fock densities                     ... done
Calculating cut-offs                               ... done
Initializing the effective Hamiltonian             ... done
Setting up the integral package (SHARK)            ... done
Starting the Coulomb interaction                   ... done (   1.6 sec)
Reading the grid                                   ... done
Mapping shells                                     ... done
Starting the XC term evaluation                    ... done (   0.3 sec)
Transforming the Hamiltonian                       ... done (   0.1 sec)
Diagonalizing the Hamiltonian                      ... done (   0.2 sec)
Back transforming the eigenvectors                 ... done (   0.0 sec)
Now organizing SCF variables                       ... done
                      ------------------
                      INITIAL GUESS DONE (   3.7 sec)
                      ------------------
--------------
SCF ITERATIONS
--------------
ITER       Energy         Delta-E        Max-DP      RMS-DP      [F,P]     Damp
               ***  Starting incremental Fock matrix formation  ***
  0  -2121.6535160337   0.000000000000 0.08320852  0.00124618  0.2314061 0.7000
  1  -2122.2997447962  -0.646228762498 0.06279740  0.00101423  0.1435491 0.7000
                               ***Turning on DIIS***
  2  -2122.7024949427  -0.402750146553 0.14593159  0.00230517  0.0802921 0.0000
  3  -2118.0310353103   4.671459632471 0.04644472  0.00068059  0.0435375 0.0000
  4  -2123.3923799719  -5.361344661647 0.01415423  0.00022754  0.0090271 0.0000
  5  -2123.5325129456  -0.140132973667 0.00680338  0.00013242  0.0048836 0.0000
  6  -2123.5168626180   0.015650327570 0.00404460  0.00008486  0.0021840 0.0000
  7  -2123.6103924348  -0.093529816795 0.00316317  0.00006700  0.0016160 0.0000
  8  -2123.6181651394  -0.007772704628 0.00334418  0.00006398  0.0015099 0.0000
  9  -2123.5903873700   0.027777769437 0.00267324  0.00004548  0.0012134 0.0000
 10  -2123.5985717419  -0.008184371893 0.00537933  0.00009579  0.0009466 0.0000
                      *** Initiating the SOSCF procedure ***
                           *** Shutting down DIIS ***
                      *** Re-Reading the Fockian *** 
                      *** Removing any level shift *** 
ITER      Energy       Delta-E        Grad      Rot      Max-DP    RMS-DP
 11  -2123.49212496   0.1064467848  0.000176  0.000176  0.000239  0.000005
               *** Restarting incremental Fock matrix formation ***
 12  -2123.55788016  -0.0657552006  0.000884  0.006433  0.001475  0.000035
 13  -2123.55799183  -0.0001116695  0.001101  0.031616  0.006746  0.000139
 14  -2123.55817894  -0.0001871162  0.000375  0.001700  0.000580  0.000012
 15  -2123.55819398  -0.0000150371  0.000160  0.001916  0.000544  0.000013
 16  -2123.55820100  -0.0000070175  0.000143  0.002246  0.000468  0.000008
 17  -2123.55820344  -0.0000024395  0.000116  0.001685  0.000282  0.000006
 18  -2123.55820454  -0.0000011013  0.000057  0.000648  0.000223  0.000003
 19  -2123.55820510  -0.0000005598  0.000040  0.000918  0.000188  0.000004
 20  -2123.55820538  -0.0000002841  0.000021  0.000571  0.000097  0.000002
 21  -2123.55820551  -0.0000001290  0.000023  0.000772  0.000120  0.000002
 22  -2123.55820563  -0.0000001212  0.000018  0.000762  0.000124  0.000002
 23  -2123.55820571  -0.0000000795  0.000012  0.000435  0.000073  0.000001
 24  -2123.55820575  -0.0000000411  0.000007  0.000352  0.000054  0.000001
 25  -2123.55820578  -0.0000000298  0.000008  0.000147  0.000033  0.000001
 26  -2123.55820580  -0.0000000173  0.000005  0.000096  0.000029  0.000000
 27  -2123.55820581  -0.0000000096  0.000003  0.000082  0.000020  0.000000
                  ***Gradient check signals convergence***
              ***Rediagonalizing the Fockian in SOSCF/NRSCF***

               *****************************************************
               *                     SUCCESS                       *
               *           SCF CONVERGED AFTER  28 CYCLES          *
               *****************************************************


----------------
TOTAL SCF ENERGY
----------------

Total Energy       :        -2123.55820582 Eh          -57784.95651 eV

Components:
Nuclear Repulsion  :         6233.87118970 Eh          169632.25901 eV
Electronic Energy  :        -8357.42939551 Eh         -227417.21552 eV
One Electron Energy:       -15308.37463048 Eh         -416562.05130 eV
Two Electron Energy:         6950.94523496 Eh          189144.83578 eV

Virial components:
Potential Energy   :        -4245.93815548 Eh         -115537.85104 eV
Kinetic Energy     :         2122.37994967 Eh           57752.89453 eV
Virial Ratio       :            2.00055516


---------------
SCF CONVERGENCE
---------------

  Last Energy change         ...   -4.9567e-09  Tolerance :   1.0000e-08
  Last MAX-Density change    ...    1.0547e-05  Tolerance :   1.0000e-07
  Last RMS-Density change    ...    2.1010e-07  Tolerance :   5.0000e-09
  Last Orbital Gradient      ...    1.9073e-06  Tolerance :   1.0000e-05
  Last Orbital Rotation      ...    5.5126e-05  Tolerance :   1.0000e-05

             **** THE GBW FILE WAS UPDATED (/scratch/chu_02/allen/tmpyp4_amber_gaff2/conf1/conf1/Conf343.orca.gbw) ****
             **** DENSITY /scratch/chu_02/allen/tmpyp4_amber_gaff2/conf1/conf1/Conf343.orca.scfp WAS UPDATED ****
             **** ENERGY FILE WAS UPDATED (/scratch/chu_02/allen/tmpyp4_amber_gaff2/conf1/conf1/Conf343.orca.en.tmp) ****
             **** THE GBW FILE WAS UPDATED (/scratch/chu_02/allen/tmpyp4_amber_gaff2/conf1/conf1/Conf343.orca.gbw) ****
             **** DENSITY /scratch/chu_02/allen/tmpyp4_amber_gaff2/conf1/conf1/Conf343.orca.scfp WAS UPDATED ****
----------------
ORBITAL ENERGIES
----------------

  NO   OCC          E(Eh)            E(eV) 
   0   2.0000     -15.679079      -426.6494 
   1   2.0000     -15.635545      -425.4648 
   2   2.0000     -15.630350      -425.3235 
   3   2.0000     -15.587358      -424.1536 
   4   2.0000     -15.525590      -422.4728 
   5   2.0000     -15.515442      -422.1967 
   6   2.0000     -15.453349      -420.5070 
   7   2.0000     -15.440998      -420.1709 
   8   2.0000     -11.329048      -308.2791 
   9   2.0000     -11.327530      -308.2378 
  10   2.0000     -11.327487      -308.2366 
  11   2.0000     -11.300311      -307.4971 
  12   2.0000     -11.297425      -307.4186 
  13   2.0000     -11.294269      -307.3327 
  14   2.0000     -11.289905      -307.2139 
  15   2.0000     -11.288056      -307.1636 
  16   2.0000     -11.285312      -307.0889 
  17   2.0000     -11.281400      -306.9825 
  18   2.0000     -11.270075      -306.6743 
  19   2.0000     -11.262900      -306.4791 
  20   2.0000     -11.261922      -306.4525 
  21   2.0000     -11.252581      -306.1983 
  22   2.0000     -11.248929      -306.0989 
  23   2.0000     -11.239284      -305.8365 
  24   2.0000     -11.235179      -305.7248 
  25   2.0000     -11.232368      -305.6483 
  26   2.0000     -11.231739      -305.6312 
  27   2.0000     -11.228644      -305.5469 
  28   2.0000     -11.228322      -305.5382 
  29   2.0000     -11.211681      -305.0853 
  30   2.0000     -11.210214      -305.0454 
  31   2.0000     -11.194565      -304.6196 
  32   2.0000     -11.191327      -304.5315 
  33   2.0000     -11.189996      -304.4953 
  34   2.0000     -11.188103      -304.4437 
  35   2.0000     -11.187485      -304.4269 
  36   2.0000     -11.186173      -304.3912 
  37   2.0000     -11.180821      -304.2456 
  38   2.0000     -11.179157      -304.2003 
  39   2.0000     -11.175083      -304.0895 
  40   2.0000     -11.173492      -304.0462 
  41   2.0000     -11.169605      -303.9404 
  42   2.0000     -11.169243      -303.9306 
  43   2.0000     -11.161057      -303.7078 
  44   2.0000     -11.160419      -303.6904 
  45   2.0000     -11.157644      -303.6149 
  46   2.0000     -11.155606      -303.5595 
  47   2.0000     -11.154427      -303.5274 
  48   2.0000     -11.146139      -303.3019 
  49   2.0000     -11.135549      -303.0137 
  50   2.0000     -11.130669      -302.8809 
  51   2.0000     -11.118670      -302.5544 
  52   2.0000      -1.359773       -37.0013 
  53   2.0000      -1.322589       -35.9895 
  54   2.0000      -1.318339       -35.8738 
  55   2.0000      -1.280970       -34.8570 
  56   2.0000      -1.226702       -33.3803 
  57   2.0000      -1.209864       -32.9221 
  58   2.0000      -1.172806       -31.9137 
  59   2.0000      -1.151444       -31.3324 
  60   2.0000      -1.143143       -31.1065 
  61   2.0000      -1.111321       -30.2406 
  62   2.0000      -1.107980       -30.1497 
  63   2.0000      -1.081519       -29.4296 
  64   2.0000      -1.077256       -29.3136 
  65   2.0000      -1.046733       -28.4831 
  66   2.0000      -1.043049       -28.3828 
  67   2.0000      -1.040873       -28.3236 
  68   2.0000      -1.015234       -27.6259 
  69   2.0000      -1.012051       -27.5393 
  70   2.0000      -1.008718       -27.4486 
  71   2.0000      -0.994063       -27.0498 
  72   2.0000      -0.985678       -26.8217 
  73   2.0000      -0.981685       -26.7130 
  74   2.0000      -0.972115       -26.4526 
  75   2.0000      -0.961421       -26.1616 
  76   2.0000      -0.954090       -25.9621 
  77   2.0000      -0.945585       -25.7307 
  78   2.0000      -0.935700       -25.4617 
  79   2.0000      -0.917468       -24.9656 
  80   2.0000      -0.909997       -24.7623 
  81   2.0000      -0.895873       -24.3780 
  82   2.0000      -0.876160       -23.8415 
  83   2.0000      -0.873341       -23.7648 
  84   2.0000      -0.869352       -23.6563 
  85   2.0000      -0.858156       -23.3516 
  86   2.0000      -0.839815       -22.8525 
  87   2.0000      -0.836333       -22.7578 
  88   2.0000      -0.825800       -22.4712 
  89   2.0000      -0.796945       -21.6860 
  90   2.0000      -0.789430       -21.4815 
  91   2.0000      -0.754734       -20.5373 
  92   2.0000      -0.750638       -20.4259 
  93   2.0000      -0.733885       -19.9700 
  94   2.0000      -0.725794       -19.7499 
  95   2.0000      -0.723177       -19.6787 
  96   2.0000      -0.717707       -19.5298 
  97   2.0000      -0.715042       -19.4573 
  98   2.0000      -0.709844       -19.3158 
  99   2.0000      -0.698245       -19.0002 
 100   2.0000      -0.696546       -18.9540 
 101   2.0000      -0.686543       -18.6818 
 102   2.0000      -0.683937       -18.6109 
 103   2.0000      -0.683623       -18.6023 
 104   2.0000      -0.679199       -18.4820 
 105   2.0000      -0.673626       -18.3303 
 106   2.0000      -0.671574       -18.2744 
 107   2.0000      -0.660409       -17.9706 
 108   2.0000      -0.656659       -17.8686 
 109   2.0000      -0.653928       -17.7943 
 110   2.0000      -0.650696       -17.7063 
 111   2.0000      -0.645627       -17.5684 
 112   2.0000      -0.644684       -17.5427 
 113   2.0000      -0.637701       -17.3527 
 114   2.0000      -0.636669       -17.3246 
 115   2.0000      -0.627390       -17.0722 
 116   2.0000      -0.621333       -16.9073 
 117   2.0000      -0.620783       -16.8924 
 118   2.0000      -0.613787       -16.7020 
 119   2.0000      -0.613184       -16.6856 
 120   2.0000      -0.610956       -16.6250 
 121   2.0000      -0.610256       -16.6059 
 122   2.0000      -0.599859       -16.3230 
 123   2.0000      -0.587004       -15.9732 
 124   2.0000      -0.582530       -15.8515 
 125   2.0000      -0.580551       -15.7976 
 126   2.0000      -0.579340       -15.7646 
 127   2.0000      -0.572059       -15.5665 
 128   2.0000      -0.569269       -15.4906 
 129   2.0000      -0.559464       -15.2238 
 130   2.0000      -0.552375       -15.0309 
 131   2.0000      -0.547917       -14.9096 
 132   2.0000      -0.542916       -14.7735 
 133   2.0000      -0.542264       -14.7557 
 134   2.0000      -0.539281       -14.6746 
 135   2.0000      -0.535123       -14.5614 
 136   2.0000      -0.529747       -14.4151 
 137   2.0000      -0.519402       -14.1336 
 138   2.0000      -0.518232       -14.1018 
 139   2.0000      -0.514421       -13.9981 
 140   2.0000      -0.511991       -13.9320 
 141   2.0000      -0.510625       -13.8948 
 142   2.0000      -0.509597       -13.8668 
 143   2.0000      -0.503996       -13.7144 
 144   2.0000      -0.501204       -13.6385 
 145   2.0000      -0.495460       -13.4822 
 146   2.0000      -0.491257       -13.3678 
 147   2.0000      -0.481843       -13.1116 
 148   2.0000      -0.477598       -12.9961 
 149   2.0000      -0.467522       -12.7219 
 150   2.0000      -0.465985       -12.6801 
 151   2.0000      -0.456962       -12.4346 
 152   2.0000      -0.451014       -12.2727 
 153   2.0000      -0.445558       -12.1242 
 154   2.0000      -0.439674       -11.9641 
 155   2.0000      -0.427630       -11.6364 
 156   2.0000      -0.411798       -11.2056 
 157   2.0000      -0.408188       -11.1074 
 158   2.0000      -0.402033       -10.9399 
 159   2.0000      -0.387245       -10.5375 
 160   2.0000      -0.386747       -10.5239 
 161   2.0000      -0.377757       -10.2793 
 162   2.0000      -0.371323       -10.1042 
 163   2.0000      -0.357765        -9.7353 
 164   2.0000      -0.354840        -9.6557 
 165   2.0000      -0.341332        -9.2881 
 166   2.0000      -0.337889        -9.1944 
 167   2.0000      -0.325765        -8.8645 
 168   2.0000      -0.320784        -8.7290 
 169   2.0000      -0.305909        -8.3242 
 170   2.0000      -0.299286        -8.1440 
 171   2.0000      -0.285008        -7.7555 
 172   2.0000      -0.279337        -7.6011 
 173   2.0000      -0.263104        -7.1594 
 174   2.0000      -0.241841        -6.5808 
 175   2.0000      -0.190122        -5.1735 
 176   2.0000      -0.180853        -4.9213 
 177   2.0000      -0.079001        -2.1497 
 178   2.0000      -0.059407        -1.6165 
 179   0.0000       0.028173         0.7666 
 180   0.0000       0.065253         1.7756 
 181   0.0000       0.090509         2.4629 
 182   0.0000       0.106673         2.9027 
 183   0.0000       0.113981         3.1016 
 184   0.0000       0.136076         3.7028 
 185   0.0000       0.140233         3.8159 
 186   0.0000       0.141315         3.8454 
 187   0.0000       0.164100         4.4654 
 188   0.0000       0.164828         4.4852 
 189   0.0000       0.166478         4.5301 
 190   0.0000       0.173086         4.7099 
 191   0.0000       0.180731         4.9179 
 192   0.0000       0.184146         5.0109 
 193   0.0000       0.189245         5.1496 
 194   0.0000       0.203961         5.5501 
 195   0.0000       0.206383         5.6160 
 196   0.0000       0.207312         5.6413 
 197   0.0000       0.209547         5.7021 
 198   0.0000       0.216866         5.9012 
 199   0.0000       0.228164         6.2087 
 200   0.0000       0.234044         6.3686 
 201   0.0000       0.234867         6.3911 
 202   0.0000       0.238506         6.4901 
 203   0.0000       0.240299         6.5389 
 204   0.0000       0.246240         6.7005 
 205   0.0000       0.255029         6.9397 
 206   0.0000       0.256161         6.9705 
 207   0.0000       0.258079         7.0227 
 208   0.0000       0.259775         7.0689 
 209   0.0000       0.260704         7.0941 
 210   0.0000       0.264155         7.1880 
 211   0.0000       0.265890         7.2352 
 212   0.0000       0.268791         7.3142 
 213   0.0000       0.269741         7.3400 
 214   0.0000       0.272774         7.4226 
 215   0.0000       0.276502         7.5240 
 216   0.0000       0.278755         7.5853 
 217   0.0000       0.280744         7.6394 
 218   0.0000       0.286347         7.7919 
 219   0.0000       0.288331         7.8459 
 220   0.0000       0.289407         7.8752 
 221   0.0000       0.292001         7.9458 
 222   0.0000       0.294708         8.0194 
 223   0.0000       0.295830         8.0499 
 224   0.0000       0.298120         8.1123 
 225   0.0000       0.299605         8.1527 
 226   0.0000       0.304479         8.2853 
 227   0.0000       0.309186         8.4134 
 228   0.0000       0.310502         8.4492 
 229   0.0000       0.324469         8.8292 
 230   0.0000       0.327999         8.9253 
 231   0.0000       0.334536         9.1032 
 232   0.0000       0.341755         9.2996 
 233   0.0000       0.351481         9.5643 
 234   0.0000       0.355857         9.6834 
 235   0.0000       0.360786         9.8175 
 236   0.0000       0.375486        10.2175 
 237   0.0000       0.390677        10.6309 
 238   0.0000       0.394160        10.7257 
 239   0.0000       0.396149        10.7798 
 240   0.0000       0.403351        10.9758 
 241   0.0000       0.408755        11.1228 
 242   0.0000       0.411715        11.2033 
 243   0.0000       0.419218        11.4075 
 244   0.0000       0.428041        11.6476 
 245   0.0000       0.434367        11.8197 
 246   0.0000       0.436886        11.8883 
 247   0.0000       0.440127        11.9765 
 248   0.0000       0.442118        12.0306 
 249   0.0000       0.447911        12.1883 
 250   0.0000       0.458896        12.4872 
 251   0.0000       0.467449        12.7199 
 252   0.0000       0.469259        12.7692 
 253   0.0000       0.470619        12.8062 
 254   0.0000       0.472655        12.8616 
 255   0.0000       0.475257        12.9324 
 256   0.0000       0.476730        12.9725 
 257   0.0000       0.479365        13.0442 
 258   0.0000       0.488743        13.2994 
 259   0.0000       0.495436        13.4815 
 260   0.0000       0.503540        13.7020 
 261   0.0000       0.504667        13.7327 
 262   0.0000       0.507148        13.8002 
 263   0.0000       0.512641        13.9497 
 264   0.0000       0.515619        14.0307 
 265   0.0000       0.517165        14.0728 
 266   0.0000       0.525172        14.2907 
 267   0.0000       0.528138        14.3714 
 268   0.0000       0.533549        14.5186 
 269   0.0000       0.536148        14.5893 
 270   0.0000       0.541555        14.7365 
 271   0.0000       0.545897        14.8546 
 272   0.0000       0.558215        15.1898 
 273   0.0000       0.559169        15.2158 
 274   0.0000       0.560970        15.2648 
 275   0.0000       0.566305        15.4099 
 276   0.0000       0.570337        15.5197 
 277   0.0000       0.573647        15.6097 
 278   0.0000       0.578419        15.7396 
 279   0.0000       0.585809        15.9407 
 280   0.0000       0.590386        16.0652 
 281   0.0000       0.591904        16.1065 
 282   0.0000       0.594788        16.1850 
 283   0.0000       0.595433        16.2026 
 284   0.0000       0.597987        16.2721 
 285   0.0000       0.601943        16.3797 
 286   0.0000       0.607290        16.5252 
 287   0.0000       0.611139        16.6299 
 288   0.0000       0.615202        16.7405 
 289   0.0000       0.625321        17.0159 
 290   0.0000       0.625847        17.0302 
 291   0.0000       0.629071        17.1179 
 292   0.0000       0.635576        17.2949 
 293   0.0000       0.638324        17.3697 
 294   0.0000       0.643982        17.5236 
 295   0.0000       0.648209        17.6387 
 296   0.0000       0.653189        17.7742 
 297   0.0000       0.655750        17.8439 
 298   0.0000       0.661621        18.0036 
 299   0.0000       0.665134        18.0992 
 300   0.0000       0.670902        18.2562 
 301   0.0000       0.674813        18.3626 
 302   0.0000       0.677504        18.4358 
 303   0.0000       0.677787        18.4435 
 304   0.0000       0.680467        18.5164 
 305   0.0000       0.684047        18.6139 
 306   0.0000       0.689256        18.7556 
 307   0.0000       0.692382        18.8407 
 308   0.0000       0.696297        18.9472 
 309   0.0000       0.699787        19.0422 
 310   0.0000       0.701594        19.0913 
 311   0.0000       0.704431        19.1685 
 312   0.0000       0.707367        19.2484 
 313   0.0000       0.710509        19.3339 
 314   0.0000       0.711773        19.3683 
 315   0.0000       0.714446        19.4411 
 316   0.0000       0.716981        19.5100 
 317   0.0000       0.719048        19.5663 
 318   0.0000       0.722198        19.6520 
 319   0.0000       0.725340        19.7375 
 320   0.0000       0.728485        19.8231 
 321   0.0000       0.729130        19.8406 
 322   0.0000       0.730272        19.8717 
 323   0.0000       0.732702        19.9378 
 324   0.0000       0.737800        20.0766 
 325   0.0000       0.741364        20.1735 
 326   0.0000       0.744138        20.2490 
 327   0.0000       0.748805        20.3760 
 328   0.0000       0.753546        20.5050 
 329   0.0000       0.755097        20.5472 
 330   0.0000       0.758791        20.6477 
 331   0.0000       0.760688        20.6994 
 332   0.0000       0.762306        20.7434 
 333   0.0000       0.765159        20.8210 
 334   0.0000       0.768740        20.9185 
 335   0.0000       0.772376        21.0174 
 336   0.0000       0.776909        21.1408 
 337   0.0000       0.781831        21.2747 
 338   0.0000       0.786161        21.3925 
 339   0.0000       0.788393        21.4533 
 340   0.0000       0.791739        21.5443 
 341   0.0000       0.794356        21.6155 
 342   0.0000       0.797047        21.6888 
 343   0.0000       0.803469        21.8635 
 344   0.0000       0.806259        21.9394 
 345   0.0000       0.807685        21.9782 
 346   0.0000       0.808189        21.9919 
 347   0.0000       0.813522        22.1371 
 348   0.0000       0.816632        22.2217 
 349   0.0000       0.816875        22.2283 
 350   0.0000       0.818569        22.2744 
 351   0.0000       0.819937        22.3116 
 352   0.0000       0.824678        22.4406 
 353   0.0000       0.827161        22.5082 
 354   0.0000       0.828844        22.5540 
 355   0.0000       0.831183        22.6176 
 356   0.0000       0.832783        22.6612 
 357   0.0000       0.836334        22.7578 
 358   0.0000       0.839309        22.8388 
 359   0.0000       0.840744        22.8778 
 360   0.0000       0.841805        22.9067 
 361   0.0000       0.842629        22.9291 
 362   0.0000       0.844854        22.9896 
 363   0.0000       0.847952        23.0739 
 364   0.0000       0.848720        23.0948 
 365   0.0000       0.855564        23.2811 
 366   0.0000       0.857305        23.3285 
 367   0.0000       0.863314        23.4920 
 368   0.0000       0.865021        23.5384 
 369   0.0000       0.867006        23.5924 
 370   0.0000       0.870443        23.6860 
 371   0.0000       0.871921        23.7262 
 372   0.0000       0.874208        23.7884 
 373   0.0000       0.877547        23.8793 
 374   0.0000       0.878771        23.9126 
 375   0.0000       0.881103        23.9760 
 376   0.0000       0.887733        24.1564 
 377   0.0000       0.889498        24.2045 
 378   0.0000       0.891571        24.2609 
 379   0.0000       0.894906        24.3516 
 380   0.0000       0.897172        24.4133 
 381   0.0000       0.898586        24.4518 
 382   0.0000       0.899939        24.4886 
 383   0.0000       0.901657        24.5353 
 384   0.0000       0.905053        24.6278 
 385   0.0000       0.906117        24.6567 
 386   0.0000       0.909034        24.7361 
 387   0.0000       0.909703        24.7543 
 388   0.0000       0.913041        24.8451 
 389   0.0000       0.915747        24.9188 
 390   0.0000       0.920339        25.0437 
 391   0.0000       0.924873        25.1671 
 392   0.0000       0.926374        25.2079 
 393   0.0000       0.927461        25.2375 
 394   0.0000       0.929424        25.2909 
 395   0.0000       0.931277        25.3413 
 396   0.0000       0.935765        25.4635 
 397   0.0000       0.940577        25.5944 
 398   0.0000       0.942571        25.6487 
 399   0.0000       0.945914        25.7396 
 400   0.0000       0.947406        25.7802 
 401   0.0000       0.952004        25.9053 
 402   0.0000       0.954102        25.9624 
 403   0.0000       0.954896        25.9840 
 404   0.0000       0.960482        26.1360 
 405   0.0000       0.964581        26.2476 
 406   0.0000       0.968745        26.3609 
 407   0.0000       0.978416        26.6240 
 408   0.0000       0.978878        26.6366 
 409   0.0000       0.982075        26.7236 
 410   0.0000       0.985824        26.8256 
 411   0.0000       0.986989        26.8573 
 412   0.0000       0.993498        27.0344 
 413   0.0000       1.002076        27.2679 
 414   0.0000       1.005897        27.3718 
 415   0.0000       1.011549        27.5257 
 416   0.0000       1.013423        27.5766 
 417   0.0000       1.018252        27.7080 
 418   0.0000       1.021205        27.7884 
 419   0.0000       1.027483        27.9592 
 420   0.0000       1.032146        28.0861 
 421   0.0000       1.036426        28.2026 
 422   0.0000       1.047076        28.4924 
 423   0.0000       1.049582        28.5606 
 424   0.0000       1.052702        28.6455 
 425   0.0000       1.070139        29.1200 
 426   0.0000       1.072012        29.1709 
 427   0.0000       1.074474        29.2379 
 428   0.0000       1.080278        29.3959 
 429   0.0000       1.081096        29.4181 
 430   0.0000       1.084296        29.5052 
 431   0.0000       1.085275        29.5318 
 432   0.0000       1.094057        29.7708 
 433   0.0000       1.100396        29.9433 
 434   0.0000       1.103692        30.0330 
 435   0.0000       1.105348        30.0781 
 436   0.0000       1.110784        30.2260 
 437   0.0000       1.113474        30.2992 
 438   0.0000       1.114903        30.3380 
 439   0.0000       1.119221        30.4555 
 440   0.0000       1.121350        30.5135 
 441   0.0000       1.124731        30.6055 
 442   0.0000       1.129386        30.7322 
 443   0.0000       1.131520        30.7902 
 444   0.0000       1.134573        30.8733 
 445   0.0000       1.136862        30.9356 
 446   0.0000       1.141483        31.0613 
 447   0.0000       1.149082        31.2681 
 448   0.0000       1.150507        31.3069 
 449   0.0000       1.154377        31.4122 
 450   0.0000       1.158701        31.5298 
 451   0.0000       1.161465        31.6051 
 452   0.0000       1.163152        31.6510 
 453   0.0000       1.167140        31.7595 
 454   0.0000       1.168301        31.7911 
 455   0.0000       1.174701        31.9652 
 456   0.0000       1.178612        32.0717 
 457   0.0000       1.185221        32.2515 
 458   0.0000       1.186848        32.2958 
 459   0.0000       1.193217        32.4691 
 460   0.0000       1.199414        32.6377 
 461   0.0000       1.201247        32.6876 
 462   0.0000       1.202942        32.7337 
 463   0.0000       1.205179        32.7946 
 464   0.0000       1.207778        32.8653 
 465   0.0000       1.214028        33.0354 
 466   0.0000       1.215833        33.0845 
 467   0.0000       1.218466        33.1561 
 468   0.0000       1.223805        33.3014 
 469   0.0000       1.229361        33.4526 
 470   0.0000       1.235046        33.6073 
 471   0.0000       1.235429        33.6177 
 472   0.0000       1.237983        33.6872 
 473   0.0000       1.239221        33.7209 
 474   0.0000       1.241756        33.7899 
 475   0.0000       1.243516        33.8378 
 476   0.0000       1.248886        33.9839 
 477   0.0000       1.252912        34.0935 
 478   0.0000       1.255004        34.1504 
 479   0.0000       1.255535        34.1648 
 480   0.0000       1.260220        34.2923 
 481   0.0000       1.266346        34.4590 
 482   0.0000       1.271098        34.5883 
 483   0.0000       1.273418        34.6515 
 484   0.0000       1.275099        34.6972 
 485   0.0000       1.279933        34.8287 
 486   0.0000       1.284498        34.9530 
 487   0.0000       1.285243        34.9732 
 488   0.0000       1.290375        35.1129 
 489   0.0000       1.295716        35.2582 
 490   0.0000       1.297810        35.3152 
 491   0.0000       1.301144        35.4059 
 492   0.0000       1.303582        35.4723 
 493   0.0000       1.308286        35.6003 
 494   0.0000       1.312494        35.7148 
 495   0.0000       1.316936        35.8357 
 496   0.0000       1.318016        35.8651 
 497   0.0000       1.320617        35.9358 
 498   0.0000       1.326140        36.0861 
 499   0.0000       1.327115        36.1126 
 500   0.0000       1.329324        36.1727 
 501   0.0000       1.336278        36.3620 
 502   0.0000       1.340862        36.4867 
 503   0.0000       1.343337        36.5541 
 504   0.0000       1.347294        36.6617 
 505   0.0000       1.348940        36.7065 
 506   0.0000       1.353288        36.8248 
 507   0.0000       1.354905        36.8688 
 508   0.0000       1.358364        36.9630 
[...]
 76 H s       :     0.885426  s :     0.885426
      pz      :     0.022117  p :     0.079784
      px      :     0.043616
      py      :     0.014051
 77 H s       :     0.884547  s :     0.884547
      pz      :     0.047979  p :     0.079291
      px      :     0.015024
      py      :     0.016288
 78 H s       :     0.884928  s :     0.884928
      pz      :     0.025882  p :     0.079255
      px      :     0.020455
      py      :     0.032919
 79 H s       :     0.910570  s :     0.910570
      pz      :     0.021795  p :     0.086322
      px      :     0.021662
      py      :     0.042865
 80 H s       :     0.864518  s :     0.864518
      pz      :     0.039388  p :     0.084836
      px      :     0.030292
      py      :     0.015156
 81 H s       :     0.886910  s :     0.886910
      pz      :     0.037818  p :     0.084115
      px      :     0.016186
      py      :     0.030111
 82 H s       :     0.916174  s :     0.916174
      pz      :     0.021965  p :     0.086720
      px      :     0.031646
      py      :     0.033109
 83 H s       :     0.873675  s :     0.873675
      pz      :     0.039250  p :     0.084072
      px      :     0.015281
      py      :     0.029540
 84 H s       :     0.886922  s :     0.886922
      pz      :     0.035753  p :     0.083434
      px      :     0.031688
      py      :     0.015993
 85 H s       :     0.893028  s :     0.893028
      pz      :     0.022485  p :     0.079775
      px      :     0.014077
      py      :     0.043214
 86 H s       :     0.891150  s :     0.891150
      pz      :     0.024725  p :     0.078815
      px      :     0.032970
      py      :     0.021120
 87 H s       :     0.889952  s :     0.889952
      pz      :     0.048009  p :     0.078730
      px      :     0.015585
      py      :     0.015137
 88 H s       :     0.910577  s :     0.910577
      pz      :     0.021654  p :     0.087037
      px      :     0.042926
      py      :     0.022458
 89 H s       :     0.871096  s :     0.871096
      pz      :     0.037956  p :     0.083846
      px      :     0.030492
      py      :     0.015398


                      *****************************
                      * MAYER POPULATION ANALYSIS *
                      *****************************

  NA   - Mulliken gross atomic population
  ZA   - Total nuclear charge
  QA   - Mulliken gross atomic charge
  VA   - Mayer's total valence
  BVA  - Mayer's bonded valence
  FA   - Mayer's free valence

  ATOM       NA         ZA         QA         VA         BVA        FA
  0 C      5.7816     6.0000     0.2184     3.8485     3.8485    -0.0000
  1 N      7.4564     7.0000    -0.4564     3.3364     3.3364     0.0000
  2 C      6.0752     6.0000    -0.0752     3.9245     3.9245    -0.0000
  3 N      7.3400     7.0000    -0.3400     3.4581     3.4581    -0.0000
  4 C      6.0609     6.0000    -0.0609     4.0862     4.0862    -0.0000
  5 N      7.5657     7.0000    -0.5657     3.0964     3.0964     0.0000
  6 C      6.1156     6.0000    -0.1156     3.9592     3.9592    -0.0000
  7 N      7.3409     7.0000    -0.3409     3.4325     3.4325     0.0000
  8 C      5.7907     6.0000     0.2093     3.8433     3.8433     0.0000
  9 N      7.5625     7.0000    -0.5625     3.0773     3.0773    -0.0000
 10 C      5.8809     6.0000     0.1191     3.9100     3.9100     0.0000
 11 N      7.4382     7.0000    -0.4382     3.3797     3.3797     0.0000
 12 C      6.0657     6.0000    -0.0657     3.8670     3.8670    -0.0000
 13 N      7.4295     7.0000    -0.4295     3.4277     3.4277     0.0000
 14 C      5.7858     6.0000     0.2142     3.7893     3.7893     0.0000
 15 N      7.4413     7.0000    -0.4413     3.3710     3.3710     0.0000
 16 C      5.7677     6.0000     0.2323     3.7766     3.7766    -0.0000
 17 C      6.1284     6.0000    -0.1284     3.9671     3.9671    -0.0000
 18 C      6.1552     6.0000    -0.1552     3.7509     3.7509     0.0000
 19 C      5.7983     6.0000     0.2017     3.8671     3.8671    -0.0000
 20 C      5.7857     6.0000     0.2143     3.8288     3.8288    -0.0000
 21 C      6.0793     6.0000    -0.0793     3.8615     3.8615     0.0000
 22 C      6.0893     6.0000    -0.0893     3.9821     3.9821    -0.0000
 23 C      6.0399     6.0000    -0.0399     3.9925     3.9925    -0.0000
 24 C      5.8056     6.0000     0.1944     3.8212     3.8212     0.0000
 25 C      5.8856     6.0000     0.1144     3.8910     3.8910    -0.0000
 26 C      6.0875     6.0000    -0.0875     3.9081     3.9081     0.0000
 27 C      5.7868     6.0000     0.2132     3.8611     3.8611     0.0000
 28 C      6.0614     6.0000    -0.0614     3.9888     3.9888    -0.0000
 29 C      6.1826     6.0000    -0.1826     3.7468     3.7468     0.0000
 30 C      5.7539     6.0000     0.2461     3.7990     3.7990    -0.0000
 31 C      5.7694     6.0000     0.2306     3.8174     3.8174    -0.0000
 32 C      6.0614     6.0000    -0.0614     3.9235     3.9235    -0.0000
 33 C      6.0606     6.0000    -0.0606     3.9713     3.9713    -0.0000
 34 C      6.0505     6.0000    -0.0505     3.9837     3.9837    -0.0000
 35 C      5.7725     6.0000     0.2275     3.8164     3.8164    -0.0000
 36 C      5.8917     6.0000     0.1083     3.8749     3.8749     0.0000
 37 C      6.0642     6.0000    -0.0642     3.9176     3.9176    -0.0000
 38 C      5.7683     6.0000     0.2317     3.8018     3.8018    -0.0000
 39 C      6.0583     6.0000    -0.0583     3.9831     3.9831    -0.0000
 40 C      6.1809     6.0000    -0.1809     3.7268     3.7268     0.0000
 41 C      5.7749     6.0000     0.2251     3.8870     3.8870     0.0000
 42 C      5.8029     6.0000     0.1971     3.8259     3.8259     0.0000
 43 C      6.0726     6.0000    -0.0726     3.8999     3.8999    -0.0000
 44 C      6.0905     6.0000    -0.0905     3.9858     3.9858     0.0000
 45 C      6.0615     6.0000    -0.0615     3.9919     3.9919     0.0000
 46 C      5.7892     6.0000     0.2108     3.8287     3.8287     0.0000
 47 C      5.8845     6.0000     0.1155     3.8934     3.8934     0.0000
 48 C      6.0671     6.0000    -0.0671     3.9092     3.9092     0.0000
 49 C      5.7617     6.0000     0.2383     3.8957     3.8957     0.0000
 50 C      6.0463     6.0000    -0.0463     3.9903     3.9903     0.0000
 51 C      6.1949     6.0000    -0.1949     3.7370     3.7370    -0.0000
 52 H      0.9627     1.0000     0.0373     0.9857     0.9857    -0.0000
 53 H      1.0178     1.0000    -0.0178     0.9989     0.9989     0.0000
 54 H      0.9482     1.0000     0.0518     1.0251     1.0251    -0.0000
 55 H      0.9651     1.0000     0.0349     0.9868     0.9868     0.0000
 56 H      0.9513     1.0000     0.0487     0.9695     0.9695     0.0000
 57 H      0.9519     1.0000     0.0481     0.9824     0.9824     0.0000
 58 H      0.9537     1.0000     0.0463     0.9848     0.9848     0.0000
 59 H      1.0036     1.0000    -0.0036     1.0007     1.0007    -0.0000
 60 H      0.9518     1.0000     0.0482     1.0168     1.0168    -0.0000
 61 H      0.8291     1.0000     0.1709     1.0420     1.0420    -0.0000
 62 H      0.8243     1.0000     0.1757     1.0436     1.0436     0.0000
 63 H      0.9441     1.0000     0.0559     0.9852     0.9852    -0.0000
 64 H      1.0088     1.0000    -0.0088     0.9948     0.9948    -0.0000
 65 H      0.9530     1.0000     0.0470     1.0099     1.0099     0.0000
 66 H      0.9440     1.0000     0.0560     0.9854     0.9854     0.0000
 67 H      0.9370     1.0000     0.0630     0.9720     0.9720     0.0000
 68 H      0.9425     1.0000     0.0575     0.9868     0.9868    -0.0000
 69 H      0.9433     1.0000     0.0567     0.9828     0.9828    -0.0000
 70 H      1.0296     1.0000    -0.0296     0.9937     0.9937     0.0000
 71 H      0.9546     1.0000     0.0454     1.0058     1.0058     0.0000
 72 H      0.9287     1.0000     0.0713     0.9835     0.9835    -0.0000
 73 H      1.0079     1.0000    -0.0079     1.0009     1.0009    -0.0000
 74 H      0.9396     1.0000     0.0604     1.0101     1.0101     0.0000
 75 H      0.9294     1.0000     0.0706     0.9839     0.9839     0.0000
 76 H      0.9251     1.0000     0.0749     0.9721     0.9721    -0.0000
 77 H      0.9321     1.0000     0.0679     0.9855     0.9855    -0.0000
 78 H      0.9328     1.0000     0.0672     0.9854     0.9854     0.0000
 79 H      1.0163     1.0000    -0.0163     0.9976     0.9976     0.0000
 80 H      0.9389     1.0000     0.0611     1.0072     1.0072    -0.0000
 81 H      0.9459     1.0000     0.0541     0.9856     0.9856     0.0000
 82 H      1.0252     1.0000    -0.0252     0.9933     0.9933     0.0000
 83 H      0.9587     1.0000     0.0413     1.0083     1.0083     0.0000
 84 H      0.9463     1.0000     0.0537     0.9852     0.9852     0.0000
 85 H      0.9395     1.0000     0.0605     0.9716     0.9716     0.0000
 86 H      0.9448     1.0000     0.0552     0.9839     0.9839    -0.0000
 87 H      0.9430     1.0000     0.0570     0.9856     0.9856    -0.0000
 88 H      1.0145     1.0000    -0.0145     0.9968     0.9968    -0.0000
 89 H      0.9530     1.0000     0.0470     1.0073     1.0073    -0.0000

  Mayer bond orders larger than 0.100000
B(  0-C ,  1-N ) :   1.0984 B(  0-C , 17-C ) :   1.7134 B(  0-C , 52-H ) :   0.9636 
B(  1-N ,  8-C ) :   1.0851 B(  1-N , 10-C ) :   0.9785 B(  2-C , 12-C ) :   1.4936 
B(  2-C , 16-C ) :   1.3673 B(  2-C , 53-H ) :   0.9743 B(  3-N , 14-C ) :   1.2199 
B(  3-N , 16-C ) :   1.1857 B(  3-N , 61-H ) :   0.8991 B(  4-C ,  6-C ) :   1.2131 
B(  4-C , 17-C ) :   1.2126 B(  4-C , 18-C ) :   1.4648 B(  5-N , 19-C ) :   1.4563 
B(  5-N , 27-C ) :   1.3741 B(  6-C ,  8-C ) :   1.7194 B(  6-C , 54-H ) :   0.9250 
B(  7-N , 30-C ) :   1.1947 B(  7-N , 38-C ) :   1.1903 B(  7-N , 62-H ) :   0.8966 
B(  8-C , 55-H ) :   0.9651 B(  9-N , 41-C ) :   1.3926 B(  9-N , 49-C ) :   1.4273 
B( 10-C , 56-H ) :   0.9773 B( 10-C , 57-H ) :   0.9831 B( 10-C , 58-H ) :   0.9835 
B( 11-N , 20-C ) :   1.1320 B( 11-N , 24-C ) :   1.1082 B( 11-N , 25-C ) :   0.9596 
B( 12-C , 14-C ) :   1.3584 B( 12-C , 59-H ) :   0.9570 B( 13-N , 31-C ) :   1.1619 
B( 13-N , 35-C ) :   1.1589 B( 13-N , 36-C ) :   0.9415 B( 14-C , 18-C ) :   1.1200 
B( 15-N , 42-C ) :   1.1069 B( 15-N , 46-C ) :   1.1233 B( 15-N , 47-C ) :   0.9618 
B( 16-C , 51-C ) :   1.1677 B( 17-C , 60-H ) :   0.9254 B( 18-C , 19-C ) :   1.1188 
B( 19-C , 21-C ) :   1.2510 B( 20-C , 28-C ) :   1.6273 B( 20-C , 63-H ) :   0.9702 
B( 21-C , 26-C ) :   1.5921 B( 21-C , 64-H ) :   0.9561 B( 22-C , 23-C ) :   1.2905 
B( 22-C , 28-C ) :   1.2652 B( 22-C , 29-C ) :   1.2237 B( 23-C , 24-C ) :   1.6188 
B( 23-C , 65-H ) :   0.9704 B( 24-C , 66-H ) :   0.9695 B( 25-C , 67-H ) :   0.9760 
B( 25-C , 68-H ) :   0.9828 B( 25-C , 69-H ) :   0.9823 B( 26-C , 27-C ) :   1.2526 
B( 26-C , 70-H ) :   0.9683 B( 27-C , 29-C ) :   1.2078 B( 28-C , 71-H ) :   0.9720 
B( 29-C , 30-C ) :   1.2471 B( 30-C , 32-C ) :   1.2781 B( 31-C , 39-C ) :   1.5883 
B( 31-C , 72-H ) :   0.9681 B( 32-C , 37-C ) :   1.5811 B( 32-C , 73-H ) :   0.9786 
B( 33-C , 34-C ) :   1.3076 B( 33-C , 39-C ) :   1.3031 B( 33-C , 40-C ) :   1.1758 
B( 34-C , 35-C ) :   1.5854 B( 34-C , 74-H ) :   0.9696 B( 35-C , 75-H ) :   0.9681 
B( 36-C , 76-H ) :   0.9767 B( 36-C , 77-H ) :   0.9816 B( 36-C , 78-H ) :   0.9823 
B( 37-C , 38-C ) :   1.2836 B( 37-C , 79-H ) :   0.9765 B( 38-C , 40-C ) :   1.2349 
B( 39-C , 80-H ) :   0.9705 B( 40-C , 41-C ) :   1.2503 B( 41-C , 43-C ) :   1.1859 
B( 42-C , 50-C ) :   1.6347 B( 42-C , 81-H ) :   0.9696 B( 43-C , 48-C ) :   1.6666 
B( 43-C , 82-H ) :   0.9721 B( 44-C , 45-C ) :   1.2624 B( 44-C , 50-C ) :   1.2709 
B( 44-C , 51-C ) :   1.2635 B( 45-C , 46-C ) :   1.6359 B( 45-C , 83-H ) :   0.9719 
B( 46-C , 84-H ) :   0.9701 B( 47-C , 85-H ) :   0.9762 B( 47-C , 86-H ) :   0.9829 
B( 47-C , 87-H ) :   0.9825 B( 48-C , 49-C ) :   1.1894 B( 48-C , 88-H ) :   0.9749 
B( 49-C , 51-C ) :   1.2424 B( 50-C , 89-H ) :   0.9708 

-------
TIMINGS
-------

Total SCF time: 0 days 0 hours 44 min 5 sec 

Total time                  ....    2645.155 sec
Sum of individual times     ....    2642.096 sec  ( 99.9%)

Fock matrix formation       ....    2624.582 sec  ( 99.2%)
Diagonalization             ....       4.715 sec  (  0.2%)
Density matrix formation    ....       0.494 sec  (  0.0%)
Population analysis         ....       0.301 sec  (  0.0%)
Initial guess               ....       2.368 sec  (  0.1%)
Orbital Transformation      ....       0.000 sec  (  0.0%)
Orbital Orthonormalization  ....       0.000 sec  (  0.0%)
DIIS solution               ....       2.504 sec  (  0.1%)
SOSCF solution              ....       5.760 sec  (  0.2%)

Maximum memory used throughout the entire SCF-calculation: 304.3 MB


           ************************************************************
           *        Program running with 8 parallel MPI-processes     *
           *              working on a common directory               *
           ************************************************************

------------------------------------------------------------------------------
                                ORCA  MP2 
------------------------------------------------------------------------------

Freezing NCore=104 chemical core electrons

----------
MP2 ENERGY (disk based algorithm)
----------

Dimension of the basis                    ...  918
Memory devoted to MP2                     ... 7000 MB   
Data format for buffers                   ... DOUBLE
Compression type for matrix containers    ... UNCOMPRESSED

-------------------------------
PARTIAL EXCHANGE TRANSFORMATION
-------------------------------

Transformation type                        ... one-operator
Generation of integrals (i,mue|j,nue)      ... ON
Generation of integrals (mue,kappa|nue,tau)... OFF
Generation of integrals (i,mue|a,nue)      ... OFF
Dimension of the basis                     ...  918
Number of internal MOs                     ...  127 (  52- 178)
Pair cutoff                                ... 2.500e-12 Eh
Number of AO pairs in the trafo            ... 421821
Total Number of distinct AO pairs          ... 421821
Memory devoted for trafo                   ... 7000.0 MB 
Max. Number of MO pairs treated together   ... 1088      
Number Format for Storage                  ... Double (8 Byte)
Integral package used                      ... LIBINT

Starting integral evaluation:
    ... done with AO integral generation
Closing buffer AOK     (38.30 GB; CompressionRatio= 1.32)
Collecting buffer AOK 
Number of MO pairs included in the trafo   ... 8128
------------------------
SORTING OF (i,mue|j,nue)
------------------------

IBATCH = 1 of  1
Closing buffer KAO     (51.03 GB; CompressionRatio= 1.00)
Collecting buffer KAO 
N(AO-Batches) Done                         ... 175046164 
N(AO-Batches) Skipped                      ... 167210090 
N(IJ)-pairs Skipped                        ...         0 
TOTAL TIME for half transformation         ...  1050.721 sec
AO-integral generation                     ...   253.041 sec
Half transformation                        ...   466.651 sec
K-integral sorting                         ...    96.904 sec

Finished integral transformation - now doing MP2 part

OPERATOR COMBINATION   0   0: ij=( 52..178, 52..178)
Process 5:   Internal MO 132
Process 2:   Internal MO  84
Process 0:   Internal MO  54
Process 0:   Internal MO  57
Process 1:   Internal MO  69
Process 0:   Internal MO  60
Process 4:   Internal MO 117
Process 0:   Internal MO  63
Process 1:   Internal MO  72
Process 3:   Internal MO 102
Process 2:   Internal MO  87
Process 0:   Internal MO  66
Process 7:   Internal MO 165
Process 1:   Internal MO  75
Process 6:   Internal MO 150
Process 2:   Internal MO  90
Process 1:   Internal MO  78
Process 5:   Internal MO 135
Process 3:   Internal MO 105
Process 4:   Internal MO 120
Process 1:   Internal MO  81
Process 2:   Internal MO  93
Process 3:   Internal MO 108
Process 2:   Internal MO  96
Process 7:   Internal MO 168
Process 4:   Internal MO 123
Process 6:   Internal MO 153
Process 5:   Internal MO 138
Process 3:   Internal MO 111
Process 2:   Internal MO  99
Process 4:   Internal MO 126
Process 5:   Internal MO 141
Process 3:   Internal MO 114
Process 6:   Internal MO 156
Process 7:   Internal MO 171
Process 4:   Internal MO 129
Process 5:   Internal MO 144
Process 6:   Internal MO 159
Process 7:   Internal MO 174
Process 5:   Internal MO 147
Process 6:   Internal MO 162
Process 7:   Internal MO 177
-----------------------------------------------
 MP2 CORRELATION ENERGY   :     -7.284673362 Eh
-----------------------------------------------


-------
TIMINGS
-------
Total time                : 1209.147 sec
Integral trafo            : 1059.483 sec ( 87.6%)
K(i,j)                    :    9.479 sec (  0.8%)
T(i,j)                    :    0.150 sec (  0.0%)

---------------------------------------
MP2 TOTAL ENERGY:    -2130.842879178 Eh
---------------------------------------

Maximum memory used throughout the entire MP2-calculation: 6735.8 MB

-------------------------   --------------------
FINAL SINGLE POINT ENERGY     -2130.842879177663
-------------------------   --------------------


                            ***************************************
                            *     ORCA property calculations      *
                            ***************************************


  WARNING: The energy has been calculated at the MP2 level but the densities
           used in the property calculations are still SCF densities
           MP2 response densities have not been calculated 
           use %mp2 Density relaxed end
           or  %mp2 Density unrelaxed end

                                    ---------------------
                                    Active property flags
                                    ---------------------
   (+) Dipole Moment


------------------------------------------------------------------------------
                       ORCA ELECTRIC PROPERTIES CALCULATION
------------------------------------------------------------------------------

Dipole Moment Calculation                       ... on
Quadrupole Moment Calculation                   ... off
Polarizability Calculation                      ... off
GBWName                                         ... /scratch/chu_02/allen/tmpyp4_amber_gaff2/conf1/conf1/Conf343.orca.gbw
Electron density                                ... /scratch/chu_02/allen/tmpyp4_amber_gaff2/conf1/conf1/Conf343.orca.scfp
The origin for moment calculation is the CENTER OF MASS  = (-0.001425, -0.005063  0.001147)

-------------
DIPOLE MOMENT
-------------
                                X             Y             Z
Electronic contribution:      2.66061      -4.37131      -0.07161
Nuclear contribution   :     -0.01908       0.17420       0.08257
                        -----------------------------------------
Total Dipole Moment    :      2.64154      -4.19712       0.01096
                        -----------------------------------------
Magnitude (a.u.)       :      4.95920
Magnitude (Debye)      :     12.60527



--------------------
Rotational spectrum 
--------------------
 
Rotational constants in cm-1:     0.001503     0.001477     0.000760 
Rotational constants in MHz :    45.060183    44.281153    22.789327 

 Dipole components along the rotational axes: 
x,y,z [a.u.] :     3.402772    -3.607573     0.013534 
x,y,z [Debye]:     8.649159    -9.169722     0.034402 

 

Timings for individual modules:

Sum of individual times         ...     3859.980 sec (=  64.333 min)
GTO integral calculation        ...        3.070 sec (=   0.051 min)   0.1 %
SCF iterations                  ...     2646.466 sec (=  44.108 min)  68.6 %
MP2 module                      ...     1210.443 sec (=  20.174 min)  31.4 %
                             ****ORCA TERMINATED NORMALLY****
TOTAL RUN TIME: 0 days 1 hours 4 minutes 22 seconds 278 msec
# of primitive gaussian functions

