
                                 *****************
                                 * O   R   C   A *
                                 *****************

                                            #,                                       
                                            ###                                      
                                            ####                                     
                                            #####                                    
                                            ######                                   
                                           ########,                                 
                                     ,,################,,,,,                         
                               ,,#################################,,                 
                          ,,##########################################,,             
                       ,#########################################, ''#####,          
                    ,#############################################,,   '####,        
                  ,##################################################,,,,####,       
                ,###########''''           ''''###############################       
              ,#####''   ,,,,##########,,,,          '''####'''          '####       
            ,##' ,,,,###########################,,,                        '##       
           ' ,,###''''                  '''############,,,                           
         ,,##''                                '''############,,,,        ,,,,,,###''
      ,#''                                            '''#######################'''  
     '                                                          ''''####''''         
             ,#######,   #######,   ,#######,      ##                                
            ,#'     '#,  ##    ##  ,#'     '#,    #''#        ######   ,####,        
            ##       ##  ##   ,#'  ##            #'  '#       #        #'  '#        
            ##       ##  #######   ##           ,######,      #####,   #    #        
            '#,     ,#'  ##    ##  '#,     ,#' ,#      #,         ##   #,  ,#        
             '#######'   ##     ##  '#######'  #'      '#     #####' # '####'        



                  #######################################################
                  #                        -***-                        #
                  #          Department of theory and spectroscopy      #
                  #    Directorship and core code : Frank Neese         #
                  #        Max Planck Institute fuer Kohlenforschung    #
                  #                Kaiser Wilhelm Platz 1               #
                  #                 D-45470 Muelheim/Ruhr               #
                  #                      Germany                        #
                  #                                                     #
                  #                  All rights reserved                #
                  #                        -***-                        #
                  #######################################################


                         Program Version 5.0.4 -  RELEASE  -


 With contributions from (in alphabetic order):
   Daniel Aravena         : Magnetic Suceptibility
   Michael Atanasov       : Ab Initio Ligand Field Theory (pilot matlab implementation)
   Alexander A. Auer      : GIAO ZORA, VPT2 properties, NMR spectrum
   Ute Becker             : Parallelization
   Giovanni Bistoni       : ED, misc. LED, open-shell LED, HFLD
   Martin Brehm           : Molecular dynamics
   Dmytro Bykov           : SCF Hessian
   Vijay G. Chilkuri      : MRCI spin determinant printing, contributions to CSF-ICE
   Dipayan Datta          : RHF DLPNO-CCSD density
   Achintya Kumar Dutta   : EOM-CC, STEOM-CC
   Dmitry Ganyushin       : Spin-Orbit,Spin-Spin,Magnetic field MRCI
   Miquel Garcia          : C-PCM and meta-GGA Hessian, CC/C-PCM, Gaussian charge scheme
   Yang Guo               : DLPNO-NEVPT2, F12-NEVPT2, CIM, IAO-localization
   Andreas Hansen         : Spin unrestricted coupled pair/coupled cluster methods
   Benjamin Helmich-Paris : MC-RPA, TRAH-SCF, COSX integrals
   Lee Huntington         : MR-EOM, pCC
   Robert Izsak           : Overlap fitted RIJCOSX, COSX-SCS-MP3, EOM
   Marcus Kettner         : VPT2
   Christian Kollmar      : KDIIS, OOCD, Brueckner-CCSD(T), CCSD density, CASPT2, CASPT2-K
   Simone Kossmann        : Meta GGA functionals, TD-DFT gradient, OOMP2, MP2 Hessian
   Martin Krupicka        : Initial AUTO-CI
   Lucas Lang             : DCDCAS
   Marvin Lechner         : AUTO-CI (C++ implementation), FIC-MRCC
   Dagmar Lenk            : GEPOL surface, SMD
   Dimitrios Liakos       : Extrapolation schemes; Compound Job, initial MDCI parallelization
   Dimitrios Manganas     : Further ROCIS development; embedding schemes
   Dimitrios Pantazis     : SARC Basis sets
   Anastasios Papadopoulos: AUTO-CI, single reference methods and gradients
   Taras Petrenko         : DFT Hessian,TD-DFT gradient, ASA, ECA, R-Raman, ABS, FL, XAS/XES, NRVS
   Peter Pinski           : DLPNO-MP2, DLPNO-MP2 Gradient
   Christoph Reimann      : Effective Core Potentials
   Marius Retegan         : Local ZFS, SOC
   Christoph Riplinger    : Optimizer, TS searches, QM/MM, DLPNO-CCSD(T), (RO)-DLPNO pert. Triples
   Tobias Risthaus        : Range-separated hybrids, TD-DFT gradient, RPA, STAB
   Michael Roemelt        : Original ROCIS implementation
   Masaaki Saitow         : Open-shell DLPNO-CCSD energy and density
   Barbara Sandhoefer     : DKH picture change effects
   Avijit Sen             : IP-ROCIS
   Kantharuban Sivalingam : CASSCF convergence, NEVPT2, FIC-MRCI
   Bernardo de Souza      : ESD, SOC TD-DFT
   Georgi Stoychev        : AutoAux, RI-MP2 NMR, DLPNO-MP2 response
   Willem Van den Heuvel  : Paramagnetic NMR
   Boris Wezisla          : Elementary symmetry handling
   Frank Wennmohs         : Technical directorship


 We gratefully acknowledge several colleagues who have allowed us to
 interface, adapt or use parts of their codes:
   Stefan Grimme, W. Hujo, H. Kruse, P. Pracht,  : VdW corrections, initial TS optimization,
                  C. Bannwarth, S. Ehlert          DFT functionals, gCP, sTDA/sTD-DF
   Ed Valeev, F. Pavosevic, A. Kumar             : LibInt (2-el integral package), F12 methods
   Garnet Chan, S. Sharma, J. Yang, R. Olivares  : DMRG
   Ulf Ekstrom                                   : XCFun DFT Library
   Mihaly Kallay                                 : mrcc  (arbitrary order and MRCC methods)
   Jiri Pittner, Ondrej Demel                    : Mk-CCSD
   Frank Weinhold                                : gennbo (NPA and NBO analysis)
   Christopher J. Cramer and Donald G. Truhlar   : smd solvation model
   Lars Goerigk                                  : TD-DFT with DH, B97 family of functionals
   V. Asgeirsson, H. Jonsson                     : NEB implementation
   FAccTs GmbH                                   : IRC, NEB, NEB-TS, DLPNO-Multilevel, CI-OPT
                                                   MM, QMMM, 2- and 3-layer-ONIOM, Crystal-QMMM,
                                                   LR-CPCM, SF, NACMEs, symmetry and pop. for TD-DFT,
                                                   nearIR, NL-DFT gradient (VV10), updates on ESD,
                                                   ML-optimized integration grids
   S Lehtola, MJT Oliveira, MAL Marques          : LibXC Library
   Liviu Ungur et al                             : ANISO software


 Your calculation uses the libint2 library for the computation of 2-el integrals
 For citations please refer to: http://libint.valeyev.net

 Your ORCA version has been built with support for libXC version: 5.1.0
 For citations please refer to: https://tddft.org/programs/libxc/

 This ORCA versions uses:
   CBLAS   interface :  Fast vector & matrix operations
   LAPACKE interface :  Fast linear algebra routines
   SCALAPACK package :  Parallel linear algebra routines
   Shared memory     :  Shared parallel matrices
   BLAS/LAPACK       :  OpenBLAS 0.3.15  USE64BITINT DYNAMIC_ARCH NO_AFFINITY Sandybridge SINGLE_THREADED
        Core in use  :  Sandybridge
   Copyright (c) 2011-2014, The OpenBLAS Project


================================================================================

----- Orbital basis set information -----
Your calculation utilizes the basis: cc-pVDZ 
       H, B-Ne : Obtained from the ccRepo (grant-hill.group.shef.ac.uk/ccrepo) Feb. 2017
                 T. H. Dunning, Jr., J. Chem. Phys. 90, 1007 (1989)
            He : Obtained from the ccRepo (grant-hill.group.shef.ac.uk/ccrepo) Feb. 2017
                 D. E. Woon, T. H. Dunning, Jr., J. Chem. Phys. 100, 2975 (1994)
  Li-Be, Na-Mg : Obtained from the ccRepo (grant-hill.group.shef.ac.uk/ccrepo) Feb. 2017
                 B. P. Prascher, D. E. Woon, K. A. Peterson, T. H. Dunning, Jr., A. K. Wilson, Theor. Chem. Acc. 128, 69 (2011)
         Al-Ar : Obtained from the ccRepo (grant-hill.group.shef.ac.uk/ccrepo) Feb. 2017
                 D. E. Woon, T. H. Dunning, Jr., J. Chem. Phys. 98, 1358 (1993)
            Ca : Obtained from the Peterson Research Group Website (tyr0.chem.wsu.edu/~kipeters) Feb. 2017
                 J. Koput, K. A. Peterson, J. Phys. Chem. 106, 9595 (2002)
         Sc-Zn : Obtained from the ccRepo (grant-hill.group.shef.ac.uk/ccrepo) Feb. 2017
                 N. B. Balabanov, K. A. Peterson, J. Chem. Phys. 123, 064107 (2005)
                 N. B. Balabanov, K. A. Peterson, J. Chem. Phys. 125, 074110 (2006)
         Ga-Kr : Obtained from the ccRepo (grant-hill.group.shef.ac.uk/ccrepo) Feb. 2017
                 A. K. Wilson, D. E. Woon, K. A. Peterson, T. H. Dunning, Jr., J. Chem. Phys. 110, 7667 (1999)

================================================================================
                                        WARNINGS
                       Please study these warnings very carefully!
================================================================================


WARNING: No MP2 level density has been requested!
         To caclulate MP2 level properties use
         %mp2 Density relaxed end
         or
         %mp2 Density unrelaxed end

WARNING: Post HF methods need fully converged wavefunctions
  ===> : Setting SCFConvForced true
         You can overwrite this default with %scf ConvForced false 


INFO   : the flag for use of the SHARK integral package has been found!

================================================================================
                                       INPUT FILE
================================================================================
NAME = /scratch/allen/tmpyp4_amber_gaff2/2.Mdgx/conf11/conf11/Conf101.orca
|  1> ! PAL2
|  2> ! mp2 cc-pvdz TightSCF  NoKeepInts
|  3> 
|  4> %scf
|  5>   MaxCore 2000
|  6> end
|  7> %mp2
|  8>   MaxCore 2000
|  9> end
| 10> * xyz 0 1
| 11>    C       -4.15100         5.75500        -1.06600
| 12>    C        1.47400         4.04100         0.05700
| 13>    C       -2.80200         4.09300         0.04900
| 14>    C       -3.03400         4.78400         1.24900
| 15>    C       -3.81100         5.92500         1.25300
| 16>    C       -5.21400         7.60100         0.15100
| 17>    C        0.13200         4.30700         0.06100
| 18>    C       -0.56900         3.05600         0.04700
| 19>    C        1.64900         2.61800         0.02300
| 20>    C       -3.38500         4.60600        -1.12000
| 21>    N       -4.35400         6.39700         0.10700
| 22>    N        0.38800         2.06700         0.02500
| 23>    N       -2.01000         0.39500        -0.07500
| 24>    N       -0.38800        -2.07400        -0.02700
| 25>    N        2.01000        -0.40100         0.06500
| 26>    C       -1.96000         2.86100         0.02400
| 27>    C       -2.62300         1.61500        -0.01800
| 28>    C       -5.57300        -4.32900         1.06600
| 29>    C       -4.07300         1.47100         0.05600
| 30>    C       -4.10600        -2.75600        -0.02600
| 31>    C       -4.99500        -2.75700        -1.11100
| 32>    C       -6.13200        -3.54200        -1.07600
| 33>    C       -7.65100        -5.11300         0.04000
| 34>    C       -4.32400         0.14100         0.03700
| 35>    C       -3.02500        -0.52000        -0.04800
| 36>    C       -4.42200        -3.56600         1.07500
| 37>    N       -6.40700        -4.31300         0.00100
| 38>    C       -2.86700        -1.92200        -0.04000
| 39>    C       -1.65000        -2.62400        -0.02700
| 40>    C        3.56800        -6.14200        -1.04000
| 41>    C       -1.47600        -4.04900        -0.03400
| 42>    C        2.80300        -4.09900        -0.00800
| 43>    C        3.65700        -4.38400         1.06900
| 44>    C        4.42700        -5.53000         1.05900
| 45>    C        5.24500        -7.58800         0.01400
| 46>    C       -0.13400        -4.31500        -0.02200
| 47>    C        0.56800        -3.06400        -0.02700
| 48>    C        2.77500        -5.01200        -1.07400
| 49>    N        4.37600        -6.39100         0.01700
| 50>    C        1.95900        -2.86900        -0.00900
| 51>    C        2.62100        -1.62200         0.00900
| 52>    C        5.54300         4.33900        -1.13000
| 53>    C        4.07000        -1.47900        -0.09400
| 54>    C        4.10400         2.75100        -0.02100
| 55>    C        5.02700         2.72900         1.03600
| 56>    C        6.16600         3.50900         0.97800
| 57>    C        7.61900         5.15300        -0.11500
| 58>    C        4.32100        -0.14800        -0.09200
| 59>    C        3.02500         0.51400         0.01500
| 60>    C        4.38700         3.58200        -1.11500
| 61>    C        2.86600         1.91600         0.01300
| 62>    N        6.41300         4.29600        -0.09500
| 63>    H       -4.60900         6.19300        -1.94400
| 64>    H        2.27400         4.76600         0.08100
| 65>    H       -2.61900         4.43200         2.18500
| 66>    H       -4.02500         6.48500         2.15300
| 67>    H       -6.23600         7.29900         0.38800
| 68>    H       -4.83400         8.27500         0.91800
| 69>    H       -5.18400         8.08900        -0.82300
| 70>    H       -0.33200         5.28200         0.06900
| 71>    H       -3.23100         4.12600        -2.08000
| 72>    H        0.18200         1.07200         0.00500
| 73>    H       -0.18300        -1.08000        -0.02100
| 74>    H       -5.86400        -4.96200         1.89500
| 75>    H       -4.79400         2.27200         0.13900
| 76>    H       -4.80000        -2.16000        -1.99400
| 77>    H       -6.84100        -3.58200        -1.89300
| 78>    H       -8.42800        -4.53600         0.54600
| 79>    H       -7.95600        -5.33700        -0.98100
| 80>    H       -7.45600        -6.03700         0.58400
| 81>    H       -5.28700        -0.34400         0.10000
| 82>    H       -3.78000        -3.60100         1.94700
| 83>    H        3.58700        -6.86800        -1.84300
| 84>    H       -2.27600        -4.77400        -0.05000
| 85>    H        3.71400        -3.72400         1.92600
| 86>    H        5.09200        -5.79500         1.87100
| 87>    H        6.20500        -7.32900        -0.43900
| 88>    H        5.39300        -7.91700         1.04200
| 89>    H        4.75900        -8.37300        -0.56400
| 90>    H        0.32900        -5.29000        -0.00800
| 91>    H        2.14600        -4.84200        -1.94000
| 92>    H        5.80800         4.98600        -1.95600
| 93>    H        4.78800        -2.28100        -0.18500
| 94>    H        4.86000         2.11400         1.91200
| 95>    H        6.90100         3.53100         1.77200
| 96>    H        7.38300         6.10900         0.35600
| 97>    H        8.41400         4.65200         0.43500
| 98>    H        7.92100         5.31000        -1.15000
| 99>    H        5.28300         0.33600        -0.17900
|100>    H        3.72000         3.63200        -1.96700
|101> *
|102> 
|103>                          ****END OF INPUT****
================================================================================

                       ****************************
                       * Single Point Calculation *
                       ****************************

---------------------------------
CARTESIAN COORDINATES (ANGSTROEM)
---------------------------------
  C     -4.151000    5.755000   -1.066000
  C      1.474000    4.041000    0.057000
  C     -2.802000    4.093000    0.049000
  C     -3.034000    4.784000    1.249000
  C     -3.811000    5.925000    1.253000
  C     -5.214000    7.601000    0.151000
  C      0.132000    4.307000    0.061000
  C     -0.569000    3.056000    0.047000
  C      1.649000    2.618000    0.023000
  C     -3.385000    4.606000   -1.120000
  N     -4.354000    6.397000    0.107000
  N      0.388000    2.067000    0.025000
  N     -2.010000    0.395000   -0.075000
  N     -0.388000   -2.074000   -0.027000
  N      2.010000   -0.401000    0.065000
  C     -1.960000    2.861000    0.024000
  C     -2.623000    1.615000   -0.018000
  C     -5.573000   -4.329000    1.066000
  C     -4.073000    1.471000    0.056000
  C     -4.106000   -2.756000   -0.026000
  C     -4.995000   -2.757000   -1.111000
  C     -6.132000   -3.542000   -1.076000
  C     -7.651000   -5.113000    0.040000
  C     -4.324000    0.141000    0.037000
  C     -3.025000   -0.520000   -0.048000
  C     -4.422000   -3.566000    1.075000
  N     -6.407000   -4.313000    0.001000
  C     -2.867000   -1.922000   -0.040000
  C     -1.650000   -2.624000   -0.027000
  C      3.568000   -6.142000   -1.040000
  C     -1.476000   -4.049000   -0.034000
  C      2.803000   -4.099000   -0.008000
  C      3.657000   -4.384000    1.069000
  C      4.427000   -5.530000    1.059000
  C      5.245000   -7.588000    0.014000
  C     -0.134000   -4.315000   -0.022000
  C      0.568000   -3.064000   -0.027000
  C      2.775000   -5.012000   -1.074000
  N      4.376000   -6.391000    0.017000
  C      1.959000   -2.869000   -0.009000
  C      2.621000   -1.622000    0.009000
  C      5.543000    4.339000   -1.130000
  C      4.070000   -1.479000   -0.094000
  C      4.104000    2.751000   -0.021000
  C      5.027000    2.729000    1.036000
  C      6.166000    3.509000    0.978000
  C      7.619000    5.153000   -0.115000
  C      4.321000   -0.148000   -0.092000
  C      3.025000    0.514000    0.015000
  C      4.387000    3.582000   -1.115000
  C      2.866000    1.916000    0.013000
  N      6.413000    4.296000   -0.095000
  H     -4.609000    6.193000   -1.944000
  H      2.274000    4.766000    0.081000
  H     -2.619000    4.432000    2.185000
  H     -4.025000    6.485000    2.153000
  H     -6.236000    7.299000    0.388000
  H     -4.834000    8.275000    0.918000
  H     -5.184000    8.089000   -0.823000
  H     -0.332000    5.282000    0.069000
  H     -3.231000    4.126000   -2.080000
  H      0.182000    1.072000    0.005000
  H     -0.183000   -1.080000   -0.021000
  H     -5.864000   -4.962000    1.895000
  H     -4.794000    2.272000    0.139000
  H     -4.800000   -2.160000   -1.994000
  H     -6.841000   -3.582000   -1.893000
  H     -8.428000   -4.536000    0.546000
  H     -7.956000   -5.337000   -0.981000
  H     -7.456000   -6.037000    0.584000
  H     -5.287000   -0.344000    0.100000
  H     -3.780000   -3.601000    1.947000
  H      3.587000   -6.868000   -1.843000
  H     -2.276000   -4.774000   -0.050000
  H      3.714000   -3.724000    1.926000
  H      5.092000   -5.795000    1.871000
  H      6.205000   -7.329000   -0.439000
  H      5.393000   -7.917000    1.042000
  H      4.759000   -8.373000   -0.564000
  H      0.329000   -5.290000   -0.008000
  H      2.146000   -4.842000   -1.940000
  H      5.808000    4.986000   -1.956000
  H      4.788000   -2.281000   -0.185000
  H      4.860000    2.114000    1.912000
  H      6.901000    3.531000    1.772000
  H      7.383000    6.109000    0.356000
  H      8.414000    4.652000    0.435000
  H      7.921000    5.310000   -1.150000
  H      5.283000    0.336000   -0.179000
  H      3.720000    3.632000   -1.967000

----------------------------
CARTESIAN COORDINATES (A.U.)
----------------------------
  NO LB      ZA    FRAG     MASS         X           Y           Z
   0 C     6.0000    0    12.011   -7.844253   10.875374   -2.014448
   1 C     6.0000    0    12.011    2.785456    7.636383    0.107714
   2 C     6.0000    0    12.011   -5.295013    7.734649    0.092597
   3 C     6.0000    0    12.011   -5.733429    9.040450    2.360268
   4 C     6.0000    0    12.011   -7.201746   11.196627    2.367827
   5 C     6.0000    0    12.011   -9.853032   14.363808    0.285349
   6 C     6.0000    0    12.011    0.249444    8.139050    0.115273
   7 C     6.0000    0    12.011   -1.075254    5.775003    0.088817
   8 C     6.0000    0    12.011    3.116158    4.947303    0.043464
   9 C     6.0000    0    12.011   -6.396723    8.704079   -2.116493
  10 N     7.0000    0    14.007   -8.227868   12.088578    0.202201
  11 N     7.0000    0    14.007    0.733214    3.906064    0.047243
  12 N     7.0000    0    14.007   -3.798350    0.746442   -0.141729
  13 N     7.0000    0    14.007   -0.733214   -3.919292   -0.051023
  14 N     7.0000    0    14.007    3.798350   -0.757780    0.122832
  15 C     6.0000    0    12.011   -3.703863    5.406506    0.045353
  16 C     6.0000    0    12.011   -4.956752    3.051908   -0.034015
  17 C     6.0000    0    12.011  -10.531444   -8.180624    2.014448
  18 C     6.0000    0    12.011   -7.696855    2.779787    0.105825
  19 C     6.0000    0    12.011   -7.759216   -5.208085   -0.049133
  20 C     6.0000    0    12.011   -9.439182   -5.209975   -2.099486
  21 C     6.0000    0    12.011  -11.587801   -6.693410   -2.033345
  22 C     6.0000    0    12.011  -14.458295   -9.662170    0.075589
  23 C     6.0000    0    12.011   -8.171176    0.266451    0.069920
  24 C     6.0000    0    12.011   -5.716422   -0.982658   -0.090707
  25 C     6.0000    0    12.011   -8.356369   -6.738763    2.031456
  26 N     7.0000    0    14.007  -12.107475   -8.150389    0.001890
  27 C     6.0000    0    12.011   -5.417845   -3.632054   -0.075589
  28 C     6.0000    0    12.011   -3.118048   -4.958641   -0.051023
  29 C     6.0000    0    12.011    6.742543  -11.606698   -1.965315
  30 C     6.0000    0    12.011   -2.789236   -7.651501   -0.064251
  31 C     6.0000    0    12.011    5.296902   -7.745987   -0.015118
  32 C     6.0000    0    12.011    6.910728   -8.284559    2.020117
  33 C     6.0000    0    12.011    8.365818  -10.450186    2.001220
  34 C     6.0000    0    12.011    9.911614  -14.339242    0.026456
  35 C     6.0000    0    12.011   -0.253223   -8.154168   -0.041574
  36 C     6.0000    0    12.011    1.073364   -5.790121   -0.051023
  37 C     6.0000    0    12.011    5.243990   -9.471307   -2.029566
  38 N     7.0000    0    14.007    8.269442  -12.077240    0.032125
  39 C     6.0000    0    12.011    3.701973   -5.421624   -0.017008
  40 C     6.0000    0    12.011    4.952972   -3.065136    0.017008
  41 C     6.0000    0    12.011   10.474752    8.199522   -2.135391
  42 C     6.0000    0    12.011    7.691185   -2.794905   -0.177634
  43 C     6.0000    0    12.011    7.755436    5.198637   -0.039684
  44 C     6.0000    0    12.011    9.499653    5.157063    1.957756
  45 C     6.0000    0    12.011   11.652051    6.631049    1.848152
  46 C     6.0000    0    12.011   14.397823    9.737759   -0.217319
  47 C     6.0000    0    12.011    8.165507   -0.279679   -0.173855
  48 C     6.0000    0    12.011    5.716422    0.971319    0.028346
  49 C     6.0000    0    12.011    8.290229    6.768999   -2.107045
  50 C     6.0000    0    12.011    5.415955    3.620715    0.024566
  51 N     7.0000    0    14.007   12.118814    8.118263   -0.179524
  52 H     1.0000    0     1.008   -8.709748   11.703074   -3.673628
  53 H     1.0000    0     1.008    4.297237    9.006435    0.153068
  54 H     1.0000    0     1.008   -4.949193    8.375266    4.129052
  55 H     1.0000    0     1.008   -7.606148   12.254874    4.068580
  56 H     1.0000    0     1.008  -11.784332   13.793111    0.733214
  57 H     1.0000    0     1.008   -9.134936   15.637484    1.734769
  58 H     1.0000    0     1.008   -9.796340   15.285995   -1.555245
  59 H     1.0000    0     1.008   -0.627389    9.981533    0.130391
  60 H     1.0000    0     1.008   -6.105705    7.797010   -3.930630
  61 H     1.0000    0     1.008    0.343930    2.025786    0.009449
  62 H     1.0000    0     1.008   -0.345820   -2.040904   -0.039684
  63 H     1.0000    0     1.008  -11.081354   -9.376821    3.581031
  64 H     1.0000    0     1.008   -9.059347    4.293458    0.262672
  65 H     1.0000    0     1.008   -9.070685   -4.081808   -3.768114
  66 H     1.0000    0     1.008  -12.927616   -6.768999   -3.577252
  67 H     1.0000    0     1.008  -15.926612   -8.571798    1.031790
  68 H     1.0000    0     1.008  -15.034661  -10.085468   -1.853821
  69 H     1.0000    0     1.008  -14.089798  -11.408277    1.103600
  70 H     1.0000    0     1.008   -9.990982   -0.650066    0.188973
  71 H     1.0000    0     1.008   -7.143165   -6.804904    3.679297
  72 H     1.0000    0     1.008    6.778448  -12.978639   -3.482765
  73 H     1.0000    0     1.008   -4.301017   -9.021553   -0.094486
  74 H     1.0000    0     1.008    7.018443   -7.037340    3.639613
  75 H     1.0000    0     1.008    9.622485  -10.950963    3.535678
  76 H     1.0000    0     1.008   11.725751  -13.849803   -0.829590
  77 H     1.0000    0     1.008   10.191293  -14.960962    1.969095
  78 H     1.0000    0     1.008    8.993207  -15.822677   -1.065806
  79 H     1.0000    0     1.008    0.621720   -9.996651   -0.015118
  80 H     1.0000    0     1.008    4.055352   -9.150054   -3.666069
  81 H     1.0000    0     1.008   10.975529    9.422175   -3.696304
  82 H     1.0000    0     1.008    9.048009   -4.310465   -0.349599
  83 H     1.0000    0     1.008    9.184069    3.994881    3.613156
  84 H     1.0000    0     1.008   13.041000    6.672623    3.348595
  85 H     1.0000    0     1.008   13.951848   11.544337    0.672743
  86 H     1.0000    0     1.008   15.900156    8.791006    0.822031
  87 H     1.0000    0     1.008   14.968521   10.034446   -2.173185
  88 H     1.0000    0     1.008    9.983423    0.634948   -0.338261
  89 H     1.0000    0     1.008    7.029781    6.863485   -3.717091

--------------------------------
INTERNAL COORDINATES (ANGSTROEM)
--------------------------------
 C      0   0   0     0.000000000000     0.00000000     0.00000000
 C      1   0   0     5.986614235108     0.00000000     0.00000000
 C      1   2   0     2.413559611860    36.00397519     0.00000000
 C      3   1   2     1.404031694799    87.91294407   100.43279792
 C      4   3   1     1.380444131430   120.15035266     0.11738362
 C      5   4   3     2.447813105611   152.52821474     1.69575823
 C      2   1   3     1.368114030335    12.37150286   330.29999142
 C      7   2   3     1.434084376876   108.05010202     0.84668783
 C      2   1   3     1.434123425651   113.22185281    38.70949206
 C      1   2   3     1.381981548357    41.27908839   311.37081791
 N      1   2   3     1.352516913018    96.55967072    81.89655382
 N      9   2   1     1.376127174356   106.58526707   347.13075911
 N     12   9   2     2.925062050624   168.53581413   171.12065651
 N     13  12   9     2.954513327098    91.55032014    11.12112580
 N     14  13  12     2.925371258490    88.43092389   359.84326247
 C      8   7   2     1.404790019896   127.24786865   181.11170171
 C     13  12   9     1.366535034311    81.72106996   188.00453233
 C     14  13  12     5.758810554272    80.56209567   166.76250791
 C     17  13  12     1.459010623676   111.08861209   183.82872609
 C     18  14  13     2.412235892279    27.27532823    36.33507194
 C     20  18  14     1.402692767501    87.95206320   148.94598259
 C     21  20  18     1.382106725257   120.14573887   359.70382047
 C     18  14  13     2.446510985056   144.15733107    82.80075377
 C     19  17  13     1.353610726908   106.29293361   359.75308708
 C     13  12   9     1.366813447402   172.21332906    33.46711076
 C     18  14  13     1.380960173213    15.08449437   309.23336894
 N     22  21  20     1.352773077792   120.73759875     0.27865223
 C     25  13  17     1.410897586645   125.60330303   182.37774668
 C     14  13  12     1.376642291955    80.24689249   177.85461986
 C     14  13  12     5.764089607215   164.51507311   312.20821879
 C     29  14  13     1.435600919476   106.58649366   178.76395472
 C     30  14  13     2.413316804732    27.10625047    82.12560436
 C     32  30  14     1.403734305344    87.90059683   149.76154742
 C     33  32  30     1.380694028378   120.14881443   359.74174632
 C     34  33  32     2.448777858443   152.49203239     2.45173620
 C     31  29  14     1.368160809262   108.16950133     0.70383075
 C     14  13  12     1.376239804685   169.26375223   353.09862627
 C     30  14  13     1.380907310430    14.68948582   353.70041132
 N     34  33  32     1.352658863128   120.85575621     0.19603406
 C     37  14  29     1.404717053360   126.01551127   180.90772073
 C     15  14  13     1.366491126938    81.61824056   183.09049352
 C      2   1   3     4.249062720177   145.82200774   160.54411945
 C     41  15  14     1.459677704153   111.05201287   175.08990246
 C     42   2   1     2.412953791518    41.78584867   207.78892172
 C     44  42   2     1.403446472082    87.95153797   233.97558675
 C     45  44  42     1.381696421071   120.11137308     0.19721020
 C     42   2   1     2.450019795838   135.97209175   118.10377082
 C     43  41  15     1.354461516618   106.26758155     0.30894352
 C     15  14  13     1.367461151185   171.87382904   332.35056460
 C     42   2   1     1.381886391857    32.59078432   256.64420091
 C      9   2   1     1.404988612053   126.98745415   168.13509664
 N     42   2   1     1.352765315936   113.57249190   145.84036001
 H      1   2   3     1.082816697322   131.70808410   216.82158091
 H      2   1   3     1.079907866440   120.53158887   207.54314396
 H      4   3   1     1.082693400737   121.03343141   179.54318746
 H      5   4   3     1.081386147498   122.80820523   179.40688203
 H      6   5   4     1.091722034219   104.44335011   100.00366449
 H      6   5   4     1.089479233395    84.64794863   209.48507894
 H      6   5   4     1.089825674133   133.88108063   322.26928739
 H      7   2  54     1.079807853278   126.66122480     1.30600390
 H     10   1   2     1.084304385309   118.77476522   242.42971837
 H     12   9   2     1.016297692608   125.29023241   180.00180175
 H     14  13  12     1.014936943854    44.97226959   359.42596618
 H     18  14  13     1.082871645210   128.03556573   234.20482432
 H     19  17  13     1.080893611786   126.41830519   178.11313280
 H     21  20  18     1.083569563987   121.05669627   180.67006309
 H     22  21  20     1.082483256222   122.73097286   180.59748951
 H     23  18  14     1.092105306278   103.92715769   234.93429879
 H     23  18  14     1.088871893291   134.19244188    12.25587044
 H     23  18  14     1.089833473518    84.85857450   125.45241208
 H     24  19  17     1.080075460327   127.28078426   178.44613241
 H     26  18  14     1.083408048706   118.76995697   244.94906660
 H     30  14  13     1.082703098730   127.99711412   279.66882698
 H     31  29  14     1.079759695488   125.22293469   180.92530585
 H     33  32  30     1.083188810873   121.01964473   180.74284758
 H     34  33  32     1.082494341787   122.70821597   180.59516895
 H     35  34  33     1.092652735319   105.73575241    97.19771933
 H     35  34  33     1.089462711615    84.05943581   206.43036958
 H     35  34  33     1.089268102902   133.08365142   318.50306270
 H     36  31  29     1.079439669458   126.61599965   178.98859863
 H     38  30  73     1.083742127999   118.77264435   359.90091293
 H     42   2   1     1.082178358682   119.31790784     2.47189047
 H     43  41  15     1.080281907652   126.36969097   182.06329380
 H     45  44  42     1.083277434455   121.10105945   179.58025624
 H     46  45  44     1.082194529648   122.72144639   179.46906377
 H     47  42   2     1.091546151109   106.65128841   315.16475048
 H     47  42   2     1.088818625851   132.46019523    94.52397119
 H     47  42   2     1.089531091801    83.63838232   206.04504406
 H     48  43  41     1.080402239909   127.23657387   181.62955349
 H     50  42   2     1.083186502870   118.77001737    94.71359229

---------------------------
INTERNAL COORDINATES (A.U.)
---------------------------
 C      0   0   0     0.000000000000     0.00000000     0.00000000
 C      1   0   0    11.313061373789     0.00000000     0.00000000
 C      1   2   0     4.560966674308    36.00397519     0.00000000
 C      3   1   2     2.653235386515    87.91294407   100.43279792
 C      4   3   1     2.608661351582   120.15035266     0.11738362
 C      5   4   3     4.625696396628   152.52821474     1.69575823
 C      2   1   3     2.585360837309    12.37150286   330.29999142
 C      7   2   3     2.710026725231   108.05010202     0.84668783
 C      2   1   3     2.710100516721   113.22185281    38.70949206
 C      1   2   3     2.611566648528    41.27908839   311.37081791
 N      1   2   3     2.555886557101    96.55967072    81.89655382
 N      9   2   1     2.600503484979   106.58526707   347.13075911
 N     12   9   2     5.527566200405   168.53581413   171.12065651
 N     13  12   9     5.583221047236    91.55032014    11.12112580
 N     14  13  12     5.528150518591    88.43092389   359.84326247
 C      8   7   2     2.654668413270   127.24786865   181.11170171
 C     13  12   9     2.582376967257    81.72106996   188.00453233
 C     14  13  12    10.882574804710    80.56209567   166.76250791
 C     17  13  12     2.757130505230   111.08861209   183.82872609
 C     18  14  13     4.558465206823    27.27532823    36.33507194
 C     20  18  14     2.650705180609    87.95206320   148.94598259
 C     21  20  18     2.611803198586   120.14573887   359.70382047
 C     18  14  13     4.623235745386   144.15733107    82.80075377
 C     19  17  13     2.557953565794   106.29293361   359.75308708
 C     13  12   9     2.582903091751   172.21332906    33.46711076
 C     18  14  13     2.609636529225    15.08449437   309.23336894
 N     22  21  20     2.556370638369   120.73759875     0.27865223
 C     25  13  17     2.666210041769   125.60330303   182.37774668
 C     14  13  12     2.601476916169    80.24689249   177.85461986
 C     14  13  12    10.892550769017   164.51507311   312.20821879
 C     29  14  13     2.712892575415   106.58649366   178.76395472
 C     30  14  13     4.560507835333    27.10625047    82.12560436
 C     32  30  14     2.652673401891    87.90059683   149.76154742
 C     33  32  30     2.609133588376   120.14881443   359.74174632
 C     34  33  32     4.627519515267   152.49203239     2.45173620
 C     31  29  14     2.585449236669   108.16950133     0.70383075
 C     14  13  12     2.600716325456   169.26375223   353.09862627
 C     30  14  13     2.609536633043    14.68948582   353.70041132
 N     34  33  32     2.556154803934   120.85575621     0.19603406
 C     37  14  29     2.654530526499   126.01551127   180.90772073
 C     15  14  13     2.582293994346    81.61824056   183.09049352
 C      2   1   3     8.029564866989   145.82200774   160.54411945
 C     41  15  14     2.758391104639   111.05201287   175.08990246
 C     42   2   1     4.559821839776    41.78584867   207.78892172
 C     44  42   2     2.652129475853    87.95153797   233.97558675
 C     45  44  42     2.611027836043   120.11137308     0.19721020
 C     42   2   1     4.629866436820   135.97209175   118.10377082
 C     43  41  15     2.559561325344   106.26758155     0.30894352
 C     15  14  13     2.584127074516   171.87382904   332.35056460
 C     42   2   1     2.611386828803    32.59078432   256.64420091
 C      9   2   1     2.655043698059   126.98745415   168.13509664
 N     42   2   1     2.556355970587   113.57249190   145.84036001
 H      1   2   3     2.046227011176   131.70808410   216.82158091
 H      2   1   3     2.040730117440   120.53158887   207.54314396
 H      4   3   1     2.045994014397   121.03343141   179.54318746
 H      5   4   3     2.043523663787   122.80820523   179.40688203
 H      6   5   4     2.063055659042   104.44335011   100.00366449
 H      6   5   4     2.058817379712    84.64794863   209.48507894
 H      6   5   4     2.059472057828   133.88108063   322.26928739
 H      7   2  54     2.040541119952   126.66122480     1.30600390
 H     10   1   2     2.049038334044   118.77476522   242.42971837
 H     12   9   2     1.920524309565   125.29023241   180.00180175
 H     14  13  12     1.917952867083    44.97226959   359.42596618
 H     18  14  13     2.046330847636   128.03556573   234.20482432
 H     19  17  13     2.042592906181   126.41830519   178.11313280
 H     21  20  18     2.047649722989   121.05669627   180.67006309
 H     22  21  20     2.045596898814   122.73097286   180.59748951
 H     23  18  14     2.063779938267   103.92715769   234.93429879
 H     23  18  14     2.057669673245   134.19244188    12.25587044
 H     23  18  14     2.059486796529    84.85857450   125.45241208
 H     24  19  17     2.041046823986   127.28078426   178.44613241
 H     26  18  14     2.047344503340   118.76995697   244.94906660
 H     30  14  13     2.046012340948   127.99711412   279.66882698
 H     31  29  14     2.040450114918   125.22293469   180.92530585
 H     33  32  30     2.046930203877   121.01964473   180.74284758
 H     34  33  32     2.045617847496   122.70821597   180.59516895
 H     35  34  33     2.064814429233   105.73575241    97.19771933
 H     35  34  33     2.058786158072    84.05943581   206.43036958
 H     35  34  33     2.058418400901   133.08365142   318.50306270
 H     36  31  29     2.039845353366   126.61599965   178.98859863
 H     38  30  73     2.047975821711   118.77264435   359.90091293
 H     42   2   1     2.045020725966   119.31790784     2.47189047
 H     43  41  15     2.041436952892   126.36969097   182.06329380
 H     45  44  42     2.047097678177   121.10105945   179.58025624
 H     46  45  44     2.045051284662   122.72144639   179.46906377
 H     47  42   2     2.062723288131   106.65128841   315.16475048
 H     47  42   2     2.057569012371   132.46019523    94.52397119
 H     47  42   2     2.058915377895    83.63838232   206.04504406
 H     48  43  41     2.041664347903   127.23657387   181.62955349
 H     50  42   2     2.046925842384   118.77001737    94.71359229

---------------------
BASIS SET INFORMATION
---------------------
There are 3 groups of distinct atoms

 Group   1 Type C   : 17s4p1d contracted to 3s2p1d pattern {881/31/1}
 Group   2 Type N   : 17s4p1d contracted to 3s2p1d pattern {881/31/1}
 Group   3 Type H   : 4s1p contracted to 2s1p pattern {31/1}

Atom   0C    basis set group =>   1
Atom   1N    basis set group =>   2
Atom   2C    basis set group =>   1
Atom   3N    basis set group =>   2
Atom   4C    basis set group =>   1
Atom   5N    basis set group =>   2
Atom   6C    basis set group =>   1
Atom   7N    basis set group =>   2
Atom   8C    basis set group =>   1
Atom   9N    basis set group =>   2
Atom  10C    basis set group =>   1
Atom  11N    basis set group =>   2
Atom  12C    basis set group =>   1
Atom  13N    basis set group =>   2
Atom  14C    basis set group =>   1
Atom  15N    basis set group =>   2
Atom  16C    basis set group =>   1
Atom  17C    basis set group =>   1
Atom  18C    basis set group =>   1
Atom  19C    basis set group =>   1
Atom  20C    basis set group =>   1
Atom  21C    basis set group =>   1
Atom  22C    basis set group =>   1
Atom  23C    basis set group =>   1
Atom  24C    basis set group =>   1
Atom  25C    basis set group =>   1
Atom  26C    basis set group =>   1
Atom  27C    basis set group =>   1
Atom  28C    basis set group =>   1
Atom  29C    basis set group =>   1
Atom  30C    basis set group =>   1
Atom  31C    basis set group =>   1
Atom  32C    basis set group =>   1
Atom  33C    basis set group =>   1
Atom  34C    basis set group =>   1
Atom  35C    basis set group =>   1
Atom  36C    basis set group =>   1
Atom  37C    basis set group =>   1
Atom  38C    basis set group =>   1
Atom  39C    basis set group =>   1
Atom  40C    basis set group =>   1
Atom  41C    basis set group =>   1
Atom  42C    basis set group =>   1
Atom  43C    basis set group =>   1
Atom  44C    basis set group =>   1
Atom  45C    basis set group =>   1
Atom  46C    basis set group =>   1
Atom  47C    basis set group =>   1
Atom  48C    basis set group =>   1
Atom  49C    basis set group =>   1
Atom  50C    basis set group =>   1
Atom  51C    basis set group =>   1
Atom  52H    basis set group =>   3
Atom  53H    basis set group =>   3
Atom  54H    basis set group =>   3
Atom  55H    basis set group =>   3
Atom  56H    basis set group =>   3
Atom  57H    basis set group =>   3
Atom  58H    basis set group =>   3
Atom  59H    basis set group =>   3
Atom  60H    basis set group =>   3
Atom  61H    basis set group =>   3
Atom  62H    basis set group =>   3
Atom  63H    basis set group =>   3
Atom  64H    basis set group =>   3
Atom  65H    basis set group =>   3
Atom  66H    basis set group =>   3
Atom  67H    basis set group =>   3
Atom  68H    basis set group =>   3
Atom  69H    basis set group =>   3
Atom  70H    basis set group =>   3
Atom  71H    basis set group =>   3
Atom  72H    basis set group =>   3
Atom  73H    basis set group =>   3
Atom  74H    basis set group =>   3
Atom  75H    basis set group =>   3
Atom  76H    basis set group =>   3
Atom  77H    basis set group =>   3
Atom  78H    basis set group =>   3
Atom  79H    basis set group =>   3
Atom  80H    basis set group =>   3
Atom  81H    basis set group =>   3
Atom  82H    basis set group =>   3
Atom  83H    basis set group =>   3
Atom  84H    basis set group =>   3
Atom  85H    basis set group =>   3
Atom  86H    basis set group =>   3
Atom  87H    basis set group =>   3
Atom  88H    basis set group =>   3
Atom  89H    basis set group =>   3


           ************************************************************
           *        Program running with 16 parallel MPI-processes    *
           *              working on a common directory               *
           ************************************************************
------------------------------------------------------------------------------
                           ORCA GTO INTEGRAL CALCULATION
------------------------------------------------------------------------------
------------------------------------------------------------------------------
                   ___                                                        
                  /   \      - P O W E R E D   B Y -                         
                 /     \                                                     
                 |  |  |   _    _      __       _____    __    __             
                 |  |  |  | |  | |    /  \     |  _  \  |  |  /  |          
                  \  \/   | |  | |   /    \    | | | |  |  | /  /          
                 / \  \   | |__| |  /  /\  \   | |_| |  |  |/  /          
                |  |  |   |  __  | /  /__\  \  |    /   |      \           
                |  |  |   | |  | | |   __   |  |    \   |  |\   \          
                \     /   | |  | | |  |  |  |  | |\  \  |  | \   \       
                 \___/    |_|  |_| |__|  |__|  |_| \__\ |__|  \__/        
                                                                              
                      - O R C A' S   B I G   F R I E N D -                    
                                      &                                       
                       - I N T E G R A L  F E E D E R -                       
                                                                              
 v1 FN, 2020, v2 2021                                                         
------------------------------------------------------------------------------


Reading SHARK input file /scratch/allen/tmpyp4_amber_gaff2/conf1/conf1/Conf101.orca.SHARKINP.tmp ... ok
----------------------
SHARK INTEGRAL PACKAGE
----------------------

Number of atoms                             ...     90
Number of basis functions                   ...   1230
Number of shells                            ...    738
Maximum angular momentum                    ...      2
Integral batch strategy                     ... SHARK/LIBINT Hybrid
RI-J (if used) integral strategy            ... SPLIT-RIJ (Revised 2003 algorithm where possible)
Printlevel                                  ...      1
Contraction scheme used                     ... PARTIAL GENERAL contraction
Coulomb Range Separation                    ... NOT USED
Exchange Range Separation                   ... NOT USED
Finite Nucleus Model                        ... NOT USED
Auxiliary Coulomb fitting basis             ... NOT available
Auxiliary J/K fitting basis                 ... NOT available
Auxiliary Correlation fitting basis         ... NOT available
Auxiliary 'external' fitting basis          ... NOT available
Integral threshold                          ...     2.500000e-11
Primitive cut-off                           ...     2.500000e-12
Primitive pair pre-selection threshold      ...     2.500000e-12

Calculating pre-screening integrals         ... done (  0.1 sec) Dimension = 738
Calculating pre-screening integrals (ORCA)  ... done (  0.3 sec) Dimension = 426
Organizing shell pair data                  ... done (  0.8 sec)
Shell pair information
Total number of shell pairs                 ...    272691
Shell pairs after pre-screening             ...     71600
Total number of primitive shell pairs       ...    422091
Primitive shell pairs kept                  ...     92344
          la=0 lb=0:  29418 shell pairs
          la=1 lb=0:  25953 shell pairs
          la=1 lb=1:   4687 shell pairs
          la=2 lb=0:   7893 shell pairs
          la=2 lb=1:   3118 shell pairs
          la=2 lb=2:    531 shell pairs

Calculating one electron integrals          ... done (  0.3 sec)
Calculating Nuclear repulsion               ... done (  0.0 sec) ENN=   6222.111014251777 Eh

SHARK setup successfully completed in   2.3 seconds

Maximum memory used throughout the entire GTOINT-calculation: 99.0 MB


           ************************************************************
           *        Program running with 16 parallel MPI-processes    *
           *              working on a common directory               *
           ************************************************************
-------------------------------------------------------------------------------
                                 ORCA SCF
-------------------------------------------------------------------------------

------------
SCF SETTINGS
------------
Hamiltonian:
 Ab initio Hamiltonian  Method          .... Hartree-Fock(GTOs)


General Settings:
 Integral files         IntName         .... /scratch/allen/tmpyp4_amber_gaff2/conf1/conf1/Conf101.orca
 Hartree-Fock type      HFTyp           .... RHF
 Total Charge           Charge          ....    0
 Multiplicity           Mult            ....    1
 Number of Electrons    NEL             ....  358
 Basis Dimension        Dim             ....  918
 Nuclear Repulsion      ENuc            ....   6222.1110142518 Eh

Convergence Acceleration:
 DIIS                   CNVDIIS         .... on
   Start iteration      DIISMaxIt       ....    12
   Startup error        DIISStart       ....  0.200000
   # of expansion vecs  DIISMaxEq       ....     5
   Bias factor          DIISBfac        ....   1.050
   Max. coefficient     DIISMaxC        ....  10.000
 Trust-Rad. Augm. Hess. CNVTRAH         .... auto
   Auto Start mean grad. ratio tolernc. ....  1.125000
   Auto Start start iteration           ....    20
   Auto Start num. interpolation iter.  ....    10
   Max. Number of Micro iterations      ....    16
   Max. Number of Macro iterations      .... Maxiter - #DIIS iter
   Number of Davidson start vectors     ....     2
   Converg. threshold I  (grad. norm)   ....   1.000e-05
   Converg. threshold II (energy diff.) ....   1.000e-08
   Grad. Scal. Fac. for Micro threshold ....   0.100
   Minimum threshold for Micro iter.    ....   0.010
   NR start threshold (gradient norm)   ....   0.001
   Initial trust radius                 ....   0.400
   Minimum AH scaling param. (alpha)    ....   1.000
   Maximum AH scaling param. (alpha)    .... 1000.000
   Orbital update algorithm             .... Taylor
   White noise on init. David. guess    .... on
   Maximum white noise                  ....   0.010
   Quad. conv. algorithm                .... NR
 SOSCF                  CNVSOSCF        .... on
   Start iteration      SOSCFMaxIt      ....   150
   Startup grad/error   SOSCFStart      ....  0.003300
 Level Shifting         CNVShift        .... on
   Level shift para.    LevelShift      ....    0.2500
   Turn off err/grad.   ShiftErr        ....    0.0010
 Zerner damping         CNVZerner       .... off
 Static damping         CNVDamp         .... on
   Fraction old density DampFac         ....    0.7000
   Max. Damping (<1)    DampMax         ....    0.9800
   Min. Damping (>=0)   DampMin         ....    0.0000
   Turn off err/grad.   DampErr         ....    0.1000
 Fernandez-Rico         CNVRico         .... off

SCF Procedure:
 Maximum # iterations   MaxIter         ....   125
 SCF integral mode      SCFMode         .... Direct
   Integral package                     .... SHARK and LIBINT hybrid scheme
 Reset frequency        DirectResetFreq ....    20
 Integral Threshold     Thresh          ....  2.500e-11 Eh
 Primitive CutOff       TCut            ....  2.500e-12 Eh

Convergence Tolerance:
 Convergence Check Mode ConvCheckMode   .... Total+1el-Energy
 Convergence forced     ConvForced      .... 1
 Energy Change          TolE            ....  1.000e-08 Eh
 1-El. energy change                    ....  1.000e-05 Eh
 Orbital Gradient       TolG            ....  1.000e-05
 Orbital Rotation angle TolX            ....  1.000e-05
 DIIS Error             TolErr          ....  5.000e-07


Diagonalization of the overlap matrix:
Smallest eigenvalue                        ... 2.263e-04
Time for diagonalization                   ...    0.393 sec
Threshold for overlap eigenvalues          ... 1.000e-08
Number of eigenvalues below threshold      ... 0
Time for construction of square roots      ...    0.249 sec
Total time needed                          ...    0.648 sec

Time for model grid setup =    1.053 sec

------------------------------
INITIAL GUESS: MODEL POTENTIAL
------------------------------
Loading Hartree-Fock densities                     ... done
Calculating cut-offs                               ... done
Initializing the effective Hamiltonian             ... done
Setting up the integral package (SHARK)            ... done
Starting the Coulomb interaction                   ... done (   1.1 sec)
Reading the grid                                   ... done
Mapping shells                                     ... done
Starting the XC term evaluation                    ... done (   0.2 sec)
Transforming the Hamiltonian                       ... done (   0.2 sec)
Diagonalizing the Hamiltonian                      ... done (   0.3 sec)
Back transforming the eigenvectors                 ... done (   0.1 sec)
Now organizing SCF variables                       ... done
                      ------------------
                      INITIAL GUESS DONE (   3.1 sec)
                      ------------------
--------------
SCF ITERATIONS
--------------
ITER       Energy         Delta-E        Max-DP      RMS-DP      [F,P]     Damp
               ***  Starting incremental Fock matrix formation  ***
  0  -2121.6464852242   0.000000000000 0.06930520  0.00121154  0.2348066 0.7000
  1  -2122.3154447122  -0.668959487994 0.05267059  0.00098180  0.1452221 0.7000
                               ***Turning on DIIS***
  2  -2122.7314744196  -0.416029707349 0.11709683  0.00222034  0.0806225 0.0000
  3  -2117.7202596067   5.011214812830 0.03444150  0.00068665  0.0443787 0.0000
  4  -2123.4045603227  -5.684300715971 0.00908603  0.00023020  0.0072267 0.0000
  5  -2123.5812306902  -0.176670367535 0.00524809  0.00013791  0.0050999 0.0000
  6  -2123.5621352606   0.019095429649 0.00411175  0.00009296  0.0022964 0.0000
  7  -2123.6673152633  -0.105180002673 0.00362940  0.00007703  0.0017900 0.0000
  8  -2123.6948584982  -0.027543234981 0.00346466  0.00007713  0.0016767 0.0000
  9  -2123.6543687541   0.040489744120 0.00281767  0.00005582  0.0013390 0.0000
 10  -2123.6765823889  -0.022213634746 0.00278685  0.00005313  0.0010169 0.0000
                      *** Initiating the SOSCF procedure ***
                           *** Shutting down DIIS ***
                      *** Re-Reading the Fockian *** 
                      *** Removing any level shift *** 
ITER      Energy       Delta-E        Grad      Rot      Max-DP    RMS-DP
 11  -2123.67104446   0.0055379294  0.003102  0.003102  0.007181  0.000116
               *** Restarting incremental Fock matrix formation ***
 12  -2123.61207135   0.0589731133  0.000999  0.008851  0.001827  0.000047
 13  -2123.61222245  -0.0001511080  0.001192  0.019807  0.005385  0.000088
 14  -2123.61248525  -0.0002627972  0.000821  0.035442  0.010265  0.000160
 15  -2123.61268554  -0.0002002915  0.000714  0.009554  0.002119  0.000033
 16  -2123.61272514  -0.0000395938  0.000478  0.007455  0.001655  0.000032
 17  -2123.61276737  -0.0000422350  0.000259  0.017266  0.003045  0.000062
 18  -2123.61280109  -0.0000337207  0.000192  0.003958  0.000820  0.000015
 19  -2123.61281110  -0.0000100034  0.000212  0.005407  0.000967  0.000017
 20  -2123.61281858  -0.0000074802  0.000147  0.005031  0.000898  0.000016
 21  -2123.61282249  -0.0000039188  0.000090  0.003269  0.000433  0.000010
 22  -2123.61282474  -0.0000022485  0.000077  0.004408  0.000714  0.000014
 23  -2123.61282689  -0.0000021487  0.000053  0.001392  0.000322  0.000006
 24  -2123.61282753  -0.0000006395  0.000036  0.000957  0.000277  0.000005
 25  -2123.61282790  -0.0000003734  0.000031  0.000762  0.000190  0.000003
 26  -2123.61282811  -0.0000002028  0.000028  0.000794  0.000175  0.000003
 27  -2123.61282826  -0.0000001536  0.000017  0.000773  0.000167  0.000003
 28  -2123.61282837  -0.0000001104  0.000012  0.000539  0.000120  0.000002
 29  -2123.61282843  -0.0000000591  0.000007  0.000220  0.000039  0.000001
 30  -2123.61282845  -0.0000000192  0.000005  0.000056  0.000016  0.000000
 31  -2123.61282846  -0.0000000116  0.000005  0.000054  0.000019  0.000000
               *** Restarting incremental Fock matrix formation ***
 32  -2123.61282846   0.0000000056  0.000003  0.000061  0.000019  0.000000
                  ***Gradient check signals convergence***
              ***Rediagonalizing the Fockian in SOSCF/NRSCF***

               *****************************************************
               *                     SUCCESS                       *
               *           SCF CONVERGED AFTER  33 CYCLES          *
               *****************************************************


----------------
TOTAL SCF ENERGY
----------------

Total Energy       :        -2123.61282844 Eh          -57786.44287 eV

Components:
Nuclear Repulsion  :         6222.11101425 Eh          169312.24837 eV
Electronic Energy  :        -8345.72384269 Eh         -227098.69123 eV
One Electron Energy:       -15285.69621066 Eh         -415944.94012 eV
Two Electron Energy:         6939.97236797 Eh          188846.24889 eV

Virial components:
Potential Energy   :        -4245.59472512 Eh         -115528.50583 eV
Kinetic Energy     :         2121.98189668 Eh           57742.06296 eV
Virial Ratio       :            2.00076859


---------------
SCF CONVERGENCE
---------------

  Last Energy change         ...    1.6567e-08  Tolerance :   1.0000e-08
  Last MAX-Density change    ...    9.6634e-06  Tolerance :   1.0000e-07
  Last RMS-Density change    ...    1.6523e-07  Tolerance :   5.0000e-09
  Last Orbital Gradient      ...    1.6263e-06  Tolerance :   1.0000e-05
  Last Orbital Rotation      ...    3.4395e-05  Tolerance :   1.0000e-05

             **** THE GBW FILE WAS UPDATED (/scratch/allen/tmpyp4_amber_gaff2/conf1/conf1/Conf101.orca.gbw) ****
             **** DENSITY /scratch/allen/tmpyp4_amber_gaff2/conf1/conf1/Conf101.orca.scfp WAS UPDATED ****
             **** ENERGY FILE WAS UPDATED (/scratch/allen/tmpyp4_amber_gaff2/conf1/conf1/Conf101.orca.en.tmp) ****
             **** THE GBW FILE WAS UPDATED (/scratch/allen/tmpyp4_amber_gaff2/conf1/conf1/Conf101.orca.gbw) ****
             **** DENSITY /scratch/allen/tmpyp4_amber_gaff2/conf1/conf1/Conf101.orca.scfp WAS UPDATED ****
----------------
ORBITAL ENERGIES
----------------

  NO   OCC          E(Eh)            E(eV) 
   0   2.0000     -15.697099      -427.1398 
   1   2.0000     -15.633438      -425.4075 
   2   2.0000     -15.621092      -425.0715 
   3   2.0000     -15.588798      -424.1928 
   4   2.0000     -15.518860      -422.2897 
   5   2.0000     -15.507335      -421.9761 
   6   2.0000     -15.449746      -420.4090 
   7   2.0000     -15.429916      -419.8694 
   8   2.0000     -11.340684      -308.5957 
   9   2.0000     -11.339010      -308.5501 
  10   2.0000     -11.336998      -308.4954 
  11   2.0000     -11.299270      -307.4688 
  12   2.0000     -11.293664      -307.3162 
  13   2.0000     -11.293481      -307.3112 
  14   2.0000     -11.291102      -307.2465 
  15   2.0000     -11.285584      -307.0964 
  16   2.0000     -11.282500      -307.0124 
  17   2.0000     -11.274690      -306.7999 
  18   2.0000     -11.272678      -306.7452 
  19   2.0000     -11.272625      -306.7437 
  20   2.0000     -11.270936      -306.6977 
  21   2.0000     -11.253560      -306.2249 
  22   2.0000     -11.249854      -306.1241 
  23   2.0000     -11.236960      -305.7732 
  24   2.0000     -11.230190      -305.5890 
  25   2.0000     -11.229322      -305.5654 
  26   2.0000     -11.225322      -305.4565 
  27   2.0000     -11.220571      -305.3273 
  28   2.0000     -11.220351      -305.3213 
  29   2.0000     -11.206225      -304.9369 
  30   2.0000     -11.205573      -304.9191 
  31   2.0000     -11.197437      -304.6978 
  32   2.0000     -11.196656      -304.6765 
  33   2.0000     -11.194783      -304.6255 
  34   2.0000     -11.189434      -304.4800 
  35   2.0000     -11.188422      -304.4524 
  36   2.0000     -11.187809      -304.4358 
  37   2.0000     -11.184440      -304.3441 
  38   2.0000     -11.184263      -304.3393 
  39   2.0000     -11.171595      -303.9946 
  40   2.0000     -11.167056      -303.8710 
  41   2.0000     -11.163698      -303.7797 
  42   2.0000     -11.161522      -303.7204 
  43   2.0000     -11.161080      -303.7084 
  44   2.0000     -11.157522      -303.6116 
  45   2.0000     -11.149499      -303.3933 
  46   2.0000     -11.148838      -303.3753 
  47   2.0000     -11.145248      -303.2776 
  48   2.0000     -11.144210      -303.2494 
  49   2.0000     -11.136970      -303.0524 
  50   2.0000     -11.121049      -302.6191 
  51   2.0000     -11.116853      -302.5049 
  52   2.0000      -1.373217       -37.3671 
  53   2.0000      -1.320871       -35.9427 
  54   2.0000      -1.309744       -35.6400 
  55   2.0000      -1.282383       -34.8954 
  56   2.0000      -1.221093       -33.2276 
  57   2.0000      -1.203828       -32.7578 
  58   2.0000      -1.172833       -31.9144 
  59   2.0000      -1.151764       -31.3411 
  60   2.0000      -1.140793       -31.0426 
  61   2.0000      -1.109422       -30.1889 
  62   2.0000      -1.099233       -29.9117 
  63   2.0000      -1.093001       -29.7421 
  64   2.0000      -1.075215       -29.2581 
  65   2.0000      -1.045694       -28.4548 
  66   2.0000      -1.044992       -28.4357 
  67   2.0000      -1.034521       -28.1508 
  68   2.0000      -1.014072       -27.5943 
  69   2.0000      -1.009064       -27.4580 
  70   2.0000      -1.004686       -27.3389 
  71   2.0000      -0.989875       -26.9359 
  72   2.0000      -0.984102       -26.7788 
  73   2.0000      -0.979373       -26.6501 
  74   2.0000      -0.966318       -26.2948 
  75   2.0000      -0.960799       -26.1447 
  76   2.0000      -0.951773       -25.8991 
  77   2.0000      -0.942746       -25.6534 
  78   2.0000      -0.923321       -25.1248 
  79   2.0000      -0.919225       -25.0134 
  80   2.0000      -0.915992       -24.9254 
  81   2.0000      -0.888947       -24.1895 
  82   2.0000      -0.879360       -23.9286 
  83   2.0000      -0.871328       -23.7100 
  84   2.0000      -0.861850       -23.4521 
  85   2.0000      -0.849709       -23.1217 
  86   2.0000      -0.836510       -22.7626 
  87   2.0000      -0.829120       -22.5615 
  88   2.0000      -0.821916       -22.3655 
  89   2.0000      -0.795384       -21.6435 
  90   2.0000      -0.789239       -21.4763 
  91   2.0000      -0.760499       -20.6942 
  92   2.0000      -0.733644       -19.9635 
  93   2.0000      -0.727591       -19.7988 
  94   2.0000      -0.724137       -19.7048 
  95   2.0000      -0.721357       -19.6291 
  96   2.0000      -0.716522       -19.4975 
  97   2.0000      -0.707531       -19.2529 
  98   2.0000      -0.701183       -19.0802 
  99   2.0000      -0.696371       -18.9492 
 100   2.0000      -0.693452       -18.8698 
 101   2.0000      -0.691934       -18.8285 
 102   2.0000      -0.683675       -18.6037 
 103   2.0000      -0.675904       -18.3923 
 104   2.0000      -0.672196       -18.2914 
 105   2.0000      -0.669651       -18.2221 
 106   2.0000      -0.664816       -18.0905 
 107   2.0000      -0.656280       -17.8583 
 108   2.0000      -0.654330       -17.8052 
 109   2.0000      -0.651739       -17.7347 
 110   2.0000      -0.649138       -17.6639 
 111   2.0000      -0.644008       -17.5244 
 112   2.0000      -0.641857       -17.4658 
 113   2.0000      -0.638409       -17.3720 
 114   2.0000      -0.632636       -17.2149 
 115   2.0000      -0.624615       -16.9966 
 116   2.0000      -0.622341       -16.9348 
 117   2.0000      -0.621126       -16.9017 
 118   2.0000      -0.614144       -16.7117 
 119   2.0000      -0.612080       -16.6556 
 120   2.0000      -0.609481       -16.5848 
 121   2.0000      -0.602534       -16.3958 
 122   2.0000      -0.591793       -16.1035 
 123   2.0000      -0.586369       -15.9559 
 124   2.0000      -0.581034       -15.8108 
 125   2.0000      -0.579239       -15.7619 
 126   2.0000      -0.578825       -15.7506 
 127   2.0000      -0.576162       -15.6782 
 128   2.0000      -0.572371       -15.5750 
 129   2.0000      -0.557942       -15.1824 
 130   2.0000      -0.555876       -15.1262 
 131   2.0000      -0.550831       -14.9889 
 132   2.0000      -0.543533       -14.7903 
 133   2.0000      -0.538957       -14.6658 
 134   2.0000      -0.534705       -14.5501 
 135   2.0000      -0.530433       -14.4338 
 136   2.0000      -0.518814       -14.1177 
 137   2.0000      -0.516193       -14.0463 
 138   2.0000      -0.514912       -14.0115 
 139   2.0000      -0.512981       -13.9589 
 140   2.0000      -0.509986       -13.8774 
 141   2.0000      -0.504891       -13.7388 
 142   2.0000      -0.501660       -13.6509 
 143   2.0000      -0.500463       -13.6183 
 144   2.0000      -0.495268       -13.4769 
 145   2.0000      -0.493847       -13.4383 
 146   2.0000      -0.491945       -13.3865 
 147   2.0000      -0.478293       -13.0150 
 148   2.0000      -0.477425       -12.9914 
 149   2.0000      -0.464426       -12.6377 
 150   2.0000      -0.462623       -12.5886 
 151   2.0000      -0.458714       -12.4822 
 152   2.0000      -0.451068       -12.2742 
 153   2.0000      -0.441900       -12.0247 
 154   2.0000      -0.436122       -11.8675 
 155   2.0000      -0.434422       -11.8212 
 156   2.0000      -0.422725       -11.5029 
 157   2.0000      -0.415961       -11.3189 
 158   2.0000      -0.408042       -11.1034 
 159   2.0000      -0.396424       -10.7872 
 160   2.0000      -0.383235       -10.4284 
 161   2.0000      -0.370873       -10.0920 
 162   2.0000      -0.356354        -9.6969 
 163   2.0000      -0.355672        -9.6783 
 164   2.0000      -0.347285        -9.4501 
 165   2.0000      -0.339659        -9.2426 
 166   2.0000      -0.338752        -9.2179 
 167   2.0000      -0.325403        -8.8547 
 168   2.0000      -0.315301        -8.5798 
 169   2.0000      -0.300833        -8.1861 
 170   2.0000      -0.298701        -8.1281 
 171   2.0000      -0.283881        -7.7248 
 172   2.0000      -0.279389        -7.6026 
 173   2.0000      -0.264105        -7.1867 
 174   2.0000      -0.233021        -6.3408 
 175   2.0000      -0.184155        -5.0111 
 176   2.0000      -0.174082        -4.7370 
 177   2.0000      -0.062249        -1.6939 
 178   2.0000      -0.051288        -1.3956 
 179   0.0000       0.034521         0.9394 
 180   0.0000       0.059330         1.6144 
 181   0.0000       0.086489         2.3535 
 182   0.0000       0.097743         2.6597 
 183   0.0000       0.103121         2.8061 
 184   0.0000       0.133993         3.6461 
 185   0.0000       0.138170         3.7598 
 186   0.0000       0.147521         4.0143 
 187   0.0000       0.163237         4.4419 
 188   0.0000       0.165006         4.4900 
 189   0.0000       0.171295         4.6612 
 190   0.0000       0.172020         4.6809 
 191   0.0000       0.173347         4.7170 
 192   0.0000       0.176887         4.8134 
 193   0.0000       0.189202         5.1485 
 194   0.0000       0.203851         5.5471 
 195   0.0000       0.209532         5.7017 
 196   0.0000       0.210173         5.7191 
 197   0.0000       0.211641         5.7590 
 198   0.0000       0.216407         5.8887 
 199   0.0000       0.227495         6.1905 
 200   0.0000       0.230050         6.2600 
 201   0.0000       0.233169         6.3449 
 202   0.0000       0.238183         6.4813 
 203   0.0000       0.239905         6.5281 
 204   0.0000       0.245768         6.6877 
 205   0.0000       0.248268         6.7557 
 206   0.0000       0.254850         6.9348 
 207   0.0000       0.257551         7.0083 
 208   0.0000       0.258545         7.0354 
 209   0.0000       0.258633         7.0378 
 210   0.0000       0.262224         7.1355 
 211   0.0000       0.264218         7.1897 
 212   0.0000       0.266952         7.2641 
 213   0.0000       0.272848         7.4246 
 214   0.0000       0.277722         7.5572 
 215   0.0000       0.279447         7.6041 
 216   0.0000       0.281445         7.6585 
 217   0.0000       0.285274         7.7627 
 218   0.0000       0.287402         7.8206 
 219   0.0000       0.288270         7.8442 
 220   0.0000       0.293384         7.9834 
 221   0.0000       0.293885         7.9970 
 222   0.0000       0.296880         8.0785 
 223   0.0000       0.297734         8.1017 
 224   0.0000       0.300601         8.1798 
 225   0.0000       0.301698         8.2096 
 226   0.0000       0.304910         8.2970 
 227   0.0000       0.305414         8.3108 
 228   0.0000       0.313371         8.5273 
 229   0.0000       0.316292         8.6067 
 230   0.0000       0.324583         8.8323 
 231   0.0000       0.325313         8.8522 
 232   0.0000       0.327090         8.9006 
 233   0.0000       0.333129         9.0649 
 234   0.0000       0.337340         9.1795 
 235   0.0000       0.353208         9.6113 
 236   0.0000       0.358885         9.7657 
 237   0.0000       0.365048         9.9335 
 238   0.0000       0.385885        10.5005 
 239   0.0000       0.395026        10.7492 
 240   0.0000       0.402446        10.9511 
 241   0.0000       0.403738        10.9863 
 242   0.0000       0.406595        11.0640 
 243   0.0000       0.418869        11.3980 
 244   0.0000       0.425703        11.5840 
 245   0.0000       0.429094        11.6762 
 246   0.0000       0.435706        11.8562 
 247   0.0000       0.438639        11.9360 
 248   0.0000       0.440806        11.9950 
 249   0.0000       0.445508        12.1229 
 250   0.0000       0.450011        12.2454 
 251   0.0000       0.455953        12.4071 
 252   0.0000       0.463612        12.6155 
 253   0.0000       0.469514        12.7761 
 254   0.0000       0.470467        12.8021 
 255   0.0000       0.471425        12.8281 
 256   0.0000       0.477088        12.9822 
 257   0.0000       0.484146        13.1743 
 258   0.0000       0.488520        13.2933 
 259   0.0000       0.494737        13.4625 
 260   0.0000       0.502543        13.6749 
 261   0.0000       0.503275        13.6948 
 262   0.0000       0.506037        13.7700 
 263   0.0000       0.507673        13.8145 
 264   0.0000       0.514464        13.9993 
 265   0.0000       0.517085        14.0706 
 266   0.0000       0.521121        14.1804 
 267   0.0000       0.524332        14.2678 
 268   0.0000       0.530287        14.4298 
 269   0.0000       0.539389        14.6775 
 270   0.0000       0.543226        14.7819 
 271   0.0000       0.546073        14.8594 
 272   0.0000       0.549030        14.9399 
 273   0.0000       0.553469        15.0607 
 274   0.0000       0.556517        15.1436 
 275   0.0000       0.560576        15.2540 
 276   0.0000       0.566757        15.4222 
 277   0.0000       0.569861        15.5067 
 278   0.0000       0.578167        15.7327 
 279   0.0000       0.583713        15.8836 
 280   0.0000       0.588781        16.0215 
 281   0.0000       0.592551        16.1241 
 282   0.0000       0.594132        16.1672 
 283   0.0000       0.597746        16.2655 
 284   0.0000       0.601557        16.3692 
 285   0.0000       0.603262        16.4156 
 286   0.0000       0.608467        16.5572 
 287   0.0000       0.613156        16.6848 
 288   0.0000       0.613983        16.7073 
 289   0.0000       0.618030        16.8175 
 290   0.0000       0.623117        16.9559 
 291   0.0000       0.627198        17.0669 
 292   0.0000       0.630743        17.1634 
 293   0.0000       0.633852        17.2480 
 294   0.0000       0.643012        17.4972 
 295   0.0000       0.648009        17.6332 
 296   0.0000       0.656645        17.8682 
 297   0.0000       0.658526        17.9194 
 298   0.0000       0.662278        18.0215 
 299   0.0000       0.663089        18.0436 
 300   0.0000       0.667056        18.1515 
 301   0.0000       0.673467        18.3260 
 302   0.0000       0.674347        18.3499 
 303   0.0000       0.675695        18.3866 
 304   0.0000       0.677506        18.4359 
 305   0.0000       0.680749        18.5241 
 306   0.0000       0.684106        18.6155 
 307   0.0000       0.688492        18.7348 
 308   0.0000       0.689551        18.7636 
 309   0.0000       0.695551        18.9269 
 310   0.0000       0.699390        19.0314 
 311   0.0000       0.704209        19.1625 
 312   0.0000       0.706737        19.2313 
 313   0.0000       0.707892        19.2627 
 314   0.0000       0.713078        19.4039 
 315   0.0000       0.713614        19.4184 
 316   0.0000       0.716184        19.4884 
 317   0.0000       0.716967        19.5097 
 318   0.0000       0.721664        19.6375 
 319   0.0000       0.722277        19.6541 
 320   0.0000       0.725440        19.7402 
 321   0.0000       0.728507        19.8237 
 322   0.0000       0.730502        19.8780 
 323   0.0000       0.733409        19.9571 
 324   0.0000       0.740249        20.1432 
 325   0.0000       0.742007        20.1910 
 326   0.0000       0.743852        20.2412 
 327   0.0000       0.745795        20.2941 
 328   0.0000       0.750098        20.4112 
 329   0.0000       0.754509        20.5312 
 330   0.0000       0.756233        20.5781 
 331   0.0000       0.758288        20.6341 
 332   0.0000       0.761098        20.7105 
 333   0.0000       0.762379        20.7454 
 334   0.0000       0.766615        20.8606 
 335   0.0000       0.767446        20.8833 
 336   0.0000       0.777663        21.1613 
 337   0.0000       0.779139        21.2014 
 338   0.0000       0.779762        21.2184 
 339   0.0000       0.785629        21.3781 
 340   0.0000       0.788599        21.4589 
 341   0.0000       0.792873        21.5752 
 342   0.0000       0.794557        21.6210 
 343   0.0000       0.797655        21.7053 
 344   0.0000       0.800474        21.7820 
 345   0.0000       0.802696        21.8425 
 346   0.0000       0.804388        21.8885 
 347   0.0000       0.808956        22.0128 
 348   0.0000       0.814309        22.1585 
 349   0.0000       0.815223        22.1833 
 350   0.0000       0.815893        22.2016 
 351   0.0000       0.820882        22.3373 
 352   0.0000       0.821998        22.3677 
 353   0.0000       0.824676        22.4406 
 354   0.0000       0.825852        22.4726 
 355   0.0000       0.828157        22.5353 
 356   0.0000       0.833315        22.6756 
 357   0.0000       0.835395        22.7323 
 358   0.0000       0.838086        22.8055 
 359   0.0000       0.839404        22.8413 
 360   0.0000       0.843185        22.9442 
 361   0.0000       0.845283        23.0013 
 362   0.0000       0.847848        23.0711 
 363   0.0000       0.850087        23.1320 
 364   0.0000       0.850853        23.1529 
 365   0.0000       0.854864        23.2620 
 366   0.0000       0.857800        23.3419 
 367   0.0000       0.860395        23.4125 
 368   0.0000       0.862755        23.4768 
 369   0.0000       0.866598        23.5813 
 370   0.0000       0.868291        23.6274 
 371   0.0000       0.868535        23.6340 
 372   0.0000       0.870818        23.6962 
 373   0.0000       0.874218        23.7887 
 374   0.0000       0.876234        23.8435 
 375   0.0000       0.878095        23.8942 
 376   0.0000       0.880237        23.9525 
 377   0.0000       0.882779        24.0216 
 378   0.0000       0.887865        24.1600 
 379   0.0000       0.889750        24.2113 
 380   0.0000       0.892304        24.2808 
 381   0.0000       0.896466        24.3941 
 382   0.0000       0.898417        24.4472 
 383   0.0000       0.903435        24.5837 
 384   0.0000       0.904846        24.6221 
 385   0.0000       0.906239        24.6600 
 386   0.0000       0.908479        24.7210 
 387   0.0000       0.914660        24.8892 
 388   0.0000       0.914943        24.8969 
 389   0.0000       0.917803        24.9747 
 390   0.0000       0.920509        25.0483 
 391   0.0000       0.924155        25.1475 
 392   0.0000       0.925449        25.1827 
 393   0.0000       0.928636        25.2695 
 394   0.0000       0.931925        25.3590 
 395   0.0000       0.932762        25.3817 
 396   0.0000       0.934800        25.4372 
 397   0.0000       0.936278        25.4774 
 398   0.0000       0.941373        25.6161 
 399   0.0000       0.941527        25.6202 
 400   0.0000       0.946427        25.7536 
 401   0.0000       0.950960        25.8769 
 402   0.0000       0.953834        25.9551 
 403   0.0000       0.954679        25.9781 
 404   0.0000       0.958142        26.0724 
 405   0.0000       0.959064        26.0975 
 406   0.0000       0.962426        26.1890 
 407   0.0000       0.963789        26.2260 
 408   0.0000       0.964475        26.2447 
 409   0.0000       0.970026        26.3957 
 410   0.0000       0.977744        26.6058 
 411   0.0000       0.983363        26.7587 
 412   0.0000       0.985991        26.8302 
 413   0.0000       0.991779        26.9877 
 414   0.0000       0.994702        27.0672 
 415   0.0000       0.997062        27.1314 
 416   0.0000       1.003247        27.2997 
 417   0.0000       1.007134        27.4055 
 418   0.0000       1.008357        27.4388 
 419   0.0000       1.018328        27.7101 
 420   0.0000       1.022964        27.8363 
 421   0.0000       1.027110        27.9491 
 422   0.0000       1.033842        28.1323 
 423   0.0000       1.036474        28.2039 
 424   0.0000       1.041534        28.3416 
 425   0.0000       1.043599        28.3978 
 426   0.0000       1.053807        28.6755 
 427   0.0000       1.063250        28.9325 
 428   0.0000       1.069166        29.0935 
 429   0.0000       1.072269        29.1779 
 430   0.0000       1.078392        29.3445 
 431   0.0000       1.082508        29.4565 
 432   0.0000       1.085730        29.5442 
 433   0.0000       1.088054        29.6075 
 434   0.0000       1.092878        29.7387 
 435   0.0000       1.099747        29.9256 
 436   0.0000       1.108939        30.1758 
 437   0.0000       1.111013        30.2322 
 438   0.0000       1.113357        30.2960 
 439   0.0000       1.114761        30.3342 
 440   0.0000       1.116866        30.3915 
 441   0.0000       1.119649        30.4672 
 442   0.0000       1.125468        30.6255 
 443   0.0000       1.129080        30.7238 
 444   0.0000       1.133790        30.8520 
 445   0.0000       1.135877        30.9088 
 446   0.0000       1.140297        31.0291 
 447   0.0000       1.142661        31.0934 
 448   0.0000       1.146653        31.2020 
 449   0.0000       1.148759        31.2593 
 450   0.0000       1.155517        31.4432 
 451   0.0000       1.157072        31.4855 
 452   0.0000       1.158593        31.5269 
 453   0.0000       1.159168        31.5426 
 454   0.0000       1.163872        31.6706 
 455   0.0000       1.168907        31.8076 
 456   0.0000       1.169683        31.8287 
 457   0.0000       1.176969        32.0270 
 458   0.0000       1.181960        32.1628 
 459   0.0000       1.188137        32.3309 
 460   0.0000       1.190185        32.3866 
 461   0.0000       1.194967        32.5167 
 462   0.0000       1.197944        32.5977 
 463   0.0000       1.203971        32.7617 
 464   0.0000       1.207532        32.8586 
 465   0.0000       1.210535        32.9403 
 466   0.0000       1.211023        32.9536 
 467   0.0000       1.213592        33.0235 
 468   0.0000       1.223264        33.2867 
 469   0.0000       1.225771        33.3549 
 470   0.0000       1.227739        33.4085 
 471   0.0000       1.231817        33.5194 
 472   0.0000       1.234508        33.5927 
 473   0.0000       1.238858        33.7110 
 474   0.0000       1.241722        33.7890 
 475   0.0000       1.241947        33.7951 
 476   0.0000       1.245376        33.8884 
 477   0.0000       1.247778        33.9538 
 478   0.0000       1.256041        34.1786 
 479   0.0000       1.256489        34.1908 
 480   0.0000       1.259985        34.2859 
 481   0.0000       1.263227        34.3741 
 482   0.0000       1.264352        34.4048 
 483   0.0000       1.269577        34.5470 
 484   0.0000       1.276720        34.7413 
 485   0.0000       1.278333        34.7852 
 486   0.0000       1.280984        34.8574 
 487   0.0000       1.285855        34.9899 
 488   0.0000       1.289345        35.0849 
 489   0.0000       1.292536        35.1717 
 490   0.0000       1.297529        35.3076 
 491   0.0000       1.299622        35.3645 
 492   0.0000       1.300304        35.3831 
 493   0.0000       1.307066        35.5671 
 494   0.0000       1.312573        35.7169 
 495   0.0000       1.315120        35.7862 
 496   0.0000       1.315321        35.7917 
 497   0.0000       1.320295        35.9270 
 498   0.0000       1.329856        36.1872 
 499   0.0000       1.330968        36.2175 
[...]
      pz      :     0.021785  p :     0.079301
      px      :     0.042898
      py      :     0.014619
 77 H s       :     0.894942  s :     0.894942
      pz      :     0.047173  p :     0.078393
      px      :     0.015003
      py      :     0.016216
 78 H s       :     0.895364  s :     0.895364
      pz      :     0.025471  p :     0.078304
      px      :     0.020692
      py      :     0.032142
 79 H s       :     0.907246  s :     0.907246
      pz      :     0.022539  p :     0.087217
      px      :     0.021888
      py      :     0.042790
 80 H s       :     0.878910  s :     0.878910
      pz      :     0.038223  p :     0.083279
      px      :     0.029530
      py      :     0.015525
 81 H s       :     0.888507  s :     0.888507
      pz      :     0.037579  p :     0.083362
      px      :     0.016081
      py      :     0.029701
 82 H s       :     0.914456  s :     0.914456
      pz      :     0.022467  p :     0.087110
      px      :     0.030953
      py      :     0.033690
 83 H s       :     0.872281  s :     0.872281
      pz      :     0.039177  p :     0.083684
      px      :     0.015246
      py      :     0.029262
 84 H s       :     0.888570  s :     0.888570
      pz      :     0.035805  p :     0.084334
      px      :     0.031782
      py      :     0.016748
 85 H s       :     0.895779  s :     0.895779
      pz      :     0.022506  p :     0.079615
      px      :     0.014147
      py      :     0.042962
 86 H s       :     0.890758  s :     0.890758
      pz      :     0.024701  p :     0.078885
      px      :     0.032992
      py      :     0.021192
 87 H s       :     0.891148  s :     0.891148
      pz      :     0.047827  p :     0.078601
      px      :     0.015652
      py      :     0.015123
 88 H s       :     0.918041  s :     0.918041
      pz      :     0.022545  p :     0.086860
      px      :     0.042001
      py      :     0.022314
 89 H s       :     0.874814  s :     0.874814
      pz      :     0.037819  p :     0.084017
      px      :     0.030476
      py      :     0.015722


                      *****************************
                      * MAYER POPULATION ANALYSIS *
                      *****************************

  NA   - Mulliken gross atomic population
  ZA   - Total nuclear charge
  QA   - Mulliken gross atomic charge
  VA   - Mayer's total valence
  BVA  - Mayer's bonded valence
  FA   - Mayer's free valence

  ATOM       NA         ZA         QA         VA         BVA        FA
  0 C      5.7699     6.0000     0.2301     3.8071     3.8071     0.0000
  1 N      7.4192     7.0000    -0.4192     3.4560     3.4560     0.0000
  2 C      6.0674     6.0000    -0.0674     3.9188     3.9188     0.0000
  3 N      7.3430     7.0000    -0.3430     3.4252     3.4252    -0.0000
  4 C      6.0779     6.0000    -0.0779     3.9651     3.9651     0.0000
  5 N      7.5649     7.0000    -0.5649     3.0702     3.0702     0.0000
  6 C      6.0270     6.0000    -0.0270     3.9664     3.9664     0.0000
  7 N      7.3371     7.0000    -0.3371     3.4447     3.4447    -0.0000
  8 C      5.7728     6.0000     0.2272     3.8071     3.8071    -0.0000
  9 N      7.5657     7.0000    -0.5657     3.0912     3.0912    -0.0000
 10 C      5.8939     6.0000     0.1061     3.8664     3.8664     0.0000
 11 N      7.4390     7.0000    -0.4390     3.3771     3.3771     0.0000
 12 C      6.0590     6.0000    -0.0590     3.9108     3.9108    -0.0000
 13 N      7.4495     7.0000    -0.4495     3.3266     3.3266     0.0000
 14 C      5.7791     6.0000     0.2209     3.8080     3.8080    -0.0000
 15 N      7.4415     7.0000    -0.4415     3.3648     3.3648     0.0000
 16 C      5.7463     6.0000     0.2537     3.8041     3.8041    -0.0000
 17 C      6.0342     6.0000    -0.0342     3.9691     3.9691     0.0000
 18 C      6.1760     6.0000    -0.1760     3.6872     3.6872     0.0000
 19 C      5.7729     6.0000     0.2271     3.9012     3.9012     0.0000
 20 C      5.8081     6.0000     0.1919     3.8213     3.8213    -0.0000
 21 C      6.0663     6.0000    -0.0663     3.8929     3.8929     0.0000
 22 C      6.0891     6.0000    -0.0891     3.9850     3.9850     0.0000
 23 C      6.0647     6.0000    -0.0647     3.9881     3.9881     0.0000
 24 C      5.7831     6.0000     0.2169     3.8290     3.8290     0.0000
 25 C      5.8855     6.0000     0.1145     3.8924     3.8924     0.0000
 26 C      6.0680     6.0000    -0.0680     3.9070     3.9070     0.0000
 27 C      5.7562     6.0000     0.2438     3.9008     3.9008    -0.0000
 28 C      6.0412     6.0000    -0.0412     3.9900     3.9900    -0.0000
 29 C      6.1946     6.0000    -0.1946     3.7286     3.7286    -0.0000
 30 C      5.7773     6.0000     0.2227     3.7808     3.7808    -0.0000
 31 C      5.8086     6.0000     0.1914     3.8331     3.8331    -0.0000
 32 C      6.0646     6.0000    -0.0646     3.9138     3.9138    -0.0000
 33 C      6.0998     6.0000    -0.0998     3.9852     3.9852     0.0000
 34 C      6.0500     6.0000    -0.0500     3.9987     3.9987     0.0000
 35 C      5.8185     6.0000     0.1815     3.8293     3.8293    -0.0000
 36 C      5.8799     6.0000     0.1201     3.9079     3.9079     0.0000
 37 C      6.0699     6.0000    -0.0699     3.9145     3.9145    -0.0000
 38 C      5.7560     6.0000     0.2440     3.7958     3.7958    -0.0000
 39 C      6.0652     6.0000    -0.0652     3.9980     3.9980     0.0000
 40 C      6.2019     6.0000    -0.2019     3.7513     3.7513    -0.0000
 41 C      5.7839     6.0000     0.2161     3.8746     3.8746     0.0000
 42 C      5.7892     6.0000     0.2108     3.8318     3.8318    -0.0000
 43 C      6.0769     6.0000    -0.0769     3.9050     3.9050     0.0000
 44 C      6.0912     6.0000    -0.0912     3.9839     3.9839    -0.0000
 45 C      6.0404     6.0000    -0.0404     3.9954     3.9954     0.0000
 46 C      5.8127     6.0000     0.1873     3.8210     3.8210     0.0000
 47 C      5.8834     6.0000     0.1166     3.8966     3.8966     0.0000
 48 C      6.0818     6.0000    -0.0818     3.8980     3.8980     0.0000
 49 C      5.7897     6.0000     0.2103     3.8665     3.8665    -0.0000
 50 C      6.0650     6.0000    -0.0650     3.9901     3.9901     0.0000
 51 C      6.1899     6.0000    -0.1899     3.7404     3.7404     0.0000
 52 H      0.9229     1.0000     0.0771     0.9828     0.9828     0.0000
 53 H      1.0085     1.0000    -0.0085     1.0019     1.0019     0.0000
 54 H      0.9369     1.0000     0.0631     1.0050     1.0050    -0.0000
 55 H      0.9246     1.0000     0.0754     0.9836     0.9836     0.0000
 56 H      0.9198     1.0000     0.0802     0.9727     0.9727     0.0000
 57 H      0.9274     1.0000     0.0726     0.9843     0.9843    -0.0000
 58 H      0.9288     1.0000     0.0712     0.9870     0.9870    -0.0000
 59 H      1.0268     1.0000    -0.0268     0.9961     0.9961    -0.0000
 60 H      0.9378     1.0000     0.0622     1.0059     1.0059    -0.0000
 61 H      0.8237     1.0000     0.1763     1.0436     1.0436     0.0000
 62 H      0.8313     1.0000     0.1687     1.0433     1.0433     0.0000
 63 H      0.9461     1.0000     0.0539     0.9861     0.9861     0.0000
 64 H      1.0329     1.0000    -0.0329     0.9934     0.9934    -0.0000
 65 H      0.9580     1.0000     0.0420     1.0081     1.0081    -0.0000
 66 H      0.9441     1.0000     0.0559     0.9846     0.9846     0.0000
 67 H      0.9405     1.0000     0.0595     0.9717     0.9717     0.0000
 68 H      0.9434     1.0000     0.0566     0.9865     0.9865    -0.0000
 69 H      0.9407     1.0000     0.0593     0.9831     0.9831    -0.0000
 70 H      1.0156     1.0000    -0.0156     0.9975     0.9975     0.0000
 71 H      0.9525     1.0000     0.0475     1.0075     1.0075    -0.0000
 72 H      0.9599     1.0000     0.0401     0.9859     0.9859    -0.0000
 73 H      1.0188     1.0000    -0.0188     0.9965     0.9965    -0.0000
 74 H      0.9682     1.0000     0.0318     1.0093     1.0093     0.0000
 75 H      0.9613     1.0000     0.0387     0.9866     0.9866     0.0000
 76 H      0.9517     1.0000     0.0483     0.9704     0.9704     0.0000
 77 H      0.9523     1.0000     0.0477     0.9844     0.9844    -0.0000
 78 H      0.9531     1.0000     0.0469     0.9837     0.9837     0.0000
 79 H      1.0117     1.0000    -0.0117     1.0016     1.0016    -0.0000
 80 H      0.9685     1.0000     0.0315     1.0063     1.0063    -0.0000
 81 H      0.9491     1.0000     0.0509     0.9853     0.9853     0.0000
 82 H      1.0234     1.0000    -0.0234     0.9950     0.9950    -0.0000
 83 H      0.9573     1.0000     0.0427     1.0106     1.0106     0.0000
 84 H      0.9502     1.0000     0.0498     0.9863     0.9863     0.0000
 85 H      0.9451     1.0000     0.0549     0.9713     0.9713     0.0000
 86 H      0.9437     1.0000     0.0563     0.9841     0.9841     0.0000
 87 H      0.9452     1.0000     0.0548     0.9853     0.9853     0.0000
 88 H      1.0298     1.0000    -0.0298     0.9915     0.9915     0.0000
 89 H      0.9599     1.0000     0.0401     1.0060     1.0060     0.0000

  Mayer bond orders larger than 0.100000
B(  0-C ,  1-N ) :   1.1863 B(  0-C , 17-C ) :   1.5416 B(  0-C , 52-H ) :   0.9673 
B(  1-N ,  8-C ) :   1.1793 B(  1-N , 10-C ) :   0.9333 B(  2-C , 12-C ) :   1.5701 
B(  2-C , 16-C ) :   1.2832 B(  2-C , 53-H ) :   0.9791 B(  3-N , 14-C ) :   1.1788 
B(  3-N , 16-C ) :   1.2023 B(  3-N , 61-H ) :   0.8960 B(  4-C ,  6-C ) :   1.3378 
B(  4-C , 17-C ) :   1.3417 B(  4-C , 18-C ) :   1.0914 B(  5-N , 19-C ) :   1.3739 
B(  5-N , 27-C ) :   1.4414 B(  6-C ,  8-C ) :   1.5464 B(  6-C , 54-H ) :   0.9709 
B(  7-N , 30-C ) :   1.1847 B(  7-N , 38-C ) :   1.2138 B(  7-N , 62-H ) :   0.9007 
B(  8-C , 55-H ) :   0.9684 B(  9-N , 41-C ) :   1.4289 B(  9-N , 49-C ) :   1.3986 
B( 10-C , 56-H ) :   0.9765 B( 10-C , 57-H ) :   0.9812 B( 10-C , 58-H ) :   0.9819 
B( 11-N , 20-C ) :   1.1037 B( 11-N , 24-C ) :   1.1350 B( 11-N , 25-C ) :   0.9605 
B( 12-C , 14-C ) :   1.2840 B( 12-C , 59-H ) :   0.9774 B( 13-N , 31-C ) :   1.0896 
B( 13-N , 35-C ) :   1.0789 B( 13-N , 36-C ) :   0.9785 B( 14-C , 18-C ) :   1.2517 
B( 15-N , 42-C ) :   1.1245 B( 15-N , 46-C ) :   1.0945 B( 15-N , 47-C ) :   0.9655 
B( 16-C , 51-C ) :   1.2377 B( 17-C , 60-H ) :   0.9711 B( 18-C , 19-C ) :   1.2940 
B( 19-C , 21-C ) :   1.1732 B( 20-C , 28-C ) :   1.6256 B( 20-C , 63-H ) :   0.9707 
B( 21-C , 26-C ) :   1.6735 B( 21-C , 64-H ) :   0.9726 B( 22-C , 23-C ) :   1.2620 
B( 22-C , 28-C ) :   1.2810 B( 22-C , 29-C ) :   1.2491 B( 23-C , 24-C ) :   1.6297 
B( 23-C , 65-H ) :   0.9720 B( 24-C , 66-H ) :   0.9690 B( 25-C , 67-H ) :   0.9763 
B( 25-C , 68-H ) :   0.9833 B( 25-C , 69-H ) :   0.9819 B( 26-C , 27-C ) :   1.1795 
B( 26-C , 70-H ) :   0.9752 B( 27-C , 29-C ) :   1.2383 B( 28-C , 71-H ) :   0.9709 
B( 29-C , 30-C ) :   1.1845 B( 30-C , 32-C ) :   1.3420 B( 31-C , 39-C ) :   1.6750 
B( 31-C , 72-H ) :   0.9707 B( 32-C , 37-C ) :   1.5175 B( 32-C , 73-H ) :   0.9772 
B( 33-C , 34-C ) :   1.2405 B( 33-C , 39-C ) :   1.2322 B( 33-C , 40-C ) :   1.3370 
B( 34-C , 35-C ) :   1.6731 B( 34-C , 74-H ) :   0.9709 B( 35-C , 75-H ) :   0.9707 
B( 36-C , 76-H ) :   0.9756 B( 36-C , 77-H ) :   0.9825 B( 36-C , 78-H ) :   0.9837 
B( 37-C , 38-C ) :   1.3373 B( 37-C , 79-H ) :   0.9790 B( 38-C , 40-C ) :   1.1852 
B( 39-C , 80-H ) :   0.9721 B( 40-C , 41-C ) :   1.1765 B( 41-C , 43-C ) :   1.2504 
B( 42-C , 50-C ) :   1.6403 B( 42-C , 81-H ) :   0.9696 B( 43-C , 48-C ) :   1.6006 
B( 43-C , 82-H ) :   0.9752 B( 44-C , 45-C ) :   1.2790 B( 44-C , 50-C ) :   1.2527 
B( 44-C , 51-C ) :   1.2507 B( 45-C , 46-C ) :   1.6328 B( 45-C , 83-H ) :   0.9704 
B( 46-C , 84-H ) :   0.9708 B( 47-C , 85-H ) :   0.9760 B( 47-C , 86-H ) :   0.9826 
B( 47-C , 87-H ) :   0.9829 B( 48-C , 49-C ) :   1.2455 B( 48-C , 88-H ) :   0.9728 
B( 49-C , 51-C ) :   1.1929 B( 50-C , 89-H ) :   0.9720 

-------
TIMINGS
-------

Total SCF time: 0 days 0 hours 36 min 15 sec 

Total time                  ....    2175.652 sec
Sum of individual times     ....    2170.763 sec  ( 99.8%)

Fock matrix formation       ....    2144.868 sec  ( 98.6%)
Diagonalization             ....       6.921 sec  (  0.3%)
Density matrix formation    ....       0.780 sec  (  0.0%)
Population analysis         ....       0.519 sec  (  0.0%)
Initial guess               ....       2.061 sec  (  0.1%)
Orbital Transformation      ....       0.000 sec  (  0.0%)
Orbital Orthonormalization  ....       0.000 sec  (  0.0%)
DIIS solution               ....       3.534 sec  (  0.2%)
SOSCF solution              ....      11.028 sec  (  0.5%)

Maximum memory used throughout the entire SCF-calculation: 302.6 MB


           ************************************************************
           *        Program running with 16 parallel MPI-processes    *
           *              working on a common directory               *
           ************************************************************

------------------------------------------------------------------------------
                                ORCA  MP2 
------------------------------------------------------------------------------

Freezing NCore=104 chemical core electrons

----------
MP2 ENERGY (disk based algorithm)
----------

Dimension of the basis                    ...  918
Memory devoted to MP2                     ... 2000 MB   
Data format for buffers                   ... DOUBLE
Compression type for matrix containers    ... UNCOMPRESSED

-------------------------------
PARTIAL EXCHANGE TRANSFORMATION
-------------------------------

Transformation type                        ... one-operator
Generation of integrals (i,mue|j,nue)      ... ON
Generation of integrals (mue,kappa|nue,tau)... OFF
Generation of integrals (i,mue|a,nue)      ... OFF
Dimension of the basis                     ...  918
Number of internal MOs                     ...  127 (  52- 178)
Pair cutoff                                ... 2.500e-12 Eh
Number of AO pairs in the trafo            ... 421821
Total Number of distinct AO pairs          ... 421821
Memory devoted for trafo                   ... 2000.0 MB 
Max. Number of MO pairs treated together   ...  311      
Number Format for Storage                  ... Double (8 Byte)
Integral package used                      ... LIBINT

Starting integral evaluation:
    ... done with AO integral generation
Closing buffer AOK     (37.83 GB; CompressionRatio= 1.34)
Collecting buffer AOK 
Number of MO pairs included in the trafo   ... 8128
------------------------
SORTING OF (i,mue|j,nue)
------------------------

IBATCH = 1 of  2
IBATCH = 2 of  2
Closing buffer KAO     (51.03 GB; CompressionRatio= 1.00)
Collecting buffer KAO 
N(AO-Batches) Done                         ...  85686448 
N(AO-Batches) Skipped                      ...  81802753 
N(IJ)-pairs Skipped                        ...         0 
TOTAL TIME for half transformation         ...  3035.341 sec
AO-integral generation                     ...   213.806 sec
Half transformation                        ...   374.950 sec
K-integral sorting                         ...  2271.584 sec
Process 13:   Internal MO 156
Process 10:   Internal MO 132

Finished integral transformation - now doing MP2 part

OPERATOR COMBINATION   0   0: ij=( 52..178, 52..178)
Process  1:   Internal MO  60
Process  7:   Internal MO 108
Process  4:   Internal MO  84
Process  0:   Internal MO  54
Process  0:   Internal MO  57
Process  2:   Internal MO  69
Process  1:   Internal MO  63
Process  5:   Internal MO  93
Process  3:   Internal MO  78
Process  8:   Internal MO 117
Process  1:   Internal MO  66
Process  2:   Internal MO  72
Process 11:   Internal MO 141
Process  6:   Internal MO 102
Process 14:   Internal MO 165
Process  4:   Internal MO  87
Process  2:   Internal MO  75
Process  3:   Internal MO  81
Process  9:   Internal MO 126
Process  5:   Internal MO  96
Process  7:   Internal MO 111
Process 12:   Internal MO 150
Process  4:   Internal MO  90
Process 15:   Internal MO 174
Process  6:   Internal MO 105
Process 10:   Internal MO 135
Process  8:   Internal MO 120
Process  5:   Internal MO  99
Process 13:   Internal MO 159
Process  7:   Internal MO 114
Process 11:   Internal MO 144
Process  9:   Internal MO 129
Process  8:   Internal MO 123
Process 14:   Internal MO 168
Process 12:   Internal MO 153
Process 10:   Internal MO 138
Process 15:   Internal MO 177
Process 11:   Internal MO 147
Process 13:   Internal MO 162
Process 14:   Internal MO 171
-----------------------------------------------
 MP2 CORRELATION ENERGY   :     -7.271747896 Eh
-----------------------------------------------


-------
TIMINGS
-------
Total time                : 3577.234 sec
Integral trafo            : 3037.375 sec ( 84.9%)
K(i,j)                    :    5.726 sec (  0.2%)
T(i,j)                    :    0.082 sec (  0.0%)

---------------------------------------
MP2 TOTAL ENERGY:    -2130.884576335 Eh
---------------------------------------

Maximum memory used throughout the entire MP2-calculation: 2275.2 MB

-------------------------   --------------------
FINAL SINGLE POINT ENERGY     -2130.884576335474
-------------------------   --------------------


                            ***************************************
                            *     ORCA property calculations      *
                            ***************************************


  WARNING: The energy has been calculated at the MP2 level but the densities
           used in the property calculations are still SCF densities
           MP2 response densities have not been calculated 
           use %mp2 Density relaxed end
           or  %mp2 Density unrelaxed end

                                    ---------------------
                                    Active property flags
                                    ---------------------
   (+) Dipole Moment


------------------------------------------------------------------------------
                       ORCA ELECTRIC PROPERTIES CALCULATION
------------------------------------------------------------------------------

Dipole Moment Calculation                       ... on
Quadrupole Moment Calculation                   ... off
Polarizability Calculation                      ... off
GBWName                                         ... /scratch/allen/tmpyp4_amber_gaff2/conf1/conf1/Conf101.orca.gbw
Electron density                                ... /scratch/allen/tmpyp4_amber_gaff2/conf1/conf1/Conf101.orca.scfp
The origin for moment calculation is the CENTER OF MASS  = ( 0.002129, -0.002680  0.003837)

-------------
DIPOLE MOMENT
-------------
                                X             Y             Z
Electronic contribution:     -3.78423       4.03759      -0.16625
Nuclear contribution   :     -0.01754       0.17152       0.21564
                        -----------------------------------------
Total Dipole Moment    :     -3.80177       4.20911       0.04939
                        -----------------------------------------
Magnitude (a.u.)       :      5.67208
Magnitude (Debye)      :     14.41728



--------------------
Rotational spectrum 
--------------------
 
Rotational constants in cm-1:     0.001498     0.001473     0.000763 
Rotational constants in MHz :    44.899153    44.146836    22.866516 

 Dipole components along the rotational axes: 
x,y,z [a.u.] :    -5.128896     2.421769     0.043955 
x,y,z [Debye]:   -13.036619     6.155648     0.111725 

 

Timings for individual modules:

Sum of individual times         ...     5781.630 sec (=  96.361 min)
GTO integral calculation        ...        3.387 sec (=   0.056 min)   0.1 %
SCF iterations                  ...     2176.763 sec (=  36.279 min)  37.6 %
MP2 module                      ...     3601.480 sec (=  60.025 min)  62.3 %
                             ****ORCA TERMINATED NORMALLY****
TOTAL RUN TIME: 0 days 1 hours 36 minutes 25 seconds 387 msec
# of primitive gaussian functions

