
                                 *****************
                                 * O   R   C   A *
                                 *****************

                                            #,                                       
                                            ###                                      
                                            ####                                     
                                            #####                                    
                                            ######                                   
                                           ########,                                 
                                     ,,################,,,,,                         
                               ,,#################################,,                 
                          ,,##########################################,,             
                       ,#########################################, ''#####,          
                    ,#############################################,,   '####,        
                  ,##################################################,,,,####,       
                ,###########''''           ''''###############################       
              ,#####''   ,,,,##########,,,,          '''####'''          '####       
            ,##' ,,,,###########################,,,                        '##       
           ' ,,###''''                  '''############,,,                           
         ,,##''                                '''############,,,,        ,,,,,,###''
      ,#''                                            '''#######################'''  
     '                                                          ''''####''''         
             ,#######,   #######,   ,#######,      ##                                
            ,#'     '#,  ##    ##  ,#'     '#,    #''#        ######   ,####,        
            ##       ##  ##   ,#'  ##            #'  '#       #        #'  '#        
            ##       ##  #######   ##           ,######,      #####,   #    #        
            '#,     ,#'  ##    ##  '#,     ,#' ,#      #,         ##   #,  ,#        
             '#######'   ##     ##  '#######'  #'      '#     #####' # '####'        



                  #######################################################
                  #                        -***-                        #
                  #          Department of theory and spectroscopy      #
                  #    Directorship and core code : Frank Neese         #
                  #        Max Planck Institute fuer Kohlenforschung    #
                  #                Kaiser Wilhelm Platz 1               #
                  #                 D-45470 Muelheim/Ruhr               #
                  #                      Germany                        #
                  #                                                     #
                  #                  All rights reserved                #
                  #                        -***-                        #
                  #######################################################


                         Program Version 5.0.4 -  RELEASE  -


 With contributions from (in alphabetic order):
   Daniel Aravena         : Magnetic Suceptibility
   Michael Atanasov       : Ab Initio Ligand Field Theory (pilot matlab implementation)
   Alexander A. Auer      : GIAO ZORA, VPT2 properties, NMR spectrum
   Ute Becker             : Parallelization
   Giovanni Bistoni       : ED, misc. LED, open-shell LED, HFLD
   Martin Brehm           : Molecular dynamics
   Dmytro Bykov           : SCF Hessian
   Vijay G. Chilkuri      : MRCI spin determinant printing, contributions to CSF-ICE
   Dipayan Datta          : RHF DLPNO-CCSD density
   Achintya Kumar Dutta   : EOM-CC, STEOM-CC
   Dmitry Ganyushin       : Spin-Orbit,Spin-Spin,Magnetic field MRCI
   Miquel Garcia          : C-PCM and meta-GGA Hessian, CC/C-PCM, Gaussian charge scheme
   Yang Guo               : DLPNO-NEVPT2, F12-NEVPT2, CIM, IAO-localization
   Andreas Hansen         : Spin unrestricted coupled pair/coupled cluster methods
   Benjamin Helmich-Paris : MC-RPA, TRAH-SCF, COSX integrals
   Lee Huntington         : MR-EOM, pCC
   Robert Izsak           : Overlap fitted RIJCOSX, COSX-SCS-MP3, EOM
   Marcus Kettner         : VPT2
   Christian Kollmar      : KDIIS, OOCD, Brueckner-CCSD(T), CCSD density, CASPT2, CASPT2-K
   Simone Kossmann        : Meta GGA functionals, TD-DFT gradient, OOMP2, MP2 Hessian
   Martin Krupicka        : Initial AUTO-CI
   Lucas Lang             : DCDCAS
   Marvin Lechner         : AUTO-CI (C++ implementation), FIC-MRCC
   Dagmar Lenk            : GEPOL surface, SMD
   Dimitrios Liakos       : Extrapolation schemes; Compound Job, initial MDCI parallelization
   Dimitrios Manganas     : Further ROCIS development; embedding schemes
   Dimitrios Pantazis     : SARC Basis sets
   Anastasios Papadopoulos: AUTO-CI, single reference methods and gradients
   Taras Petrenko         : DFT Hessian,TD-DFT gradient, ASA, ECA, R-Raman, ABS, FL, XAS/XES, NRVS
   Peter Pinski           : DLPNO-MP2, DLPNO-MP2 Gradient
   Christoph Reimann      : Effective Core Potentials
   Marius Retegan         : Local ZFS, SOC
   Christoph Riplinger    : Optimizer, TS searches, QM/MM, DLPNO-CCSD(T), (RO)-DLPNO pert. Triples
   Tobias Risthaus        : Range-separated hybrids, TD-DFT gradient, RPA, STAB
   Michael Roemelt        : Original ROCIS implementation
   Masaaki Saitow         : Open-shell DLPNO-CCSD energy and density
   Barbara Sandhoefer     : DKH picture change effects
   Avijit Sen             : IP-ROCIS
   Kantharuban Sivalingam : CASSCF convergence, NEVPT2, FIC-MRCI
   Bernardo de Souza      : ESD, SOC TD-DFT
   Georgi Stoychev        : AutoAux, RI-MP2 NMR, DLPNO-MP2 response
   Willem Van den Heuvel  : Paramagnetic NMR
   Boris Wezisla          : Elementary symmetry handling
   Frank Wennmohs         : Technical directorship


 We gratefully acknowledge several colleagues who have allowed us to
 interface, adapt or use parts of their codes:
   Stefan Grimme, W. Hujo, H. Kruse, P. Pracht,  : VdW corrections, initial TS optimization,
                  C. Bannwarth, S. Ehlert          DFT functionals, gCP, sTDA/sTD-DF
   Ed Valeev, F. Pavosevic, A. Kumar             : LibInt (2-el integral package), F12 methods
   Garnet Chan, S. Sharma, J. Yang, R. Olivares  : DMRG
   Ulf Ekstrom                                   : XCFun DFT Library
   Mihaly Kallay                                 : mrcc  (arbitrary order and MRCC methods)
   Jiri Pittner, Ondrej Demel                    : Mk-CCSD
   Frank Weinhold                                : gennbo (NPA and NBO analysis)
   Christopher J. Cramer and Donald G. Truhlar   : smd solvation model
   Lars Goerigk                                  : TD-DFT with DH, B97 family of functionals
   V. Asgeirsson, H. Jonsson                     : NEB implementation
   FAccTs GmbH                                   : IRC, NEB, NEB-TS, DLPNO-Multilevel, CI-OPT
                                                   MM, QMMM, 2- and 3-layer-ONIOM, Crystal-QMMM,
                                                   LR-CPCM, SF, NACMEs, symmetry and pop. for TD-DFT,
                                                   nearIR, NL-DFT gradient (VV10), updates on ESD,
                                                   ML-optimized integration grids
   S Lehtola, MJT Oliveira, MAL Marques          : LibXC Library
   Liviu Ungur et al                             : ANISO software


 Your calculation uses the libint2 library for the computation of 2-el integrals
 For citations please refer to: http://libint.valeyev.net

 Your ORCA version has been built with support for libXC version: 5.1.0
 For citations please refer to: https://tddft.org/programs/libxc/

 This ORCA versions uses:
   CBLAS   interface :  Fast vector & matrix operations
   LAPACKE interface :  Fast linear algebra routines
   SCALAPACK package :  Parallel linear algebra routines
   Shared memory     :  Shared parallel matrices
   BLAS/LAPACK       :  OpenBLAS 0.3.15  USE64BITINT DYNAMIC_ARCH NO_AFFINITY Sandybridge SINGLE_THREADED
        Core in use  :  Sandybridge
   Copyright (c) 2011-2014, The OpenBLAS Project


================================================================================

----- Orbital basis set information -----
Your calculation utilizes the basis: cc-pVDZ 
       H, B-Ne : Obtained from the ccRepo (grant-hill.group.shef.ac.uk/ccrepo) Feb. 2017
                 T. H. Dunning, Jr., J. Chem. Phys. 90, 1007 (1989)
            He : Obtained from the ccRepo (grant-hill.group.shef.ac.uk/ccrepo) Feb. 2017
                 D. E. Woon, T. H. Dunning, Jr., J. Chem. Phys. 100, 2975 (1994)
  Li-Be, Na-Mg : Obtained from the ccRepo (grant-hill.group.shef.ac.uk/ccrepo) Feb. 2017
                 B. P. Prascher, D. E. Woon, K. A. Peterson, T. H. Dunning, Jr., A. K. Wilson, Theor. Chem. Acc. 128, 69 (2011)
         Al-Ar : Obtained from the ccRepo (grant-hill.group.shef.ac.uk/ccrepo) Feb. 2017
                 D. E. Woon, T. H. Dunning, Jr., J. Chem. Phys. 98, 1358 (1993)
            Ca : Obtained from the Peterson Research Group Website (tyr0.chem.wsu.edu/~kipeters) Feb. 2017
                 J. Koput, K. A. Peterson, J. Phys. Chem. 106, 9595 (2002)
         Sc-Zn : Obtained from the ccRepo (grant-hill.group.shef.ac.uk/ccrepo) Feb. 2017
                 N. B. Balabanov, K. A. Peterson, J. Chem. Phys. 123, 064107 (2005)
                 N. B. Balabanov, K. A. Peterson, J. Chem. Phys. 125, 074110 (2006)
         Ga-Kr : Obtained from the ccRepo (grant-hill.group.shef.ac.uk/ccrepo) Feb. 2017
                 A. K. Wilson, D. E. Woon, K. A. Peterson, T. H. Dunning, Jr., J. Chem. Phys. 110, 7667 (1999)

================================================================================
                                        WARNINGS
                       Please study these warnings very carefully!
================================================================================


WARNING: No MP2 level density has been requested!
         To caclulate MP2 level properties use
         %mp2 Density relaxed end
         or
         %mp2 Density unrelaxed end

WARNING: Post HF methods need fully converged wavefunctions
  ===> : Setting SCFConvForced true
         You can overwrite this default with %scf ConvForced false 


INFO   : the flag for use of the SHARK integral package has been found!

================================================================================
                                       INPUT FILE
================================================================================
NAME = /scratch/allen/tmpyp4_amber_gaff2/2.Mdgx/conf11/conf11/Conf35.orca
|  1> ! PAL2
|  2> ! mp2 cc-pvdz TightSCF  NoKeepInts
|  3> 
|  4> %scf
|  5>   MaxCore 2000
|  6> end
|  7> %mp2
|  8>   MaxCore 2000
|  9> end
| 10> * xyz 0 1
| 11>    C       -3.18900         6.40200        -0.53800
| 12>    C        1.47400         4.04100         0.05700
| 13>    C       -2.80200         4.09300         0.04900
| 14>    C       -4.03500         4.11000         0.71900
| 15>    C       -4.79900         5.26000         0.73600
| 16>    C       -5.23100         7.59000         0.12200
| 17>    C        0.13200         4.30700         0.06100
| 18>    C       -0.56900         3.05600         0.04700
| 19>    C        1.64900         2.61800         0.02300
| 20>    C       -2.39200         5.27400        -0.58800
| 21>    N       -4.37200         6.38500         0.11700
| 22>    N        0.38800         2.06700         0.02500
| 23>    N       -2.01000         0.39500        -0.07500
| 24>    N       -0.38800        -2.07400        -0.02700
| 25>    N        2.01000        -0.40100         0.06500
| 26>    C       -1.96000         2.86100         0.02400
| 27>    C       -2.62300         1.61500        -0.01800
| 28>    C       -5.57300        -4.32900         1.06600
| 29>    C       -4.07300         1.47100         0.05600
| 30>    C       -4.10600        -2.75600        -0.02600
| 31>    C       -4.99500        -2.75700        -1.11100
| 32>    C       -6.13200        -3.54200        -1.07600
| 33>    C       -7.65100        -5.11300         0.04000
| 34>    C       -4.32400         0.14100         0.03700
| 35>    C       -3.02500        -0.52000        -0.04800
| 36>    C       -4.42200        -3.56600         1.07500
| 37>    N       -6.40700        -4.31300         0.00100
| 38>    C       -2.86700        -1.92200        -0.04000
| 39>    C       -1.65000        -2.62400        -0.02700
| 40>    C        3.56800        -6.14200        -1.04000
| 41>    C       -1.47600        -4.04900        -0.03400
| 42>    C        2.80300        -4.09900        -0.00800
| 43>    C        3.65700        -4.38400         1.06900
| 44>    C        4.42700        -5.53000         1.05900
| 45>    C        5.24500        -7.58800         0.01400
| 46>    C       -0.13400        -4.31500        -0.02200
| 47>    C        0.56800        -3.06400        -0.02700
| 48>    C        2.77500        -5.01200        -1.07400
| 49>    N        4.37600        -6.39100         0.01700
| 50>    C        1.95900        -2.86900        -0.00900
| 51>    C        2.62100        -1.62200         0.00900
| 52>    C        5.54300         4.33900        -1.13000
| 53>    C        4.07000        -1.47900        -0.09400
| 54>    C        4.10400         2.75100        -0.02100
| 55>    C        5.02700         2.72900         1.03600
| 56>    C        6.16600         3.50900         0.97800
| 57>    C        7.61900         5.15300        -0.11500
| 58>    C        4.32100        -0.14800        -0.09200
| 59>    C        3.02500         0.51400         0.01500
| 60>    C        4.38700         3.58200        -1.11500
| 61>    C        2.86600         1.91600         0.01300
| 62>    N        6.41300         4.29600        -0.09500
| 63>    H       -2.90700         7.33800        -1.00400
| 64>    H        2.27400         4.76600         0.08100
| 65>    H       -4.41000         3.22700         1.22200
| 66>    H       -5.75900         5.31900         1.23200
| 67>    H       -5.93800         7.52600        -0.70900
| 68>    H       -5.76800         7.63400         1.06900
| 69>    H       -4.60000         8.47100         0.00900
| 70>    H       -0.33200         5.28200         0.06900
| 71>    H       -1.44300         5.32900        -1.11000
| 72>    H        0.18200         1.07200         0.00500
| 73>    H       -0.18300        -1.08000        -0.02100
| 74>    H       -5.86400        -4.96200         1.89500
| 75>    H       -4.79400         2.27200         0.13900
| 76>    H       -4.80000        -2.16000        -1.99400
| 77>    H       -6.84100        -3.58200        -1.89300
| 78>    H       -8.42800        -4.53600         0.54600
| 79>    H       -7.95600        -5.33700        -0.98100
| 80>    H       -7.45600        -6.03700         0.58400
| 81>    H       -5.28700        -0.34400         0.10000
| 82>    H       -3.78000        -3.60100         1.94700
| 83>    H        3.58700        -6.86800        -1.84300
| 84>    H       -2.27600        -4.77400        -0.05000
| 85>    H        3.71400        -3.72400         1.92600
| 86>    H        5.09200        -5.79500         1.87100
| 87>    H        6.20500        -7.32900        -0.43900
| 88>    H        5.39300        -7.91700         1.04200
| 89>    H        4.75900        -8.37300        -0.56400
| 90>    H        0.32900        -5.29000        -0.00800
| 91>    H        2.14600        -4.84200        -1.94000
| 92>    H        5.80800         4.98600        -1.95600
| 93>    H        4.78800        -2.28100        -0.18500
| 94>    H        4.86000         2.11400         1.91200
| 95>    H        6.90100         3.53100         1.77200
| 96>    H        7.38300         6.10900         0.35600
| 97>    H        8.41400         4.65200         0.43500
| 98>    H        7.92100         5.31000        -1.15000
| 99>    H        5.28300         0.33600        -0.17900
|100>    H        3.72000         3.63200        -1.96700
|101> *
|102> 
|103>                          ****END OF INPUT****
================================================================================

                       ****************************
                       * Single Point Calculation *
                       ****************************

---------------------------------
CARTESIAN COORDINATES (ANGSTROEM)
---------------------------------
  C     -3.189000    6.402000   -0.538000
  C      1.474000    4.041000    0.057000
  C     -2.802000    4.093000    0.049000
  C     -4.035000    4.110000    0.719000
  C     -4.799000    5.260000    0.736000
  C     -5.231000    7.590000    0.122000
  C      0.132000    4.307000    0.061000
  C     -0.569000    3.056000    0.047000
  C      1.649000    2.618000    0.023000
  C     -2.392000    5.274000   -0.588000
  N     -4.372000    6.385000    0.117000
  N      0.388000    2.067000    0.025000
  N     -2.010000    0.395000   -0.075000
  N     -0.388000   -2.074000   -0.027000
  N      2.010000   -0.401000    0.065000
  C     -1.960000    2.861000    0.024000
  C     -2.623000    1.615000   -0.018000
  C     -5.573000   -4.329000    1.066000
  C     -4.073000    1.471000    0.056000
  C     -4.106000   -2.756000   -0.026000
  C     -4.995000   -2.757000   -1.111000
  C     -6.132000   -3.542000   -1.076000
  C     -7.651000   -5.113000    0.040000
  C     -4.324000    0.141000    0.037000
  C     -3.025000   -0.520000   -0.048000
  C     -4.422000   -3.566000    1.075000
  N     -6.407000   -4.313000    0.001000
  C     -2.867000   -1.922000   -0.040000
  C     -1.650000   -2.624000   -0.027000
  C      3.568000   -6.142000   -1.040000
  C     -1.476000   -4.049000   -0.034000
  C      2.803000   -4.099000   -0.008000
  C      3.657000   -4.384000    1.069000
  C      4.427000   -5.530000    1.059000
  C      5.245000   -7.588000    0.014000
  C     -0.134000   -4.315000   -0.022000
  C      0.568000   -3.064000   -0.027000
  C      2.775000   -5.012000   -1.074000
  N      4.376000   -6.391000    0.017000
  C      1.959000   -2.869000   -0.009000
  C      2.621000   -1.622000    0.009000
  C      5.543000    4.339000   -1.130000
  C      4.070000   -1.479000   -0.094000
  C      4.104000    2.751000   -0.021000
  C      5.027000    2.729000    1.036000
  C      6.166000    3.509000    0.978000
  C      7.619000    5.153000   -0.115000
  C      4.321000   -0.148000   -0.092000
  C      3.025000    0.514000    0.015000
  C      4.387000    3.582000   -1.115000
  C      2.866000    1.916000    0.013000
  N      6.413000    4.296000   -0.095000
  H     -2.907000    7.338000   -1.004000
  H      2.274000    4.766000    0.081000
  H     -4.410000    3.227000    1.222000
  H     -5.759000    5.319000    1.232000
  H     -5.938000    7.526000   -0.709000
  H     -5.768000    7.634000    1.069000
  H     -4.600000    8.471000    0.009000
  H     -0.332000    5.282000    0.069000
  H     -1.443000    5.329000   -1.110000
  H      0.182000    1.072000    0.005000
  H     -0.183000   -1.080000   -0.021000
  H     -5.864000   -4.962000    1.895000
  H     -4.794000    2.272000    0.139000
  H     -4.800000   -2.160000   -1.994000
  H     -6.841000   -3.582000   -1.893000
  H     -8.428000   -4.536000    0.546000
  H     -7.956000   -5.337000   -0.981000
  H     -7.456000   -6.037000    0.584000
  H     -5.287000   -0.344000    0.100000
  H     -3.780000   -3.601000    1.947000
  H      3.587000   -6.868000   -1.843000
  H     -2.276000   -4.774000   -0.050000
  H      3.714000   -3.724000    1.926000
  H      5.092000   -5.795000    1.871000
  H      6.205000   -7.329000   -0.439000
  H      5.393000   -7.917000    1.042000
  H      4.759000   -8.373000   -0.564000
  H      0.329000   -5.290000   -0.008000
  H      2.146000   -4.842000   -1.940000
  H      5.808000    4.986000   -1.956000
  H      4.788000   -2.281000   -0.185000
  H      4.860000    2.114000    1.912000
  H      6.901000    3.531000    1.772000
  H      7.383000    6.109000    0.356000
  H      8.414000    4.652000    0.435000
  H      7.921000    5.310000   -1.150000
  H      5.283000    0.336000   -0.179000
  H      3.720000    3.632000   -1.967000

----------------------------
CARTESIAN COORDINATES (A.U.)
----------------------------
  NO LB      ZA    FRAG     MASS         X           Y           Z
   0 C     6.0000    0    12.011   -6.026337   12.098027   -1.016673
   1 C     6.0000    0    12.011    2.785456    7.636383    0.107714
   2 C     6.0000    0    12.011   -5.295013    7.734649    0.092597
   3 C     6.0000    0    12.011   -7.625045    7.766774    1.358713
   4 C     6.0000    0    12.011   -9.068796    9.939959    1.390838
   5 C     6.0000    0    12.011   -9.885157   14.343021    0.230547
   6 C     6.0000    0    12.011    0.249444    8.139050    0.115273
   7 C     6.0000    0    12.011   -1.075254    5.775003    0.088817
   8 C     6.0000    0    12.011    3.116158    4.947303    0.043464
   9 C     6.0000    0    12.011   -4.520225    9.966416   -1.111159
  10 N     7.0000    0    14.007   -8.261883   12.065901    0.221098
  11 N     7.0000    0    14.007    0.733214    3.906064    0.047243
  12 N     7.0000    0    14.007   -3.798350    0.746442   -0.141729
  13 N     7.0000    0    14.007   -0.733214   -3.919292   -0.051023
  14 N     7.0000    0    14.007    3.798350   -0.757780    0.122832
  15 C     6.0000    0    12.011   -3.703863    5.406506    0.045353
  16 C     6.0000    0    12.011   -4.956752    3.051908   -0.034015
  17 C     6.0000    0    12.011  -10.531444   -8.180624    2.014448
  18 C     6.0000    0    12.011   -7.696855    2.779787    0.105825
  19 C     6.0000    0    12.011   -7.759216   -5.208085   -0.049133
  20 C     6.0000    0    12.011   -9.439182   -5.209975   -2.099486
  21 C     6.0000    0    12.011  -11.587801   -6.693410   -2.033345
  22 C     6.0000    0    12.011  -14.458295   -9.662170    0.075589
  23 C     6.0000    0    12.011   -8.171176    0.266451    0.069920
  24 C     6.0000    0    12.011   -5.716422   -0.982658   -0.090707
  25 C     6.0000    0    12.011   -8.356369   -6.738763    2.031456
  26 N     7.0000    0    14.007  -12.107475   -8.150389    0.001890
  27 C     6.0000    0    12.011   -5.417845   -3.632054   -0.075589
  28 C     6.0000    0    12.011   -3.118048   -4.958641   -0.051023
  29 C     6.0000    0    12.011    6.742543  -11.606698   -1.965315
  30 C     6.0000    0    12.011   -2.789236   -7.651501   -0.064251
  31 C     6.0000    0    12.011    5.296902   -7.745987   -0.015118
  32 C     6.0000    0    12.011    6.910728   -8.284559    2.020117
  33 C     6.0000    0    12.011    8.365818  -10.450186    2.001220
  34 C     6.0000    0    12.011    9.911614  -14.339242    0.026456
  35 C     6.0000    0    12.011   -0.253223   -8.154168   -0.041574
  36 C     6.0000    0    12.011    1.073364   -5.790121   -0.051023
  37 C     6.0000    0    12.011    5.243990   -9.471307   -2.029566
  38 N     7.0000    0    14.007    8.269442  -12.077240    0.032125
  39 C     6.0000    0    12.011    3.701973   -5.421624   -0.017008
  40 C     6.0000    0    12.011    4.952972   -3.065136    0.017008
  41 C     6.0000    0    12.011   10.474752    8.199522   -2.135391
  42 C     6.0000    0    12.011    7.691185   -2.794905   -0.177634
  43 C     6.0000    0    12.011    7.755436    5.198637   -0.039684
  44 C     6.0000    0    12.011    9.499653    5.157063    1.957756
  45 C     6.0000    0    12.011   11.652051    6.631049    1.848152
  46 C     6.0000    0    12.011   14.397823    9.737759   -0.217319
  47 C     6.0000    0    12.011    8.165507   -0.279679   -0.173855
  48 C     6.0000    0    12.011    5.716422    0.971319    0.028346
  49 C     6.0000    0    12.011    8.290229    6.768999   -2.107045
  50 C     6.0000    0    12.011    5.415955    3.620715    0.024566
  51 N     7.0000    0    14.007   12.118814    8.118263   -0.179524
  52 H     1.0000    0     1.008   -5.493434   13.866810   -1.897285
  53 H     1.0000    0     1.008    4.297237    9.006435    0.153068
  54 H     1.0000    0     1.008   -8.333692    6.098146    2.309245
  55 H     1.0000    0     1.008  -10.882933   10.051453    2.328143
  56 H     1.0000    0     1.008  -11.221194   14.222079   -1.339816
  57 H     1.0000    0     1.008  -10.899940   14.426169    2.020117
  58 H     1.0000    0     1.008   -8.692740   16.007870    0.017008
  59 H     1.0000    0     1.008   -0.627389    9.981533    0.130391
  60 H     1.0000    0     1.008   -2.726875   10.070351   -2.097596
  61 H     1.0000    0     1.008    0.343930    2.025786    0.009449
  62 H     1.0000    0     1.008   -0.345820   -2.040904   -0.039684
  63 H     1.0000    0     1.008  -11.081354   -9.376821    3.581031
  64 H     1.0000    0     1.008   -9.059347    4.293458    0.262672
  65 H     1.0000    0     1.008   -9.070685   -4.081808   -3.768114
  66 H     1.0000    0     1.008  -12.927616   -6.768999   -3.577252
  67 H     1.0000    0     1.008  -15.926612   -8.571798    1.031790
  68 H     1.0000    0     1.008  -15.034661  -10.085468   -1.853821
  69 H     1.0000    0     1.008  -14.089798  -11.408277    1.103600
  70 H     1.0000    0     1.008   -9.990982   -0.650066    0.188973
  71 H     1.0000    0     1.008   -7.143165   -6.804904    3.679297
  72 H     1.0000    0     1.008    6.778448  -12.978639   -3.482765
  73 H     1.0000    0     1.008   -4.301017   -9.021553   -0.094486
  74 H     1.0000    0     1.008    7.018443   -7.037340    3.639613
  75 H     1.0000    0     1.008    9.622485  -10.950963    3.535678
  76 H     1.0000    0     1.008   11.725751  -13.849803   -0.829590
  77 H     1.0000    0     1.008   10.191293  -14.960962    1.969095
  78 H     1.0000    0     1.008    8.993207  -15.822677   -1.065806
  79 H     1.0000    0     1.008    0.621720   -9.996651   -0.015118
  80 H     1.0000    0     1.008    4.055352   -9.150054   -3.666069
  81 H     1.0000    0     1.008   10.975529    9.422175   -3.696304
  82 H     1.0000    0     1.008    9.048009   -4.310465   -0.349599
  83 H     1.0000    0     1.008    9.184069    3.994881    3.613156
  84 H     1.0000    0     1.008   13.041000    6.672623    3.348595
  85 H     1.0000    0     1.008   13.951848   11.544337    0.672743
  86 H     1.0000    0     1.008   15.900156    8.791006    0.822031
  87 H     1.0000    0     1.008   14.968521   10.034446   -2.173185
  88 H     1.0000    0     1.008    9.983423    0.634948   -0.338261
  89 H     1.0000    0     1.008    7.029781    6.863485   -3.717091

--------------------------------
INTERNAL COORDINATES (ANGSTROEM)
--------------------------------
 C      0   0   0     0.000000000000     0.00000000     0.00000000
 C      1   0   0     5.260410155111     0.00000000     0.00000000
 C      1   2   0     2.413673341610    53.20199931     0.00000000
 C      3   1   2     1.403380917641    87.91674585   152.29428860
 C      4   3   1     1.380755228127   120.13971646     0.15234716
 C      5   4   3     2.447962418012   152.53602224     1.56097710
 C      2   1   3     1.368114030335    16.97223669   350.21480727
 C      7   2   1     1.434084376876   108.05010202   155.96240751
 C      2   1   3     1.434123425651   123.42391692    18.69284035
 C      1   2   3     1.382061141918    29.14270655   331.06366389
 N      1   2   3     1.352332429545   135.64415973    41.72043050
 N      9   2   1     1.376127174356   106.58526707   350.81128741
 N     12   9   2     2.925062050624   168.53581413   171.12065651
 N     13  12   9     2.954513327098    91.55032014    11.12112580
 N     14  13  12     2.925371258490    88.43092389   359.84326247
 C      8   7   2     1.404790019896   127.24786865   181.11170171
 C     13  12   9     1.366535034311    81.72106996   188.00453233
 C     14  13  12     5.758810554272    80.56209567   166.76250791
 C     17  13  12     1.459010623676   111.08861209   183.82872609
 C     18  14  13     2.412235892279    27.27532823    36.33507194
 C     20  18  14     1.402692767501    87.95206320   148.94598259
 C     21  20  18     1.382106725257   120.14573887   359.70382047
 C     18  14  13     2.446510985056   144.15733107    82.80075377
 C     19  17  13     1.353610726908   106.29293361   359.75308708
 C     13  12   9     1.366813447402   172.21332906    33.46711076
 C     18  14  13     1.380960173213    15.08449437   309.23336894
 N     22  21  20     1.352773077792   120.73759875     0.27865223
 C     25  13  17     1.410897586645   125.60330303   182.37774668
 C     14  13  12     1.376642291955    80.24689249   177.85461986
 C     14  13  12     5.764089607215   164.51507311   312.20821879
 C     29  14  13     1.435600919476   106.58649366   178.76395472
 C     30  14  13     2.413316804732    27.10625047    82.12560436
 C     32  30  14     1.403734305344    87.90059683   149.76154742
 C     33  32  30     1.380694028378   120.14881443   359.74174632
 C     34  33  32     2.448777858443   152.49203239     2.45173620
 C     31  29  14     1.368160809262   108.16950133     0.70383075
 C     14  13  12     1.376239804685   169.26375223   353.09862627
 C     30  14  13     1.380907310430    14.68948582   353.70041132
 N     34  33  32     1.352658863128   120.85575621     0.19603406
 C     37  14  29     1.404717053360   126.01551127   180.90772073
 C     15  14  13     1.366491126938    81.61824056   183.09049352
 C      2   1   3     4.249062720177   141.79410576   155.92493512
 C     41  15  14     1.459677704153   111.05201287   175.08990246
 C     42   2   1     2.412953791518    41.78584867   190.93565160
 C     44  42   2     1.403446472082    87.95153797   233.97558675
 C     45  44  42     1.381696421071   120.11137308     0.19721020
 C     42   2   1     2.450019795838   135.97209175   101.25050070
 C     43  41  15     1.354461516618   106.26758155     0.30894352
 C     15  14  13     1.367461151185   171.87382904   332.35056460
 C     42   2   1     1.381886391857    32.59078432   239.79093079
 C      9   2   1     1.404988612053   126.98745415   171.81562494
 N     42   2   1     1.352765315936   113.57249190   128.98708989
 H      1   2   3     1.082947828845   101.87437024   192.00811136
 H      2   1   3     1.079907866440   110.96924877   191.61202070
 H      4   3   1     1.083200350812   121.06345589   179.57694794
 H      5   4   3     1.082172352262   122.81338511   179.48958283
 H      6   5   4     1.092934581757   104.42603511   100.15465707
 H      6   5   4     1.089547612544    84.68736195   209.61940247
 H      6   5   4     1.089537057653   133.90346581   322.48139371
 H      7   2   1     1.079807853278   126.66122480   336.20082130
 H     10   1   2     1.084486053391   118.72796197   310.73608533
 H     12   9   2     1.016297692608   125.29023241   180.00180175
 H     14  13  12     1.014936943854    44.97226959   359.42596618
 H     18  14  13     1.082871645210   128.03556573   234.20482432
 H     19  17  13     1.080893611786   126.41830519   178.11313280
 H     21  20  18     1.083569563987   121.05669627   180.67006309
 H     22  21  20     1.082483256222   122.73097286   180.59748951
 H     23  18  14     1.092105306278   103.92715769   234.93429879
 H     23  18  14     1.088871893291   134.19244188    12.25587044
 H     23  18  14     1.089833473518    84.85857450   125.45241208
 H     24  19  17     1.080075460327   127.28078426   178.44613241
 H     26  18  14     1.083408048706   118.76995697   244.94906660
 H     30  14  13     1.082703098730   127.99711412   279.66882698
 H     31  29  14     1.079759695488   125.22293469   180.92530585
 H     33  32  30     1.083188810873   121.01964473   180.74284758
 H     34  33  32     1.082494341787   122.70821597   180.59516895
 H     35  34  33     1.092652735319   105.73575241    97.19771933
 H     35  34  33     1.089462711615    84.05943581   206.43036958
 H     35  34  33     1.089268102902   133.08365142   318.50306270
 H     36  31  29     1.079439669458   126.61599965   178.98859863
 H     38  30  73     1.083742127999   118.77264435   359.90091293
 H     42   2   1     1.082178358682   119.31790784   345.61862035
 H     43  41  15     1.080281907652   126.36969097   182.06329380
 H     45  44  42     1.083277434455   121.10105945   179.58025624
 H     46  45  44     1.082194529648   122.72144639   179.46906377
 H     47  42   2     1.091546151109   106.65128841   315.16475048
 H     47  42   2     1.088818625851   132.46019523    94.52397119
 H     47  42   2     1.089531091801    83.63838232   206.04504406
 H     48  43  41     1.080402239909   127.23657387   181.62955349
 H     50  42   2     1.083186502870   118.77001737    94.71359229

---------------------------
INTERNAL COORDINATES (A.U.)
---------------------------
 C      0   0   0     0.000000000000     0.00000000     0.00000000
 C      1   0   0     9.940734545259     0.00000000     0.00000000
 C      1   2   0     4.561181592390    53.20199931     0.00000000
 C      3   1   2     2.652005595913    87.91674585   152.29428860
 C      4   3   1     2.609249239140   120.13971646     0.15234716
 C      5   4   3     4.625978556175   152.53602224     1.56097710
 C      2   1   3     2.585360837309    16.97223669   350.21480727
 C      7   2   1     2.710026725231   108.05010202   155.96240751
 C      2   1   3     2.710100516721   123.42391692    18.69284035
 C      1   2   3     2.611717058560    29.14270655   331.06366389
 N      1   2   3     2.555537933861   135.64415973    41.72043050
 N      9   2   1     2.600503484979   106.58526707   350.81128741
 N     12   9   2     5.527566200405   168.53581413   171.12065651
 N     13  12   9     5.583221047236    91.55032014    11.12112580
 N     14  13  12     5.528150518591    88.43092389   359.84326247
 C      8   7   2     2.654668413270   127.24786865   181.11170171
 C     13  12   9     2.582376967257    81.72106996   188.00453233
 C     14  13  12    10.882574804710    80.56209567   166.76250791
 C     17  13  12     2.757130505230   111.08861209   183.82872609
 C     18  14  13     4.558465206823    27.27532823    36.33507194
 C     20  18  14     2.650705180609    87.95206320   148.94598259
 C     21  20  18     2.611803198586   120.14573887   359.70382047
 C     18  14  13     4.623235745386   144.15733107    82.80075377
 C     19  17  13     2.557953565794   106.29293361   359.75308708
 C     13  12   9     2.582903091751   172.21332906    33.46711076
 C     18  14  13     2.609636529225    15.08449437   309.23336894
 N     22  21  20     2.556370638369   120.73759875     0.27865223
 C     25  13  17     2.666210041769   125.60330303   182.37774668
 C     14  13  12     2.601476916169    80.24689249   177.85461986
 C     14  13  12    10.892550769017   164.51507311   312.20821879
 C     29  14  13     2.712892575415   106.58649366   178.76395472
 C     30  14  13     4.560507835333    27.10625047    82.12560436
 C     32  30  14     2.652673401891    87.90059683   149.76154742
 C     33  32  30     2.609133588376   120.14881443   359.74174632
 C     34  33  32     4.627519515267   152.49203239     2.45173620
 C     31  29  14     2.585449236669   108.16950133     0.70383075
 C     14  13  12     2.600716325456   169.26375223   353.09862627
 C     30  14  13     2.609536633043    14.68948582   353.70041132
 N     34  33  32     2.556154803934   120.85575621     0.19603406
 C     37  14  29     2.654530526499   126.01551127   180.90772073
 C     15  14  13     2.582293994346    81.61824056   183.09049352
 C      2   1   3     8.029564866989   141.79410576   155.92493512
 C     41  15  14     2.758391104639   111.05201287   175.08990246
 C     42   2   1     4.559821839776    41.78584867   190.93565160
 C     44  42   2     2.652129475853    87.95153797   233.97558675
 C     45  44  42     2.611027836043   120.11137308     0.19721020
 C     42   2   1     4.629866436820   135.97209175   101.25050070
 C     43  41  15     2.559561325344   106.26758155     0.30894352
 C     15  14  13     2.584127074516   171.87382904   332.35056460
 C     42   2   1     2.611386828803    32.59078432   239.79093079
 C      9   2   1     2.655043698059   126.98745415   171.81562494
 N     42   2   1     2.556355970587   113.57249190   128.98708989
 H      1   2   3     2.046474813842   101.87437024   192.00811136
 H      2   1   3     2.040730117440   110.96924877   191.61202070
 H      4   3   1     2.046952011203   121.06345589   179.57694794
 H      5   4   3     2.045009375476   122.81338511   179.48958283
 H      6   5   4     2.065347041812   104.42603511   100.15465707
 H      6   5   4     2.058946597576    84.68736195   209.61940247
 H      6   5   4     2.058926651723   133.90346581   322.48139371
 H      7   2   1     2.040541119952   126.66122480   336.20082130
 H     10   1   2     2.049381636966   118.72796197   310.73608533
 H     12   9   2     1.920524309565   125.29023241   180.00180175
 H     14  13  12     1.917952867083    44.97226959   359.42596618
 H     18  14  13     2.046330847636   128.03556573   234.20482432
 H     19  17  13     2.042592906181   126.41830519   178.11313280
 H     21  20  18     2.047649722989   121.05669627   180.67006309
 H     22  21  20     2.045596898814   122.73097286   180.59748951
 H     23  18  14     2.063779938267   103.92715769   234.93429879
 H     23  18  14     2.057669673245   134.19244188    12.25587044
 H     23  18  14     2.059486796529    84.85857450   125.45241208
 H     24  19  17     2.041046823986   127.28078426   178.44613241
 H     26  18  14     2.047344503340   118.76995697   244.94906660
 H     30  14  13     2.046012340948   127.99711412   279.66882698
 H     31  29  14     2.040450114918   125.22293469   180.92530585
 H     33  32  30     2.046930203877   121.01964473   180.74284758
 H     34  33  32     2.045617847496   122.70821597   180.59516895
 H     35  34  33     2.064814429233   105.73575241    97.19771933
 H     35  34  33     2.058786158072    84.05943581   206.43036958
 H     35  34  33     2.058418400901   133.08365142   318.50306270
 H     36  31  29     2.039845353366   126.61599965   178.98859863
 H     38  30  73     2.047975821711   118.77264435   359.90091293
 H     42   2   1     2.045020725966   119.31790784   345.61862035
 H     43  41  15     2.041436952892   126.36969097   182.06329380
 H     45  44  42     2.047097678177   121.10105945   179.58025624
 H     46  45  44     2.045051284662   122.72144639   179.46906377
 H     47  42   2     2.062723288131   106.65128841   315.16475048
 H     47  42   2     2.057569012371   132.46019523    94.52397119
 H     47  42   2     2.058915377895    83.63838232   206.04504406
 H     48  43  41     2.041664347903   127.23657387   181.62955349
 H     50  42   2     2.046925842384   118.77001737    94.71359229

---------------------
BASIS SET INFORMATION
---------------------
There are 3 groups of distinct atoms

 Group   1 Type C   : 17s4p1d contracted to 3s2p1d pattern {881/31/1}
 Group   2 Type N   : 17s4p1d contracted to 3s2p1d pattern {881/31/1}
 Group   3 Type H   : 4s1p contracted to 2s1p pattern {31/1}

Atom   0C    basis set group =>   1
Atom   1N    basis set group =>   2
Atom   2C    basis set group =>   1
Atom   3N    basis set group =>   2
Atom   4C    basis set group =>   1
Atom   5N    basis set group =>   2
Atom   6C    basis set group =>   1
Atom   7N    basis set group =>   2
Atom   8C    basis set group =>   1
Atom   9N    basis set group =>   2
Atom  10C    basis set group =>   1
Atom  11N    basis set group =>   2
Atom  12C    basis set group =>   1
Atom  13N    basis set group =>   2
Atom  14C    basis set group =>   1
Atom  15N    basis set group =>   2
Atom  16C    basis set group =>   1
Atom  17C    basis set group =>   1
Atom  18C    basis set group =>   1
Atom  19C    basis set group =>   1
Atom  20C    basis set group =>   1
Atom  21C    basis set group =>   1
Atom  22C    basis set group =>   1
Atom  23C    basis set group =>   1
Atom  24C    basis set group =>   1
Atom  25C    basis set group =>   1
Atom  26C    basis set group =>   1
Atom  27C    basis set group =>   1
Atom  28C    basis set group =>   1
Atom  29C    basis set group =>   1
Atom  30C    basis set group =>   1
Atom  31C    basis set group =>   1
Atom  32C    basis set group =>   1
Atom  33C    basis set group =>   1
Atom  34C    basis set group =>   1
Atom  35C    basis set group =>   1
Atom  36C    basis set group =>   1
Atom  37C    basis set group =>   1
Atom  38C    basis set group =>   1
Atom  39C    basis set group =>   1
Atom  40C    basis set group =>   1
Atom  41C    basis set group =>   1
Atom  42C    basis set group =>   1
Atom  43C    basis set group =>   1
Atom  44C    basis set group =>   1
Atom  45C    basis set group =>   1
Atom  46C    basis set group =>   1
Atom  47C    basis set group =>   1
Atom  48C    basis set group =>   1
Atom  49C    basis set group =>   1
Atom  50C    basis set group =>   1
Atom  51C    basis set group =>   1
Atom  52H    basis set group =>   3
Atom  53H    basis set group =>   3
Atom  54H    basis set group =>   3
Atom  55H    basis set group =>   3
Atom  56H    basis set group =>   3
Atom  57H    basis set group =>   3
Atom  58H    basis set group =>   3
Atom  59H    basis set group =>   3
Atom  60H    basis set group =>   3
Atom  61H    basis set group =>   3
Atom  62H    basis set group =>   3
Atom  63H    basis set group =>   3
Atom  64H    basis set group =>   3
Atom  65H    basis set group =>   3
Atom  66H    basis set group =>   3
Atom  67H    basis set group =>   3
Atom  68H    basis set group =>   3
Atom  69H    basis set group =>   3
Atom  70H    basis set group =>   3
Atom  71H    basis set group =>   3
Atom  72H    basis set group =>   3
Atom  73H    basis set group =>   3
Atom  74H    basis set group =>   3
Atom  75H    basis set group =>   3
Atom  76H    basis set group =>   3
Atom  77H    basis set group =>   3
Atom  78H    basis set group =>   3
Atom  79H    basis set group =>   3
Atom  80H    basis set group =>   3
Atom  81H    basis set group =>   3
Atom  82H    basis set group =>   3
Atom  83H    basis set group =>   3
Atom  84H    basis set group =>   3
Atom  85H    basis set group =>   3
Atom  86H    basis set group =>   3
Atom  87H    basis set group =>   3
Atom  88H    basis set group =>   3
Atom  89H    basis set group =>   3


           ************************************************************
           *        Program running with 16 parallel MPI-processes    *
           *              working on a common directory               *
           ************************************************************
------------------------------------------------------------------------------
                           ORCA GTO INTEGRAL CALCULATION
------------------------------------------------------------------------------
------------------------------------------------------------------------------
                   ___                                                        
                  /   \      - P O W E R E D   B Y -                         
                 /     \                                                     
                 |  |  |   _    _      __       _____    __    __             
                 |  |  |  | |  | |    /  \     |  _  \  |  |  /  |          
                  \  \/   | |  | |   /    \    | | | |  |  | /  /          
                 / \  \   | |__| |  /  /\  \   | |_| |  |  |/  /          
                |  |  |   |  __  | /  /__\  \  |    /   |      \           
                |  |  |   | |  | | |   __   |  |    \   |  |\   \          
                \     /   | |  | | |  |  |  |  | |\  \  |  | \   \       
                 \___/    |_|  |_| |__|  |__|  |_| \__\ |__|  \__/        
                                                                              
                      - O R C A' S   B I G   F R I E N D -                    
                                      &                                       
                       - I N T E G R A L  F E E D E R -                       
                                                                              
 v1 FN, 2020, v2 2021                                                         
------------------------------------------------------------------------------


Reading SHARK input file /scratch/allen/tmpyp4_amber_gaff2/conf1/conf1/Conf35.orca.SHARKINP.tmp ... ok
----------------------
SHARK INTEGRAL PACKAGE
----------------------

Number of atoms                             ...     90
Number of basis functions                   ...   1230
Number of shells                            ...    738
Maximum angular momentum                    ...      2
Integral batch strategy                     ... SHARK/LIBINT Hybrid
RI-J (if used) integral strategy            ... SPLIT-RIJ (Revised 2003 algorithm where possible)
Printlevel                                  ...      1
Contraction scheme used                     ... PARTIAL GENERAL contraction
Coulomb Range Separation                    ... NOT USED
Exchange Range Separation                   ... NOT USED
Finite Nucleus Model                        ... NOT USED
Auxiliary Coulomb fitting basis             ... NOT available
Auxiliary J/K fitting basis                 ... NOT available
Auxiliary Correlation fitting basis         ... NOT available
Auxiliary 'external' fitting basis          ... NOT available
Integral threshold                          ...     2.500000e-11
Primitive cut-off                           ...     2.500000e-12
Primitive pair pre-selection threshold      ...     2.500000e-12

Calculating pre-screening integrals         ... done (  0.1 sec) Dimension = 738
Calculating pre-screening integrals (ORCA)  ... done (  0.3 sec) Dimension = 426
Organizing shell pair data                  ... done (  0.8 sec)
Shell pair information
Total number of shell pairs                 ...    272691
Shell pairs after pre-screening             ...     71661
Total number of primitive shell pairs       ...    422091
Primitive shell pairs kept                  ...     92491
          la=0 lb=0:  29422 shell pairs
          la=1 lb=0:  26000 shell pairs
          la=1 lb=1:   4706 shell pairs
          la=2 lb=0:   7882 shell pairs
          la=2 lb=1:   3122 shell pairs
          la=2 lb=2:    529 shell pairs

Calculating one electron integrals          ... done (  0.3 sec)
Calculating Nuclear repulsion               ... done (  0.0 sec) ENN=   6230.778802044078 Eh

SHARK setup successfully completed in   2.3 seconds

Maximum memory used throughout the entire GTOINT-calculation: 99.0 MB


           ************************************************************
           *        Program running with 16 parallel MPI-processes    *
           *              working on a common directory               *
           ************************************************************
-------------------------------------------------------------------------------
                                 ORCA SCF
-------------------------------------------------------------------------------

------------
SCF SETTINGS
------------
Hamiltonian:
 Ab initio Hamiltonian  Method          .... Hartree-Fock(GTOs)


General Settings:
 Integral files         IntName         .... /scratch/allen/tmpyp4_amber_gaff2/conf1/conf1/Conf35.orca
 Hartree-Fock type      HFTyp           .... RHF
 Total Charge           Charge          ....    0
 Multiplicity           Mult            ....    1
 Number of Electrons    NEL             ....  358
 Basis Dimension        Dim             ....  918
 Nuclear Repulsion      ENuc            ....   6230.7788020441 Eh

Convergence Acceleration:
 DIIS                   CNVDIIS         .... on
   Start iteration      DIISMaxIt       ....    12
   Startup error        DIISStart       ....  0.200000
   # of expansion vecs  DIISMaxEq       ....     5
   Bias factor          DIISBfac        ....   1.050
   Max. coefficient     DIISMaxC        ....  10.000
 Trust-Rad. Augm. Hess. CNVTRAH         .... auto
   Auto Start mean grad. ratio tolernc. ....  1.125000
   Auto Start start iteration           ....    20
   Auto Start num. interpolation iter.  ....    10
   Max. Number of Micro iterations      ....    16
   Max. Number of Macro iterations      .... Maxiter - #DIIS iter
   Number of Davidson start vectors     ....     2
   Converg. threshold I  (grad. norm)   ....   1.000e-05
   Converg. threshold II (energy diff.) ....   1.000e-08
   Grad. Scal. Fac. for Micro threshold ....   0.100
   Minimum threshold for Micro iter.    ....   0.010
   NR start threshold (gradient norm)   ....   0.001
   Initial trust radius                 ....   0.400
   Minimum AH scaling param. (alpha)    ....   1.000
   Maximum AH scaling param. (alpha)    .... 1000.000
   Orbital update algorithm             .... Taylor
   White noise on init. David. guess    .... on
   Maximum white noise                  ....   0.010
   Quad. conv. algorithm                .... NR
 SOSCF                  CNVSOSCF        .... on
   Start iteration      SOSCFMaxIt      ....   150
   Startup grad/error   SOSCFStart      ....  0.003300
 Level Shifting         CNVShift        .... on
   Level shift para.    LevelShift      ....    0.2500
   Turn off err/grad.   ShiftErr        ....    0.0010
 Zerner damping         CNVZerner       .... off
 Static damping         CNVDamp         .... on
   Fraction old density DampFac         ....    0.7000
   Max. Damping (<1)    DampMax         ....    0.9800
   Min. Damping (>=0)   DampMin         ....    0.0000
   Turn off err/grad.   DampErr         ....    0.1000
 Fernandez-Rico         CNVRico         .... off

SCF Procedure:
 Maximum # iterations   MaxIter         ....   125
 SCF integral mode      SCFMode         .... Direct
   Integral package                     .... SHARK and LIBINT hybrid scheme
 Reset frequency        DirectResetFreq ....    20
 Integral Threshold     Thresh          ....  2.500e-11 Eh
 Primitive CutOff       TCut            ....  2.500e-12 Eh

Convergence Tolerance:
 Convergence Check Mode ConvCheckMode   .... Total+1el-Energy
 Convergence forced     ConvForced      .... 1
 Energy Change          TolE            ....  1.000e-08 Eh
 1-El. energy change                    ....  1.000e-05 Eh
 Orbital Gradient       TolG            ....  1.000e-05
 Orbital Rotation angle TolX            ....  1.000e-05
 DIIS Error             TolErr          ....  5.000e-07


Diagonalization of the overlap matrix:
Smallest eigenvalue                        ... 2.197e-04
Time for diagonalization                   ...    0.399 sec
Threshold for overlap eigenvalues          ... 1.000e-08
Number of eigenvalues below threshold      ... 0
Time for construction of square roots      ...    0.245 sec
Total time needed                          ...    0.649 sec

Time for model grid setup =    1.079 sec

------------------------------
INITIAL GUESS: MODEL POTENTIAL
------------------------------
Loading Hartree-Fock densities                     ... done
Calculating cut-offs                               ... done
Initializing the effective Hamiltonian             ... done
Setting up the integral package (SHARK)            ... done
Starting the Coulomb interaction                   ... done (   1.2 sec)
Reading the grid                                   ... done
Mapping shells                                     ... done
Starting the XC term evaluation                    ... done (   0.2 sec)
Transforming the Hamiltonian                       ... done (   0.2 sec)
Diagonalizing the Hamiltonian                      ... done (   0.3 sec)
Back transforming the eigenvectors                 ... done (   0.1 sec)
Now organizing SCF variables                       ... done
                      ------------------
                      INITIAL GUESS DONE (   3.1 sec)
                      ------------------
--------------
SCF ITERATIONS
--------------
ITER       Energy         Delta-E        Max-DP      RMS-DP      [F,P]     Damp
               ***  Starting incremental Fock matrix formation  ***
  0  -2121.6833906826   0.000000000000 0.07070472  0.00121825  0.2321757 0.7000
  1  -2122.3383340744  -0.654943391775 0.05346364  0.00099093  0.1438215 0.7000
                               ***Turning on DIIS***
  2  -2122.7455302575  -0.407196183112 0.12528111  0.00224767  0.0802385 0.0000
  3  -2117.9128934495   4.832636808007 0.03754768  0.00067717  0.0439010 0.0000
  4  -2123.4197900497  -5.506896600202 0.01159945  0.00022635  0.0079978 0.0000
  5  -2123.5790508763  -0.159260826587 0.00567423  0.00013299  0.0049546 0.0000
  6  -2123.5628902891   0.016160587167 0.00368813  0.00008545  0.0019934 0.0000
  7  -2123.6609735691  -0.098083280020 0.00301315  0.00006724  0.0015651 0.0000
  8  -2123.6725371894  -0.011563620226 0.00317458  0.00006343  0.0014595 0.0000
  9  -2123.6417655664   0.030771622976 0.00253544  0.00004416  0.0011666 0.0000
 10  -2123.6515553958  -0.009789829357 0.00509396  0.00009109  0.0009018 0.0000
                      *** Initiating the SOSCF procedure ***
                           *** Shutting down DIIS ***
                      *** Re-Reading the Fockian *** 
                      *** Removing any level shift *** 
ITER      Energy       Delta-E        Grad      Rot      Max-DP    RMS-DP
 11  -2123.54151803   0.1100373690  0.000198  0.000198  0.000241  0.000005
               *** Restarting incremental Fock matrix formation ***
 12  -2123.60788168  -0.0663636563  0.000876  0.005884  0.001311  0.000033
 13  -2123.60798019  -0.0000985076  0.001071  0.028990  0.006166  0.000130
 14  -2123.60814964  -0.0001694504  0.000344  0.002046  0.000640  0.000012
 15  -2123.60816555  -0.0000159064  0.000179  0.003080  0.000818  0.000019
 16  -2123.60817559  -0.0000100461  0.000162  0.003090  0.000485  0.000011
 17  -2123.60817904  -0.0000034504  0.000149  0.002065  0.000348  0.000008
 18  -2123.60818096  -0.0000019177  0.000076  0.000956  0.000309  0.000005
 19  -2123.60818187  -0.0000009067  0.000046  0.000841  0.000180  0.000004
 20  -2123.60818220  -0.0000003281  0.000027  0.000564  0.000103  0.000002
 21  -2123.60818239  -0.0000001886  0.000026  0.000682  0.000132  0.000003
 22  -2123.60818253  -0.0000001421  0.000021  0.000618  0.000110  0.000002
 23  -2123.60818261  -0.0000000828  0.000012  0.000415  0.000074  0.000001
 24  -2123.60818265  -0.0000000443  0.000008  0.000304  0.000048  0.000001
 25  -2123.60818268  -0.0000000279  0.000008  0.000197  0.000034  0.000001
 26  -2123.60818270  -0.0000000150  0.000006  0.000182  0.000030  0.000001
 27  -2123.60818270  -0.0000000073  0.000004  0.000137  0.000025  0.000001
                  ***Gradient check signals convergence***
              ***Rediagonalizing the Fockian in SOSCF/NRSCF***

               *****************************************************
               *                     SUCCESS                       *
               *           SCF CONVERGED AFTER  28 CYCLES          *
               *****************************************************


----------------
TOTAL SCF ENERGY
----------------

Total Energy       :        -2123.60818271 Eh          -57786.31645 eV

Components:
Nuclear Repulsion  :         6230.77880204 Eh          169548.11086 eV
Electronic Energy  :        -8354.38698475 Eh         -227334.42731 eV
One Electron Energy:       -15302.35152928 Eh         -416398.15438 eV
Two Electron Energy:         6947.96454453 Eh          189063.72707 eV

Virial components:
Potential Energy   :        -4245.77388562 Eh         -115533.38103 eV
Kinetic Energy     :         2122.16570292 Eh           57747.06458 eV
Virial Ratio       :            2.00067972


---------------
SCF CONVERGENCE
---------------

  Last Energy change         ...   -2.0646e-09  Tolerance :   1.0000e-08
  Last MAX-Density change    ...    1.3624e-05  Tolerance :   1.0000e-07
  Last RMS-Density change    ...    2.9831e-07  Tolerance :   5.0000e-09
  Last Orbital Gradient      ...    2.4306e-06  Tolerance :   1.0000e-05
  Last Orbital Rotation      ...    8.0096e-05  Tolerance :   1.0000e-05

             **** THE GBW FILE WAS UPDATED (/scratch/allen/tmpyp4_amber_gaff2/conf1/conf1/Conf35.orca.gbw) ****
             **** DENSITY /scratch/allen/tmpyp4_amber_gaff2/conf1/conf1/Conf35.orca.scfp WAS UPDATED ****
             **** ENERGY FILE WAS UPDATED (/scratch/allen/tmpyp4_amber_gaff2/conf1/conf1/Conf35.orca.en.tmp) ****
             **** THE GBW FILE WAS UPDATED (/scratch/allen/tmpyp4_amber_gaff2/conf1/conf1/Conf35.orca.gbw) ****
             **** DENSITY /scratch/allen/tmpyp4_amber_gaff2/conf1/conf1/Conf35.orca.scfp WAS UPDATED ****
----------------
ORBITAL ENERGIES
----------------

  NO   OCC          E(Eh)            E(eV) 
   0   2.0000     -15.670339      -426.4116 
   1   2.0000     -15.634899      -425.4472 
   2   2.0000     -15.630841      -425.3368 
   3   2.0000     -15.593858      -424.3304 
   4   2.0000     -15.524175      -422.4343 
   5   2.0000     -15.516309      -422.2202 
   6   2.0000     -15.451854      -420.4663 
   7   2.0000     -15.441709      -420.1903 
   8   2.0000     -11.322098      -308.0899 
   9   2.0000     -11.321740      -308.0802 
  10   2.0000     -11.320232      -308.0392 
  11   2.0000     -11.299900      -307.4859 
  12   2.0000     -11.297683      -307.4256 
  13   2.0000     -11.293286      -307.3059 
  14   2.0000     -11.289778      -307.2105 
  15   2.0000     -11.287873      -307.1586 
  16   2.0000     -11.286168      -307.1122 
  17   2.0000     -11.275021      -306.8089 
  18   2.0000     -11.273181      -306.7589 
  19   2.0000     -11.258991      -306.3727 
  20   2.0000     -11.256829      -306.3139 
  21   2.0000     -11.256748      -306.3117 
  22   2.0000     -11.255798      -306.2858 
  23   2.0000     -11.238525      -305.8158 
  24   2.0000     -11.235586      -305.7358 
  25   2.0000     -11.231863      -305.6345 
  26   2.0000     -11.231056      -305.6126 
  27   2.0000     -11.228972      -305.5559 
  28   2.0000     -11.228878      -305.5533 
  29   2.0000     -11.208869      -305.0088 
  30   2.0000     -11.207708      -304.9773 
  31   2.0000     -11.202853      -304.8451 
  32   2.0000     -11.196771      -304.6796 
  33   2.0000     -11.194614      -304.6209 
  34   2.0000     -11.190629      -304.5125 
  35   2.0000     -11.189706      -304.4874 
  36   2.0000     -11.187330      -304.4227 
  37   2.0000     -11.184715      -304.3516 
  38   2.0000     -11.183674      -304.3233 
  39   2.0000     -11.172513      -304.0195 
  40   2.0000     -11.171280      -303.9860 
  41   2.0000     -11.170056      -303.9527 
  42   2.0000     -11.166465      -303.8550 
  43   2.0000     -11.162062      -303.7352 
  44   2.0000     -11.160008      -303.6793 
  45   2.0000     -11.158654      -303.6424 
  46   2.0000     -11.157778      -303.6186 
  47   2.0000     -11.153383      -303.4990 
  48   2.0000     -11.148840      -303.3754 
  49   2.0000     -11.141491      -303.1754 
  50   2.0000     -11.133440      -302.9563 
  51   2.0000     -11.124774      -302.7205 
  52   2.0000      -1.352347       -36.7992 
  53   2.0000      -1.322019       -35.9740 
  54   2.0000      -1.318725       -35.8843 
  55   2.0000      -1.287497       -35.0346 
  56   2.0000      -1.224523       -33.3210 
  57   2.0000      -1.210897       -32.9502 
  58   2.0000      -1.170560       -31.8525 
  59   2.0000      -1.152735       -31.3675 
  60   2.0000      -1.136907       -30.9368 
  61   2.0000      -1.110818       -30.2269 
  62   2.0000      -1.108230       -30.1565 
  63   2.0000      -1.082916       -29.4677 
  64   2.0000      -1.074621       -29.2419 
  65   2.0000      -1.046158       -28.4674 
  66   2.0000      -1.043435       -28.3933 
  67   2.0000      -1.036664       -28.2091 
  68   2.0000      -1.015762       -27.6403 
  69   2.0000      -1.014090       -27.5948 
  70   2.0000      -1.009829       -27.4788 
  71   2.0000      -0.992368       -27.0037 
  72   2.0000      -0.987304       -26.8659 
  73   2.0000      -0.978722       -26.6324 
  74   2.0000      -0.972617       -26.4662 
  75   2.0000      -0.960457       -26.1354 
  76   2.0000      -0.952500       -25.9188 
  77   2.0000      -0.947075       -25.7712 
  78   2.0000      -0.935367       -25.4526 
  79   2.0000      -0.920114       -25.0376 
  80   2.0000      -0.904021       -24.5997 
  81   2.0000      -0.892844       -24.2955 
  82   2.0000      -0.874291       -23.7907 
  83   2.0000      -0.871488       -23.7144 
  84   2.0000      -0.867907       -23.6170 
  85   2.0000      -0.856377       -23.3032 
  86   2.0000      -0.842345       -22.9214 
  87   2.0000      -0.836640       -22.7661 
  88   2.0000      -0.823581       -22.4108 
  89   2.0000      -0.798188       -21.7198 
  90   2.0000      -0.792813       -21.5735 
  91   2.0000      -0.748398       -20.3650 
  92   2.0000      -0.740473       -20.1493 
  93   2.0000      -0.732300       -19.9269 
  94   2.0000      -0.723414       -19.6851 
  95   2.0000      -0.721414       -19.6307 
  96   2.0000      -0.714978       -19.4555 
  97   2.0000      -0.709351       -19.3024 
  98   2.0000      -0.705320       -19.1927 
  99   2.0000      -0.696098       -18.9418 
 100   2.0000      -0.695714       -18.9313 
 101   2.0000      -0.683518       -18.5995 
 102   2.0000      -0.678822       -18.4717 
 103   2.0000      -0.678053       -18.4508 
 104   2.0000      -0.677557       -18.4373 
 105   2.0000      -0.672685       -18.3047 
 106   2.0000      -0.667878       -18.1739 
 107   2.0000      -0.661359       -17.9965 
 108   2.0000      -0.655501       -17.8371 
 109   2.0000      -0.653783       -17.7904 
 110   2.0000      -0.650452       -17.6997 
 111   2.0000      -0.643724       -17.5166 
 112   2.0000      -0.641231       -17.4488 
 113   2.0000      -0.639225       -17.3942 
 114   2.0000      -0.638197       -17.3662 
 115   2.0000      -0.627127       -17.0650 
 116   2.0000      -0.626349       -17.0438 
 117   2.0000      -0.617820       -16.8117 
 118   2.0000      -0.613121       -16.6839 
 119   2.0000      -0.611995       -16.6532 
 120   2.0000      -0.610654       -16.6167 
 121   2.0000      -0.605461       -16.4754 
 122   2.0000      -0.600655       -16.3447 
 123   2.0000      -0.586990       -15.9728 
 124   2.0000      -0.582728       -15.8568 
 125   2.0000      -0.580872       -15.8063 
 126   2.0000      -0.579574       -15.7710 
 127   2.0000      -0.577008       -15.7012 
 128   2.0000      -0.565679       -15.3929 
 129   2.0000      -0.558944       -15.2096 
 130   2.0000      -0.552210       -15.0264 
 131   2.0000      -0.547946       -14.9104 
 132   2.0000      -0.542126       -14.7520 
 133   2.0000      -0.538983       -14.6665 
 134   2.0000      -0.538062       -14.6414 
 135   2.0000      -0.535476       -14.5710 
 136   2.0000      -0.527044       -14.3416 
 137   2.0000      -0.523701       -14.2506 
 138   2.0000      -0.516615       -14.0578 
 139   2.0000      -0.514050       -13.9880 
 140   2.0000      -0.512319       -13.9409 
 141   2.0000      -0.511326       -13.9139 
 142   2.0000      -0.508884       -13.8474 
 143   2.0000      -0.503511       -13.7012 
 144   2.0000      -0.501462       -13.6455 
 145   2.0000      -0.497425       -13.5356 
 146   2.0000      -0.493704       -13.4344 
 147   2.0000      -0.484776       -13.1914 
 148   2.0000      -0.481142       -13.0925 
 149   2.0000      -0.467185       -12.7128 
 150   2.0000      -0.465396       -12.6641 
 151   2.0000      -0.457024       -12.4362 
 152   2.0000      -0.449968       -12.2442 
 153   2.0000      -0.445579       -12.1248 
 154   2.0000      -0.442307       -12.0358 
 155   2.0000      -0.436720       -11.8838 
 156   2.0000      -0.429781       -11.6949 
 157   2.0000      -0.420034       -11.4297 
 158   2.0000      -0.403253       -10.9731 
 159   2.0000      -0.388051       -10.5594 
 160   2.0000      -0.381506       -10.3813 
 161   2.0000      -0.378256       -10.2929 
 162   2.0000      -0.370114       -10.0713 
 163   2.0000      -0.357228        -9.7207 
 164   2.0000      -0.355123        -9.6634 
 165   2.0000      -0.339745        -9.2449 
 166   2.0000      -0.337336        -9.1794 
 167   2.0000      -0.327401        -8.9090 
 168   2.0000      -0.326234        -8.8773 
 169   2.0000      -0.303228        -8.2512 
 170   2.0000      -0.299806        -8.1581 
 171   2.0000      -0.286404        -7.7935 
 172   2.0000      -0.282918        -7.6986 
 173   2.0000      -0.262037        -7.1304 
 174   2.0000      -0.243636        -6.6297 
 175   2.0000      -0.189730        -5.1628 
 176   2.0000      -0.180047        -4.8993 
 177   2.0000      -0.074464        -2.0263 
 178   2.0000      -0.057938        -1.5766 
 179   0.0000       0.028713         0.7813 
 180   0.0000       0.066941         1.8216 
 181   0.0000       0.091559         2.4914 
 182   0.0000       0.108323         2.9476 
 183   0.0000       0.112441         3.0597 
 184   0.0000       0.136545         3.7156 
 185   0.0000       0.139900         3.8069 
 186   0.0000       0.145853         3.9689 
 187   0.0000       0.162954         4.4342 
 188   0.0000       0.164617         4.4795 
 189   0.0000       0.166238         4.5236 
 190   0.0000       0.167289         4.5522 
 191   0.0000       0.185176         5.0389 
 192   0.0000       0.185384         5.0446 
 193   0.0000       0.188751         5.1362 
 194   0.0000       0.204436         5.5630 
 195   0.0000       0.206166         5.6101 
 196   0.0000       0.207745         5.6530 
 197   0.0000       0.209191         5.6924 
 198   0.0000       0.221132         6.0173 
 199   0.0000       0.225233         6.1289 
 200   0.0000       0.229473         6.2443 
 201   0.0000       0.237914         6.4740 
 202   0.0000       0.239339         6.5127 
 203   0.0000       0.240332         6.5398 
 204   0.0000       0.249352         6.7852 
 205   0.0000       0.256375         6.9763 
 206   0.0000       0.256570         6.9816 
 207   0.0000       0.258351         7.0301 
 208   0.0000       0.258919         7.0456 
 209   0.0000       0.262438         7.1413 
 210   0.0000       0.263175         7.1614 
 211   0.0000       0.269584         7.3358 
 212   0.0000       0.270925         7.3722 
 213   0.0000       0.272544         7.4163 
 214   0.0000       0.273942         7.4543 
 215   0.0000       0.275897         7.5075 
 216   0.0000       0.278413         7.5760 
 217   0.0000       0.282162         7.6780 
 218   0.0000       0.285678         7.7737 
 219   0.0000       0.288289         7.8447 
 220   0.0000       0.290012         7.8916 
 221   0.0000       0.292662         7.9637 
 222   0.0000       0.295031         8.0282 
 223   0.0000       0.296559         8.0698 
 224   0.0000       0.297224         8.0879 
 225   0.0000       0.298476         8.1220 
 226   0.0000       0.306337         8.3359 
 227   0.0000       0.307963         8.3801 
 228   0.0000       0.309918         8.4333 
 229   0.0000       0.324557         8.8317 
 230   0.0000       0.325291         8.8516 
 231   0.0000       0.328797         8.9470 
 232   0.0000       0.332800         9.0560 
 233   0.0000       0.336913         9.1679 
 234   0.0000       0.350949         9.5498 
 235   0.0000       0.352980         9.6051 
 236   0.0000       0.367064         9.9883 
 237   0.0000       0.379154        10.3173 
 238   0.0000       0.394283        10.7290 
 239   0.0000       0.397025        10.8036 
 240   0.0000       0.400584        10.9004 
 241   0.0000       0.412137        11.2148 
 242   0.0000       0.416859        11.3433 
 243   0.0000       0.419965        11.4278 
 244   0.0000       0.429300        11.6818 
 245   0.0000       0.433794        11.8041 
 246   0.0000       0.435725        11.8567 
 247   0.0000       0.441015        12.0006 
 248   0.0000       0.441849        12.0233 
 249   0.0000       0.448834        12.2134 
 250   0.0000       0.452740        12.3197 
 251   0.0000       0.459155        12.4943 
 252   0.0000       0.466012        12.6808 
 253   0.0000       0.469003        12.7622 
 254   0.0000       0.471522        12.8308 
 255   0.0000       0.472835        12.8665 
 256   0.0000       0.479477        13.0472 
 257   0.0000       0.482039        13.1169 
 258   0.0000       0.486806        13.2467 
 259   0.0000       0.498221        13.5573 
 260   0.0000       0.504019        13.7150 
 261   0.0000       0.504725        13.7343 
 262   0.0000       0.506895        13.7933 
 263   0.0000       0.507636        13.8135 
 264   0.0000       0.514218        13.9926 
 265   0.0000       0.519384        14.1332 
 266   0.0000       0.524735        14.2788 
 267   0.0000       0.528012        14.3679 
 268   0.0000       0.532102        14.4792 
 269   0.0000       0.537003        14.6126 
 270   0.0000       0.540390        14.7047 
 271   0.0000       0.547637        14.9020 
 272   0.0000       0.552087        15.0231 
 273   0.0000       0.559021        15.2117 
 274   0.0000       0.560936        15.2639 
 275   0.0000       0.564788        15.3687 
 276   0.0000       0.570741        15.5307 
 277   0.0000       0.571765        15.5585 
 278   0.0000       0.577793        15.7226 
 279   0.0000       0.586497        15.9594 
 280   0.0000       0.589107        16.0304 
 281   0.0000       0.592984        16.1359 
 282   0.0000       0.593167        16.1409 
 283   0.0000       0.595604        16.2072 
 284   0.0000       0.598126        16.2758 
 285   0.0000       0.600183        16.3318 
 286   0.0000       0.607660        16.5353 
 287   0.0000       0.612736        16.6734 
 288   0.0000       0.615469        16.7478 
 289   0.0000       0.620688        16.8898 
 290   0.0000       0.627105        17.0644 
 291   0.0000       0.630114        17.1463 
 292   0.0000       0.634027        17.2527 
 293   0.0000       0.637387        17.3442 
 294   0.0000       0.645929        17.5766 
 295   0.0000       0.648256        17.6400 
 296   0.0000       0.653928        17.7943 
 297   0.0000       0.656483        17.8638 
 298   0.0000       0.664177        18.0732 
 299   0.0000       0.668231        18.1835 
 300   0.0000       0.670056        18.2331 
 301   0.0000       0.674093        18.3430 
 302   0.0000       0.677597        18.4384 
 303   0.0000       0.680155        18.5080 
 304   0.0000       0.680767        18.5246 
 305   0.0000       0.685875        18.6636 
 306   0.0000       0.688912        18.7462 
 307   0.0000       0.690866        18.7994 
 308   0.0000       0.696040        18.9402 
 309   0.0000       0.697946        18.9921 
 310   0.0000       0.702907        19.1271 
 311   0.0000       0.703652        19.1473 
 312   0.0000       0.707024        19.2391 
 313   0.0000       0.709996        19.3200 
 314   0.0000       0.711361        19.3571 
 315   0.0000       0.715195        19.4615 
 316   0.0000       0.717397        19.5214 
 317   0.0000       0.718778        19.5589 
 318   0.0000       0.719945        19.5907 
 319   0.0000       0.724197        19.7064 
 320   0.0000       0.725704        19.7474 
 321   0.0000       0.731685        19.9102 
 322   0.0000       0.732440        19.9307 
 323   0.0000       0.734672        19.9915 
 324   0.0000       0.736308        20.0360 
 325   0.0000       0.740292        20.1444 
 326   0.0000       0.743429        20.2297 
 327   0.0000       0.745212        20.2782 
 328   0.0000       0.749432        20.3931 
 329   0.0000       0.749948        20.4071 
 330   0.0000       0.754311        20.5258 
 331   0.0000       0.757070        20.6009 
 332   0.0000       0.760602        20.6970 
 333   0.0000       0.762829        20.7576 
 334   0.0000       0.767819        20.8934 
 335   0.0000       0.772879        21.0311 
 336   0.0000       0.773953        21.0603 
 337   0.0000       0.780473        21.2377 
 338   0.0000       0.783147        21.3105 
 339   0.0000       0.789137        21.4735 
 340   0.0000       0.791502        21.5379 
 341   0.0000       0.794980        21.6325 
 342   0.0000       0.796498        21.6738 
 343   0.0000       0.803625        21.8677 
 344   0.0000       0.805113        21.9082 
 345   0.0000       0.807849        21.9827 
 346   0.0000       0.808317        21.9954 
 347   0.0000       0.810837        22.0640 
 348   0.0000       0.814869        22.1737 
 349   0.0000       0.818976        22.2855 
 350   0.0000       0.819357        22.2958 
 351   0.0000       0.823030        22.3958 
 352   0.0000       0.824936        22.4477 
 353   0.0000       0.825577        22.4651 
 354   0.0000       0.827578        22.5195 
 355   0.0000       0.831658        22.6306 
 356   0.0000       0.833287        22.6749 
 357   0.0000       0.836643        22.7662 
 358   0.0000       0.837087        22.7783 
 359   0.0000       0.838494        22.8166 
 360   0.0000       0.839197        22.8357 
 361   0.0000       0.843365        22.9491 
 362   0.0000       0.844455        22.9788 
 363   0.0000       0.846892        23.0451 
 364   0.0000       0.847714        23.0675 
 365   0.0000       0.853374        23.2215 
 366   0.0000       0.856671        23.3112 
 367   0.0000       0.860193        23.4070 
 368   0.0000       0.863798        23.5051 
 369   0.0000       0.865935        23.5633 
 370   0.0000       0.868344        23.6288 
 371   0.0000       0.872407        23.7394 
 372   0.0000       0.873552        23.7705 
 373   0.0000       0.876664        23.8553 
 374   0.0000       0.880290        23.9539 
 375   0.0000       0.884065        24.0566 
 376   0.0000       0.886451        24.1216 
 377   0.0000       0.888175        24.1685 
 378   0.0000       0.889065        24.1927 
 379   0.0000       0.893346        24.3092 
 380   0.0000       0.897435        24.4204 
 381   0.0000       0.899750        24.4834 
 382   0.0000       0.901006        24.5176 
 383   0.0000       0.901648        24.5351 
 384   0.0000       0.903301        24.5801 
 385   0.0000       0.904587        24.6151 
 386   0.0000       0.907445        24.6928 
 387   0.0000       0.908778        24.7291 
 388   0.0000       0.910837        24.7851 
 389   0.0000       0.916532        24.9401 
 390   0.0000       0.920852        25.0576 
 391   0.0000       0.923590        25.1322 
 392   0.0000       0.925064        25.1723 
 393   0.0000       0.926434        25.2095 
 394   0.0000       0.927045        25.2262 
 395   0.0000       0.930210        25.3123 
 396   0.0000       0.933947        25.4140 
 397   0.0000       0.937655        25.5149 
 398   0.0000       0.940448        25.5909 
 399   0.0000       0.942067        25.6350 
 400   0.0000       0.944068        25.6894 
 401   0.0000       0.947917        25.7941 
 402   0.0000       0.953062        25.9341 
 403   0.0000       0.956428        26.0257 
 404   0.0000       0.959946        26.1215 
 405   0.0000       0.961741        26.1703 
 406   0.0000       0.964333        26.2408 
 407   0.0000       0.968587        26.3566 
 408   0.0000       0.969801        26.3896 
 409   0.0000       0.977836        26.6083 
 410   0.0000       0.980753        26.6877 
 411   0.0000       0.986121        26.8337 
 412   0.0000       0.988103        26.8877 
 413   0.0000       0.995452        27.0876 
 414   0.0000       0.998039        27.1580 
 415   0.0000       0.999771        27.2051 
 416   0.0000       1.003896        27.3174 
 417   0.0000       1.011642        27.5282 
 418   0.0000       1.018809        27.7232 
 419   0.0000       1.020993        27.7826 
 420   0.0000       1.027431        27.9578 
 421   0.0000       1.031471        28.0677 
 422   0.0000       1.034492        28.1499 
 423   0.0000       1.043403        28.3925 
 424   0.0000       1.049343        28.5541 
 425   0.0000       1.052243        28.6330 
 426   0.0000       1.058125        28.7930 
 427   0.0000       1.064397        28.9637 
 428   0.0000       1.072915        29.1955 
 429   0.0000       1.078813        29.3560 
 430   0.0000       1.080423        29.3998 
 431   0.0000       1.084009        29.4974 
 432   0.0000       1.089450        29.6454 
 433   0.0000       1.090456        29.6728 
 434   0.0000       1.100037        29.9335 
 435   0.0000       1.101021        29.9603 
 436   0.0000       1.105892        30.0928 
 437   0.0000       1.110999        30.2318 
 438   0.0000       1.114555        30.3286 
 439   0.0000       1.117746        30.4154 
 440   0.0000       1.120244        30.4834 
 441   0.0000       1.122591        30.5472 
 442   0.0000       1.124549        30.6005 
 443   0.0000       1.127973        30.6937 
 444   0.0000       1.133706        30.8497 
 445   0.0000       1.136054        30.9136 
 446   0.0000       1.140431        31.0327 
 447   0.0000       1.142740        31.0955 
 448   0.0000       1.144708        31.1491 
 449   0.0000       1.149713        31.2853 
 450   0.0000       1.152092        31.3500 
 451   0.0000       1.157849        31.5067 
 452   0.0000       1.158832        31.5334 
 453   0.0000       1.165079        31.7034 
 454   0.0000       1.165605        31.7177 
 455   0.0000       1.169908        31.8348 
 456   0.0000       1.172210        31.8975 
 457   0.0000       1.176345        32.0100 
 458   0.0000       1.181249        32.1434 
 459   0.0000       1.185395        32.2562 
 460   0.0000       1.192243        32.4426 
 461   0.0000       1.197343        32.5814 
 462   0.0000       1.200588        32.6697 
 463   0.0000       1.205871        32.8134 
 464   0.0000       1.207749        32.8645 
 465   0.0000       1.209913        32.9234 
 466   0.0000       1.216660        33.1070 
 467   0.0000       1.218319        33.1521 
 468   0.0000       1.220614        33.2146 
 469   0.0000       1.225805        33.3559 
 470   0.0000       1.228676        33.4340 
 471   0.0000       1.230817        33.4922 
 472   0.0000       1.234567        33.5943 
 473   0.0000       1.235079        33.6082 
 474   0.0000       1.243063        33.8255 
 475   0.0000       1.243922        33.8488 
 476   0.0000       1.248867        33.9834 
 477   0.0000       1.250584        34.0301 
 478   0.0000       1.251760        34.0621 
 479   0.0000       1.254428        34.1347 
 480   0.0000       1.258384        34.2424 
 481   0.0000       1.264379        34.4055 
 482   0.0000       1.264760        34.4159 
 483   0.0000       1.269252        34.5381 
 484   0.0000       1.272815        34.6350 
 485   0.0000       1.277703        34.7681 
 486   0.0000       1.282057        34.8866 
 487   0.0000       1.284418        34.9508 
 488   0.0000       1.287255        35.0280 
 489   0.0000       1.290468        35.1154 
 490   0.0000       1.294267        35.2188 
 491   0.0000       1.297046        35.2944 
 492   0.0000       1.300490        35.3881 
 493   0.0000       1.309234        35.6261 
 494   0.0000       1.311362        35.6840 
 495   0.0000       1.316016        35.8106 
 496   0.0000       1.321934        35.9717 
 497   0.0000       1.324057        36.0294 
 498   0.0000       1.325193        36.0603 
 499   0.0000       1.329191        36.1691 
 500   0.0000       1.331405        36.2294 
 501   0.0000       1.334903        36.3246 
 502   0.0000       1.338716        36.4283 
 503   0.0000       1.342320        36.5264 
 504   0.0000       1.346049        36.6278 
 505   0.0000       1.351011        36.7629 
 506   0.0000       1.352478        36.8028 
 507   0.0000       1.356633        36.9159 
 508   0.0000       1.358916        36.9780 
 509   0.0000       1.362279        37.0695 
[...]
      pz      :     0.022085  p :     0.079732
      px      :     0.043542
      py      :     0.014105
 77 H s       :     0.885566  s :     0.885566
      pz      :     0.047898  p :     0.079199
      px      :     0.015020
      py      :     0.016281
 78 H s       :     0.885925  s :     0.885925
      pz      :     0.025842  p :     0.079161
      px      :     0.020478
      py      :     0.032841
 79 H s       :     0.910329  s :     0.910329
      pz      :     0.021874  p :     0.086404
      px      :     0.021684
      py      :     0.042847
 80 H s       :     0.865866  s :     0.865866
      pz      :     0.039272  p :     0.084661
      px      :     0.030197
      py      :     0.015192
 81 H s       :     0.886989  s :     0.886989
      pz      :     0.037800  p :     0.084076
      px      :     0.016180
      py      :     0.030096
 82 H s       :     0.915778  s :     0.915778
      pz      :     0.021981  p :     0.086755
      px      :     0.031590
      py      :     0.033185
 83 H s       :     0.873238  s :     0.873238
      pz      :     0.039275  p :     0.084068
      px      :     0.015270
      py      :     0.029523
 84 H s       :     0.886763  s :     0.886763
      pz      :     0.035777  p :     0.083502
      px      :     0.031702
      py      :     0.016023
 85 H s       :     0.893013  s :     0.893013
      pz      :     0.022493  p :     0.079780
      px      :     0.014074
      py      :     0.043213
 86 H s       :     0.890946  s :     0.890946
      pz      :     0.024729  p :     0.078835
      px      :     0.032983
      py      :     0.021123
 87 H s       :     0.889973  s :     0.889973
      pz      :     0.047999  p :     0.078729
      px      :     0.015592
      py      :     0.015138
 88 H s       :     0.911196  s :     0.911196
      pz      :     0.021698  p :     0.086998
      px      :     0.042859
      py      :     0.022441
 89 H s       :     0.871717  s :     0.871717
      pz      :     0.037925  p :     0.083827
      px      :     0.030468
      py      :     0.015434


                      *****************************
                      * MAYER POPULATION ANALYSIS *
                      *****************************

  NA   - Mulliken gross atomic population
  ZA   - Total nuclear charge
  QA   - Mulliken gross atomic charge
  VA   - Mayer's total valence
  BVA  - Mayer's bonded valence
  FA   - Mayer's free valence

  ATOM       NA         ZA         QA         VA         BVA        FA
  0 C      5.7913     6.0000     0.2087     3.8400     3.8400     0.0000
  1 N      7.4540     7.0000    -0.4540     3.3339     3.3339     0.0000
  2 C      6.0642     6.0000    -0.0642     3.9202     3.9202     0.0000
  3 N      7.3366     7.0000    -0.3366     3.4568     3.4568    -0.0000
  4 C      6.0480     6.0000    -0.0480     4.0169     4.0169     0.0000
  5 N      7.5638     7.0000    -0.5638     3.0935     3.0935     0.0000
  6 C      6.1070     6.0000    -0.1070     3.9955     3.9955    -0.0000
  7 N      7.3399     7.0000    -0.3399     3.4352     3.4352    -0.0000
  8 C      5.7940     6.0000     0.2060     3.8399     3.8399    -0.0000
  9 N      7.5624     7.0000    -0.5624     3.0785     3.0785     0.0000
 10 C      5.8815     6.0000     0.1185     3.9076     3.9076     0.0000
 11 N      7.4383     7.0000    -0.4383     3.3791     3.3791    -0.0000
 12 C      6.0833     6.0000    -0.0833     3.9043     3.9043    -0.0000
 13 N      7.4317     7.0000    -0.4317     3.4179     3.4179     0.0000
 14 C      5.7640     6.0000     0.2360     3.7831     3.7831     0.0000
 15 N      7.4410     7.0000    -0.4410     3.3717     3.3717     0.0000
 16 C      5.7720     6.0000     0.2280     3.7807     3.7807    -0.0000
 17 C      6.1182     6.0000    -0.1182     4.0021     4.0021    -0.0000
 18 C      6.1991     6.0000    -0.1991     3.7680     3.7680     0.0000
 19 C      5.7714     6.0000     0.2286     3.8611     3.8611     0.0000
 20 C      5.7876     6.0000     0.2124     3.8286     3.8286    -0.0000
 21 C      6.0948     6.0000    -0.0948     3.8891     3.8891     0.0000
 22 C      6.0909     6.0000    -0.0909     3.9828     3.9828    -0.0000
 23 C      6.0411     6.0000    -0.0411     3.9924     3.9924    -0.0000
 24 C      5.8043     6.0000     0.1957     3.8217     3.8217    -0.0000
 25 C      5.8855     6.0000     0.1145     3.8912     3.8912    -0.0000
 26 C      6.0789     6.0000    -0.0789     3.9093     3.9093     0.0000
 27 C      5.7866     6.0000     0.2134     3.8658     3.8658     0.0000
 28 C      6.0601     6.0000    -0.0601     3.9886     3.9886    -0.0000
 29 C      6.1805     6.0000    -0.1805     3.7440     3.7440     0.0000
 30 C      5.7559     6.0000     0.2441     3.7992     3.7992    -0.0000
 31 C      5.7737     6.0000     0.2263     3.8195     3.8195    -0.0000
 32 C      6.0624     6.0000    -0.0624     3.9222     3.9222     0.0000
 33 C      6.0648     6.0000    -0.0648     3.9750     3.9750    -0.0000
 34 C      6.0508     6.0000    -0.0508     3.9854     3.9854    -0.0000
 35 C      5.7768     6.0000     0.2232     3.8186     3.8186    -0.0000
 36 C      5.8905     6.0000     0.1095     3.8783     3.8783     0.0000
 37 C      6.0648     6.0000    -0.0648     3.9176     3.9176     0.0000
 38 C      5.7675     6.0000     0.2325     3.8001     3.8001    -0.0000
 39 C      6.0585     6.0000    -0.0585     3.9848     3.9848    -0.0000
 40 C      6.1828     6.0000    -0.1828     3.7303     3.7303    -0.0000
 41 C      5.7750     6.0000     0.2250     3.8856     3.8856     0.0000
 42 C      5.8017     6.0000     0.1983     3.8262     3.8262     0.0000
 43 C      6.0725     6.0000    -0.0725     3.9005     3.9005    -0.0000
 44 C      6.0897     6.0000    -0.0897     3.9849     3.9849     0.0000
 45 C      6.0597     6.0000    -0.0597     3.9924     3.9924     0.0000
 46 C      5.7901     6.0000     0.2099     3.8280     3.8280     0.0000
 47 C      5.8846     6.0000     0.1154     3.8932     3.8932     0.0000
 48 C      6.0683     6.0000    -0.0683     3.9087     3.9087    -0.0000
 49 C      5.7635     6.0000     0.2365     3.8919     3.8919    -0.0000
 50 C      6.0477     6.0000    -0.0477     3.9905     3.9905     0.0000
 51 C      6.1912     6.0000    -0.1912     3.7360     3.7360     0.0000
 52 H      0.9591     1.0000     0.0409     0.9859     0.9859     0.0000
 53 H      1.0163     1.0000    -0.0163     0.9983     0.9983     0.0000
 54 H      0.9468     1.0000     0.0532     1.0144     1.0144     0.0000
 55 H      0.9601     1.0000     0.0399     0.9868     0.9868    -0.0000
 56 H      0.9496     1.0000     0.0504     0.9698     0.9698     0.0000
 57 H      0.9510     1.0000     0.0490     0.9830     0.9830     0.0000
 58 H      0.9518     1.0000     0.0482     0.9848     0.9848    -0.0000
 59 H      0.9990     1.0000     0.0010     1.0033     1.0033     0.0000
 60 H      0.9513     1.0000     0.0487     1.0131     1.0131    -0.0000
 61 H      0.8286     1.0000     0.1714     1.0421     1.0421    -0.0000
 62 H      0.8250     1.0000     0.1750     1.0435     1.0435    -0.0000
 63 H      0.9446     1.0000     0.0554     0.9853     0.9853    -0.0000
 64 H      1.0081     1.0000    -0.0081     0.9979     0.9979     0.0000
 65 H      0.9526     1.0000     0.0474     1.0094     1.0094    -0.0000
 66 H      0.9439     1.0000     0.0561     0.9854     0.9854    -0.0000
 67 H      0.9376     1.0000     0.0624     0.9719     0.9719    -0.0000
 68 H      0.9426     1.0000     0.0574     0.9868     0.9868     0.0000
 69 H      0.9432     1.0000     0.0568     0.9828     0.9828    -0.0000
 70 H      1.0287     1.0000    -0.0287     0.9935     0.9935     0.0000
 71 H      0.9548     1.0000     0.0452     1.0061     1.0061    -0.0000
 72 H      0.9317     1.0000     0.0683     0.9839     0.9839     0.0000
 73 H      1.0090     1.0000    -0.0090     1.0005     1.0005    -0.0000
 74 H      0.9424     1.0000     0.0576     1.0100     1.0100    -0.0000
 75 H      0.9324     1.0000     0.0676     0.9842     0.9842     0.0000
 76 H      0.9277     1.0000     0.0723     0.9720     0.9720     0.0000
 77 H      0.9340     1.0000     0.0660     0.9854     0.9854    -0.0000
 78 H      0.9347     1.0000     0.0653     0.9853     0.9853    -0.0000
 79 H      1.0160     1.0000    -0.0160     0.9979     0.9979     0.0000
 80 H      0.9416     1.0000     0.0584     1.0072     1.0072     0.0000
 81 H      0.9460     1.0000     0.0540     0.9856     0.9856    -0.0000
 82 H      1.0245     1.0000    -0.0245     0.9936     0.9936     0.0000
 83 H      0.9579     1.0000     0.0421     1.0084     1.0084    -0.0000
 84 H      0.9460     1.0000     0.0540     0.9853     0.9853    -0.0000
 85 H      0.9395     1.0000     0.0605     0.9716     0.9716     0.0000
 86 H      0.9443     1.0000     0.0557     0.9839     0.9839    -0.0000
 87 H      0.9430     1.0000     0.0570     0.9856     0.9856    -0.0000
 88 H      1.0157     1.0000    -0.0157     0.9963     0.9963    -0.0000
 89 H      0.9543     1.0000     0.0457     1.0074     1.0074     0.0000

  Mayer bond orders larger than 0.100000
B(  0-C ,  1-N ) :   1.0953 B(  0-C , 17-C ) :   1.6950 B(  0-C , 52-H ) :   0.9676 
B(  1-N ,  8-C ) :   1.0885 B(  1-N , 10-C ) :   0.9760 B(  2-C , 12-C ) :   1.5114 
B(  2-C , 16-C ) :   1.3524 B(  2-C , 53-H ) :   0.9756 B(  3-N , 14-C ) :   1.2177 
B(  3-N , 16-C ) :   1.1907 B(  3-N , 61-H ) :   0.8990 B(  4-C ,  6-C ) :   1.2158 
B(  4-C , 17-C ) :   1.2173 B(  4-C , 18-C ) :   1.4199 B(  5-N , 19-C ) :   1.4488 
B(  5-N , 27-C ) :   1.3817 B(  6-C ,  8-C ) :   1.7017 B(  6-C , 54-H ) :   0.9575 
B(  7-N , 30-C ) :   1.1956 B(  7-N , 38-C ) :   1.1923 B(  7-N , 62-H ) :   0.8971 
B(  8-C , 55-H ) :   0.9676 B(  9-N , 41-C ) :   1.3964 B(  9-N , 49-C ) :   1.4239 
B( 10-C , 56-H ) :   0.9769 B( 10-C , 57-H ) :   0.9821 B( 10-C , 58-H ) :   0.9843 
B( 11-N , 20-C ) :   1.1298 B( 11-N , 24-C ) :   1.1095 B( 11-N , 25-C ) :   0.9599 
B( 12-C , 14-C ) :   1.3528 B( 12-C , 59-H ) :   0.9739 B( 13-N , 31-C ) :   1.1535 
B( 13-N , 35-C ) :   1.1506 B( 13-N , 36-C ) :   0.9452 B( 14-C , 18-C ) :   1.1369 
B( 15-N , 42-C ) :   1.1089 B( 15-N , 46-C ) :   1.1219 B( 15-N , 47-C ) :   0.9616 
B( 16-C , 51-C ) :   1.1748 B( 17-C , 60-H ) :   0.9609 B( 18-C , 19-C ) :   1.1426 
B( 19-C , 21-C ) :   1.2418 B( 20-C , 28-C ) :   1.6278 B( 20-C , 63-H ) :   0.9703 
B( 21-C , 26-C ) :   1.6118 B( 21-C , 64-H ) :   0.9687 B( 22-C , 23-C ) :   1.2886 
B( 22-C , 28-C ) :   1.2657 B( 22-C , 29-C ) :   1.2240 B( 23-C , 24-C ) :   1.6198 
B( 23-C , 65-H ) :   0.9704 B( 24-C , 66-H ) :   0.9694 B( 25-C , 67-H ) :   0.9760 
B( 25-C , 68-H ) :   0.9828 B( 25-C , 69-H ) :   0.9823 B( 26-C , 27-C ) :   1.2379 
B( 26-C , 70-H ) :   0.9710 B( 27-C , 29-C ) :   1.2156 B( 28-C , 71-H ) :   0.9719 
B( 29-C , 30-C ) :   1.2371 B( 30-C , 32-C ) :   1.2871 B( 31-C , 39-C ) :   1.5969 
B( 31-C , 72-H ) :   0.9684 B( 32-C , 37-C ) :   1.5717 B( 32-C , 73-H ) :   0.9785 
B( 33-C , 34-C ) :   1.3007 B( 33-C , 39-C ) :   1.2963 B( 33-C , 40-C ) :   1.1910 
B( 34-C , 35-C ) :   1.5941 B( 34-C , 74-H ) :   0.9698 B( 35-C , 75-H ) :   0.9684 
B( 36-C , 76-H ) :   0.9767 B( 36-C , 77-H ) :   0.9817 B( 36-C , 78-H ) :   0.9825 
B( 37-C , 38-C ) :   1.2915 B( 37-C , 79-H ) :   0.9768 B( 38-C , 40-C ) :   1.2277 
B( 39-C , 80-H ) :   0.9707 B( 40-C , 41-C ) :   1.2447 B( 41-C , 43-C ) :   1.1901 
B( 42-C , 50-C ) :   1.6335 B( 42-C , 81-H ) :   0.9697 B( 43-C , 48-C ) :   1.6623 
B( 43-C , 82-H ) :   0.9725 B( 44-C , 45-C ) :   1.2646 B( 44-C , 50-C ) :   1.2711 
B( 44-C , 51-C ) :   1.2599 B( 45-C , 46-C ) :   1.6347 B( 45-C , 83-H ) :   0.9717 
B( 46-C , 84-H ) :   0.9700 B( 47-C , 85-H ) :   0.9762 B( 47-C , 86-H ) :   0.9829 
B( 47-C , 87-H ) :   0.9825 B( 48-C , 49-C ) :   1.1932 B( 48-C , 88-H ) :   0.9747 
B( 49-C , 51-C ) :   1.2383 B( 50-C , 89-H ) :   0.9710 

-------
TIMINGS
-------

Total SCF time: 0 days 0 hours 30 min 14 sec 

Total time                  ....    1814.085 sec
Sum of individual times     ....    1809.443 sec  ( 99.7%)

Fock matrix formation       ....    1786.169 sec  ( 98.5%)
Diagonalization             ....       6.881 sec  (  0.4%)
Density matrix formation    ....       0.677 sec  (  0.0%)
Population analysis         ....       0.525 sec  (  0.0%)
Initial guess               ....       2.068 sec  (  0.1%)
Orbital Transformation      ....       0.000 sec  (  0.0%)
Orbital Orthonormalization  ....       0.000 sec  (  0.0%)
DIIS solution               ....       3.526 sec  (  0.2%)
SOSCF solution              ....       8.517 sec  (  0.5%)

Maximum memory used throughout the entire SCF-calculation: 302.6 MB


           ************************************************************
           *        Program running with 16 parallel MPI-processes    *
           *              working on a common directory               *
           ************************************************************

------------------------------------------------------------------------------
                                ORCA  MP2 
------------------------------------------------------------------------------

Freezing NCore=104 chemical core electrons

----------
MP2 ENERGY (disk based algorithm)
----------

Dimension of the basis                    ...  918
Memory devoted to MP2                     ... 2000 MB   
Data format for buffers                   ... DOUBLE
Compression type for matrix containers    ... UNCOMPRESSED

-------------------------------
PARTIAL EXCHANGE TRANSFORMATION
-------------------------------

Transformation type                        ... one-operator
Generation of integrals (i,mue|j,nue)      ... ON
Generation of integrals (mue,kappa|nue,tau)... OFF
Generation of integrals (i,mue|a,nue)      ... OFF
Dimension of the basis                     ...  918
Number of internal MOs                     ...  127 (  52- 178)
Pair cutoff                                ... 2.500e-12 Eh
Number of AO pairs in the trafo            ... 421821
Total Number of distinct AO pairs          ... 421821
Memory devoted for trafo                   ... 2000.0 MB 
Max. Number of MO pairs treated together   ...  311      
Number Format for Storage                  ... Double (8 Byte)
Integral package used                      ... LIBINT

Starting integral evaluation:
    ... done with AO integral generation
Closing buffer AOK     (38.24 GB; CompressionRatio= 1.33)
Collecting buffer AOK 
Number of MO pairs included in the trafo   ... 8128
------------------------
SORTING OF (i,mue|j,nue)
------------------------

IBATCH = 1 of  2
IBATCH = 2 of  2
Closing buffer KAO     (51.03 GB; CompressionRatio= 1.00)
Collecting buffer KAO 
N(AO-Batches) Done                         ...  85842490 
N(AO-Batches) Skipped                      ...  82542484 
N(IJ)-pairs Skipped                        ...         0 
TOTAL TIME for half transformation         ...  3137.234 sec
AO-integral generation                     ...   214.042 sec
Half transformation                        ...   376.526 sec
K-integral sorting                         ...  2368.256 sec
Process 10:   Internal MO 132
Process 13:   Internal MO 156

Finished integral transformation - now doing MP2 part

Process  7:   Internal MO 108
Process  1:   Internal MO  60
OPERATOR COMBINATION   0   0: ij=( 52..178, 52..178)
Process  4:   Internal MO  84
Process  1:   Internal MO  63
Process  0:   Internal MO  54
Process  5:   Internal MO  93
Process  0:   Internal MO  57
Process  8:   Internal MO 117
Process  3:   Internal MO  78
Process  1:   Internal MO  66
Process  2:   Internal MO  69
Process  6:   Internal MO 102
Process 14:   Internal MO 165
Process 11:   Internal MO 141
Process  2:   Internal MO  72
Process  7:   Internal MO 111
Process  9:   Internal MO 126
Process  4:   Internal MO  87
Process  3:   Internal MO  81
Process 12:   Internal MO 150
Process  5:   Internal MO  96
Process  2:   Internal MO  75
Process  6:   Internal MO 105
Process 10:   Internal MO 135
Process  4:   Internal MO  90
Process  7:   Internal MO 114
Process 15:   Internal MO 174
Process  8:   Internal MO 120
Process  9:   Internal MO 129
Process  5:   Internal MO  99
Process 13:   Internal MO 159
Process 11:   Internal MO 144
Process 12:   Internal MO 153
Process 14:   Internal MO 168
Process 10:   Internal MO 138
Process  8:   Internal MO 123
Process 15:   Internal MO 177
Process 13:   Internal MO 162
Process 11:   Internal MO 147
Process 14:   Internal MO 171
-----------------------------------------------
 MP2 CORRELATION ENERGY   :     -7.283851305 Eh
-----------------------------------------------


-------
TIMINGS
-------
Total time                : 3493.743 sec
Integral trafo            : 3139.549 sec ( 89.9%)
K(i,j)                    :   20.664 sec (  0.6%)
T(i,j)                    :    0.082 sec (  0.0%)

---------------------------------------
MP2 TOTAL ENERGY:    -2130.892034012 Eh
---------------------------------------

Maximum memory used throughout the entire MP2-calculation: 2275.3 MB

-------------------------   --------------------
FINAL SINGLE POINT ENERGY     -2130.892034011692
-------------------------   --------------------


                            ***************************************
                            *     ORCA property calculations      *
                            ***************************************


  WARNING: The energy has been calculated at the MP2 level but the densities
           used in the property calculations are still SCF densities
           MP2 response densities have not been calculated 
           use %mp2 Density relaxed end
           or  %mp2 Density unrelaxed end

                                    ---------------------
                                    Active property flags
                                    ---------------------
   (+) Dipole Moment


------------------------------------------------------------------------------
                       ORCA ELECTRIC PROPERTIES CALCULATION
------------------------------------------------------------------------------

Dipole Moment Calculation                       ... on
Quadrupole Moment Calculation                   ... off
Polarizability Calculation                      ... off
GBWName                                         ... /scratch/allen/tmpyp4_amber_gaff2/conf1/conf1/Conf35.orca.gbw
Electron density                                ... /scratch/allen/tmpyp4_amber_gaff2/conf1/conf1/Conf35.orca.scfp
The origin for moment calculation is the CENTER OF MASS  = (-0.000522, -0.004473  0.003445)

-------------
DIPOLE MOMENT
-------------
                                X             Y             Z
Electronic contribution:      2.22992      -3.57050      -0.11670
Nuclear contribution   :     -0.04918       0.15371       0.14054
                        -----------------------------------------
Total Dipole Moment    :      2.18074      -3.41679       0.02384
                        -----------------------------------------
Magnitude (a.u.)       :      4.05347
Magnitude (Debye)      :     10.30311



--------------------
Rotational spectrum 
--------------------
 
Rotational constants in cm-1:     0.001502     0.001476     0.000761 
Rotational constants in MHz :    45.015447    44.260748    22.806005 

 Dipole components along the rotational axes: 
x,y,z [a.u.] :     2.921788     2.809457     0.027178 
x,y,z [Debye]:     7.426595     7.141072     0.069081 

 

Timings for individual modules:

Sum of individual times         ...     5329.114 sec (=  88.819 min)
GTO integral calculation        ...        3.348 sec (=   0.056 min)   0.1 %
SCF iterations                  ...     1815.164 sec (=  30.253 min)  34.1 %
MP2 module                      ...     3510.602 sec (=  58.510 min)  65.9 %
                             ****ORCA TERMINATED NORMALLY****
TOTAL RUN TIME: 0 days 1 hours 28 minutes 52 seconds 582 msec
# of primitive gaussian functions

