
                                 *****************
                                 * O   R   C   A *
                                 *****************

                                            #,                                       
                                            ###                                      
                                            ####                                     
                                            #####                                    
                                            ######                                   
                                           ########,                                 
                                     ,,################,,,,,                         
                               ,,#################################,,                 
                          ,,##########################################,,             
                       ,#########################################, ''#####,          
                    ,#############################################,,   '####,        
                  ,##################################################,,,,####,       
                ,###########''''           ''''###############################       
              ,#####''   ,,,,##########,,,,          '''####'''          '####       
            ,##' ,,,,###########################,,,                        '##       
           ' ,,###''''                  '''############,,,                           
         ,,##''                                '''############,,,,        ,,,,,,###''
      ,#''                                            '''#######################'''  
     '                                                          ''''####''''         
             ,#######,   #######,   ,#######,      ##                                
            ,#'     '#,  ##    ##  ,#'     '#,    #''#        ######   ,####,        
            ##       ##  ##   ,#'  ##            #'  '#       #        #'  '#        
            ##       ##  #######   ##           ,######,      #####,   #    #        
            '#,     ,#'  ##    ##  '#,     ,#' ,#      #,         ##   #,  ,#        
             '#######'   ##     ##  '#######'  #'      '#     #####' # '####'        



                  #######################################################
                  #                        -***-                        #
                  #          Department of theory and spectroscopy      #
                  #    Directorship and core code : Frank Neese         #
                  #        Max Planck Institute fuer Kohlenforschung    #
                  #                Kaiser Wilhelm Platz 1               #
                  #                 D-45470 Muelheim/Ruhr               #
                  #                      Germany                        #
                  #                                                     #
                  #                  All rights reserved                #
                  #                        -***-                        #
                  #######################################################


                         Program Version 5.0.4 -  RELEASE  -


 With contributions from (in alphabetic order):
   Daniel Aravena         : Magnetic Suceptibility
   Michael Atanasov       : Ab Initio Ligand Field Theory (pilot matlab implementation)
   Alexander A. Auer      : GIAO ZORA, VPT2 properties, NMR spectrum
   Ute Becker             : Parallelization
   Giovanni Bistoni       : ED, misc. LED, open-shell LED, HFLD
   Martin Brehm           : Molecular dynamics
   Dmytro Bykov           : SCF Hessian
   Vijay G. Chilkuri      : MRCI spin determinant printing, contributions to CSF-ICE
   Dipayan Datta          : RHF DLPNO-CCSD density
   Achintya Kumar Dutta   : EOM-CC, STEOM-CC
   Dmitry Ganyushin       : Spin-Orbit,Spin-Spin,Magnetic field MRCI
   Miquel Garcia          : C-PCM and meta-GGA Hessian, CC/C-PCM, Gaussian charge scheme
   Yang Guo               : DLPNO-NEVPT2, F12-NEVPT2, CIM, IAO-localization
   Andreas Hansen         : Spin unrestricted coupled pair/coupled cluster methods
   Benjamin Helmich-Paris : MC-RPA, TRAH-SCF, COSX integrals
   Lee Huntington         : MR-EOM, pCC
   Robert Izsak           : Overlap fitted RIJCOSX, COSX-SCS-MP3, EOM
   Marcus Kettner         : VPT2
   Christian Kollmar      : KDIIS, OOCD, Brueckner-CCSD(T), CCSD density, CASPT2, CASPT2-K
   Simone Kossmann        : Meta GGA functionals, TD-DFT gradient, OOMP2, MP2 Hessian
   Martin Krupicka        : Initial AUTO-CI
   Lucas Lang             : DCDCAS
   Marvin Lechner         : AUTO-CI (C++ implementation), FIC-MRCC
   Dagmar Lenk            : GEPOL surface, SMD
   Dimitrios Liakos       : Extrapolation schemes; Compound Job, initial MDCI parallelization
   Dimitrios Manganas     : Further ROCIS development; embedding schemes
   Dimitrios Pantazis     : SARC Basis sets
   Anastasios Papadopoulos: AUTO-CI, single reference methods and gradients
   Taras Petrenko         : DFT Hessian,TD-DFT gradient, ASA, ECA, R-Raman, ABS, FL, XAS/XES, NRVS
   Peter Pinski           : DLPNO-MP2, DLPNO-MP2 Gradient
   Christoph Reimann      : Effective Core Potentials
   Marius Retegan         : Local ZFS, SOC
   Christoph Riplinger    : Optimizer, TS searches, QM/MM, DLPNO-CCSD(T), (RO)-DLPNO pert. Triples
   Tobias Risthaus        : Range-separated hybrids, TD-DFT gradient, RPA, STAB
   Michael Roemelt        : Original ROCIS implementation
   Masaaki Saitow         : Open-shell DLPNO-CCSD energy and density
   Barbara Sandhoefer     : DKH picture change effects
   Avijit Sen             : IP-ROCIS
   Kantharuban Sivalingam : CASSCF convergence, NEVPT2, FIC-MRCI
   Bernardo de Souza      : ESD, SOC TD-DFT
   Georgi Stoychev        : AutoAux, RI-MP2 NMR, DLPNO-MP2 response
   Willem Van den Heuvel  : Paramagnetic NMR
   Boris Wezisla          : Elementary symmetry handling
   Frank Wennmohs         : Technical directorship


 We gratefully acknowledge several colleagues who have allowed us to
 interface, adapt or use parts of their codes:
   Stefan Grimme, W. Hujo, H. Kruse, P. Pracht,  : VdW corrections, initial TS optimization,
                  C. Bannwarth, S. Ehlert          DFT functionals, gCP, sTDA/sTD-DF
   Ed Valeev, F. Pavosevic, A. Kumar             : LibInt (2-el integral package), F12 methods
   Garnet Chan, S. Sharma, J. Yang, R. Olivares  : DMRG
   Ulf Ekstrom                                   : XCFun DFT Library
   Mihaly Kallay                                 : mrcc  (arbitrary order and MRCC methods)
   Jiri Pittner, Ondrej Demel                    : Mk-CCSD
   Frank Weinhold                                : gennbo (NPA and NBO analysis)
   Christopher J. Cramer and Donald G. Truhlar   : smd solvation model
   Lars Goerigk                                  : TD-DFT with DH, B97 family of functionals
   V. Asgeirsson, H. Jonsson                     : NEB implementation
   FAccTs GmbH                                   : IRC, NEB, NEB-TS, DLPNO-Multilevel, CI-OPT
                                                   MM, QMMM, 2- and 3-layer-ONIOM, Crystal-QMMM,
                                                   LR-CPCM, SF, NACMEs, symmetry and pop. for TD-DFT,
                                                   nearIR, NL-DFT gradient (VV10), updates on ESD,
                                                   ML-optimized integration grids
   S Lehtola, MJT Oliveira, MAL Marques          : LibXC Library
   Liviu Ungur et al                             : ANISO software


 Your calculation uses the libint2 library for the computation of 2-el integrals
 For citations please refer to: http://libint.valeyev.net

 Your ORCA version has been built with support for libXC version: 5.1.0
 For citations please refer to: https://tddft.org/programs/libxc/

 This ORCA versions uses:
   CBLAS   interface :  Fast vector & matrix operations
   LAPACKE interface :  Fast linear algebra routines
   SCALAPACK package :  Parallel linear algebra routines
   Shared memory     :  Shared parallel matrices
   BLAS/LAPACK       :  OpenBLAS 0.3.15  USE64BITINT DYNAMIC_ARCH NO_AFFINITY Sandybridge SINGLE_THREADED
        Core in use  :  Sandybridge
   Copyright (c) 2011-2014, The OpenBLAS Project


================================================================================

----- Orbital basis set information -----
Your calculation utilizes the basis: cc-pVDZ 
       H, B-Ne : Obtained from the ccRepo (grant-hill.group.shef.ac.uk/ccrepo) Feb. 2017
                 T. H. Dunning, Jr., J. Chem. Phys. 90, 1007 (1989)
            He : Obtained from the ccRepo (grant-hill.group.shef.ac.uk/ccrepo) Feb. 2017
                 D. E. Woon, T. H. Dunning, Jr., J. Chem. Phys. 100, 2975 (1994)
  Li-Be, Na-Mg : Obtained from the ccRepo (grant-hill.group.shef.ac.uk/ccrepo) Feb. 2017
                 B. P. Prascher, D. E. Woon, K. A. Peterson, T. H. Dunning, Jr., A. K. Wilson, Theor. Chem. Acc. 128, 69 (2011)
         Al-Ar : Obtained from the ccRepo (grant-hill.group.shef.ac.uk/ccrepo) Feb. 2017
                 D. E. Woon, T. H. Dunning, Jr., J. Chem. Phys. 98, 1358 (1993)
            Ca : Obtained from the Peterson Research Group Website (tyr0.chem.wsu.edu/~kipeters) Feb. 2017
                 J. Koput, K. A. Peterson, J. Phys. Chem. 106, 9595 (2002)
         Sc-Zn : Obtained from the ccRepo (grant-hill.group.shef.ac.uk/ccrepo) Feb. 2017
                 N. B. Balabanov, K. A. Peterson, J. Chem. Phys. 123, 064107 (2005)
                 N. B. Balabanov, K. A. Peterson, J. Chem. Phys. 125, 074110 (2006)
         Ga-Kr : Obtained from the ccRepo (grant-hill.group.shef.ac.uk/ccrepo) Feb. 2017
                 A. K. Wilson, D. E. Woon, K. A. Peterson, T. H. Dunning, Jr., J. Chem. Phys. 110, 7667 (1999)

================================================================================
                                        WARNINGS
                       Please study these warnings very carefully!
================================================================================


WARNING: No MP2 level density has been requested!
         To caclulate MP2 level properties use
         %mp2 Density relaxed end
         or
         %mp2 Density unrelaxed end

WARNING: Post HF methods need fully converged wavefunctions
  ===> : Setting SCFConvForced true
         You can overwrite this default with %scf ConvForced false 


INFO   : the flag for use of the SHARK integral package has been found!

================================================================================
                                       INPUT FILE
================================================================================
NAME = /scratch/allen/tmpyp4_amber_gaff2/2.Mdgx/conf11/conf11/Conf305.orca
|  1> ! PAL2
|  2> ! mp2 cc-pvdz TightSCF  NoKeepInts
|  3> 
|  4> %scf
|  5>   MaxCore 2000
|  6> end
|  7> %mp2
|  8>   MaxCore 2000
|  9> end
| 10> * xyz 0 1
| 11>    C       -3.47000         6.17700         1.06700
| 12>    C        1.47400         4.04100         0.05700
| 13>    C       -2.80200         4.09300         0.04900
| 14>    C       -3.76300         4.33000        -0.94600
| 15>    C       -4.53700         5.47200        -0.90500
| 16>    C       -5.20600         7.60700         0.08800
| 17>    C        0.13200         4.30700         0.06100
| 18>    C       -0.56900         3.05600         0.04700
| 19>    C        1.64900         2.61800         0.02300
| 20>    C       -2.66800         5.05200         1.06500
| 21>    N       -4.38700         6.37500         0.09300
| 22>    N        0.38800         2.06700         0.02500
| 23>    N       -2.01000         0.39500        -0.07500
| 24>    N       -0.38800        -2.07400        -0.02700
| 25>    N        2.01000        -0.40100         0.06500
| 26>    C       -1.96000         2.86100         0.02400
| 27>    C       -2.62300         1.61500        -0.01800
| 28>    C       -5.57300        -4.32900         1.06600
| 29>    C       -4.07300         1.47100         0.05600
| 30>    C       -4.10600        -2.75600        -0.02600
| 31>    C       -4.99500        -2.75700        -1.11100
| 32>    C       -6.13200        -3.54200        -1.07600
| 33>    C       -7.65100        -5.11300         0.04000
| 34>    C       -4.32400         0.14100         0.03700
| 35>    C       -3.02500        -0.52000        -0.04800
| 36>    C       -4.42200        -3.56600         1.07500
| 37>    N       -6.40700        -4.31300         0.00100
| 38>    C       -2.86700        -1.92200        -0.04000
| 39>    C       -1.65000        -2.62400        -0.02700
| 40>    C        3.56800        -6.14200        -1.04000
| 41>    C       -1.47600        -4.04900        -0.03400
| 42>    C        2.80300        -4.09900        -0.00800
| 43>    C        3.65700        -4.38400         1.06900
| 44>    C        4.42700        -5.53000         1.05900
| 45>    C        5.24500        -7.58800         0.01400
| 46>    C       -0.13400        -4.31500        -0.02200
| 47>    C        0.56800        -3.06400        -0.02700
| 48>    C        2.77500        -5.01200        -1.07400
| 49>    N        4.37600        -6.39100         0.01700
| 50>    C        1.95900        -2.86900        -0.00900
| 51>    C        2.62100        -1.62200         0.00900
| 52>    C        5.54300         4.33900        -1.13000
| 53>    C        4.07000        -1.47900        -0.09400
| 54>    C        4.10400         2.75100        -0.02100
| 55>    C        5.02700         2.72900         1.03600
| 56>    C        6.16600         3.50900         0.97800
| 57>    C        7.61900         5.15300        -0.11500
| 58>    C        4.32100        -0.14800        -0.09200
| 59>    C        3.02500         0.51400         0.01500
| 60>    C        4.38700         3.58200        -1.11500
| 61>    C        2.86600         1.91600         0.01300
| 62>    N        6.41300         4.29600        -0.09500
| 63>    H       -3.41000         6.93600         1.83700
| 64>    H        2.27400         4.76600         0.08100
| 65>    H       -3.90700         3.63200        -1.76200
| 66>    H       -5.28400         5.70200        -1.65300
| 67>    H       -4.70900         8.36100        -0.52700
| 68>    H       -6.18800         7.37500        -0.32300
| 69>    H       -5.30500         7.96600         1.11200
| 70>    H       -0.33200         5.28200         0.06900
| 71>    H       -1.95400         4.91900         1.86900
| 72>    H        0.18200         1.07200         0.00500
| 73>    H       -0.18300        -1.08000        -0.02100
| 74>    H       -5.86400        -4.96200         1.89500
| 75>    H       -4.79400         2.27200         0.13900
| 76>    H       -4.80000        -2.16000        -1.99400
| 77>    H       -6.84100        -3.58200        -1.89300
| 78>    H       -8.42800        -4.53600         0.54600
| 79>    H       -7.95600        -5.33700        -0.98100
| 80>    H       -7.45600        -6.03700         0.58400
| 81>    H       -5.28700        -0.34400         0.10000
| 82>    H       -3.78000        -3.60100         1.94700
| 83>    H        3.58700        -6.86800        -1.84300
| 84>    H       -2.27600        -4.77400        -0.05000
| 85>    H        3.71400        -3.72400         1.92600
| 86>    H        5.09200        -5.79500         1.87100
| 87>    H        6.20500        -7.32900        -0.43900
| 88>    H        5.39300        -7.91700         1.04200
| 89>    H        4.75900        -8.37300        -0.56400
| 90>    H        0.32900        -5.29000        -0.00800
| 91>    H        2.14600        -4.84200        -1.94000
| 92>    H        5.80800         4.98600        -1.95600
| 93>    H        4.78800        -2.28100        -0.18500
| 94>    H        4.86000         2.11400         1.91200
| 95>    H        6.90100         3.53100         1.77200
| 96>    H        7.38300         6.10900         0.35600
| 97>    H        8.41400         4.65200         0.43500
| 98>    H        7.92100         5.31000        -1.15000
| 99>    H        5.28300         0.33600        -0.17900
|100>    H        3.72000         3.63200        -1.96700
|101> *
|102> 
|103>                          ****END OF INPUT****
================================================================================

                       ****************************
                       * Single Point Calculation *
                       ****************************

---------------------------------
CARTESIAN COORDINATES (ANGSTROEM)
---------------------------------
  C     -3.470000    6.177000    1.067000
  C      1.474000    4.041000    0.057000
  C     -2.802000    4.093000    0.049000
  C     -3.763000    4.330000   -0.946000
  C     -4.537000    5.472000   -0.905000
  C     -5.206000    7.607000    0.088000
  C      0.132000    4.307000    0.061000
  C     -0.569000    3.056000    0.047000
  C      1.649000    2.618000    0.023000
  C     -2.668000    5.052000    1.065000
  N     -4.387000    6.375000    0.093000
  N      0.388000    2.067000    0.025000
  N     -2.010000    0.395000   -0.075000
  N     -0.388000   -2.074000   -0.027000
  N      2.010000   -0.401000    0.065000
  C     -1.960000    2.861000    0.024000
  C     -2.623000    1.615000   -0.018000
  C     -5.573000   -4.329000    1.066000
  C     -4.073000    1.471000    0.056000
  C     -4.106000   -2.756000   -0.026000
  C     -4.995000   -2.757000   -1.111000
  C     -6.132000   -3.542000   -1.076000
  C     -7.651000   -5.113000    0.040000
  C     -4.324000    0.141000    0.037000
  C     -3.025000   -0.520000   -0.048000
  C     -4.422000   -3.566000    1.075000
  N     -6.407000   -4.313000    0.001000
  C     -2.867000   -1.922000   -0.040000
  C     -1.650000   -2.624000   -0.027000
  C      3.568000   -6.142000   -1.040000
  C     -1.476000   -4.049000   -0.034000
  C      2.803000   -4.099000   -0.008000
  C      3.657000   -4.384000    1.069000
  C      4.427000   -5.530000    1.059000
  C      5.245000   -7.588000    0.014000
  C     -0.134000   -4.315000   -0.022000
  C      0.568000   -3.064000   -0.027000
  C      2.775000   -5.012000   -1.074000
  N      4.376000   -6.391000    0.017000
  C      1.959000   -2.869000   -0.009000
  C      2.621000   -1.622000    0.009000
  C      5.543000    4.339000   -1.130000
  C      4.070000   -1.479000   -0.094000
  C      4.104000    2.751000   -0.021000
  C      5.027000    2.729000    1.036000
  C      6.166000    3.509000    0.978000
  C      7.619000    5.153000   -0.115000
  C      4.321000   -0.148000   -0.092000
  C      3.025000    0.514000    0.015000
  C      4.387000    3.582000   -1.115000
  C      2.866000    1.916000    0.013000
  N      6.413000    4.296000   -0.095000
  H     -3.410000    6.936000    1.837000
  H      2.274000    4.766000    0.081000
  H     -3.907000    3.632000   -1.762000
  H     -5.284000    5.702000   -1.653000
  H     -4.709000    8.361000   -0.527000
  H     -6.188000    7.375000   -0.323000
  H     -5.305000    7.966000    1.112000
  H     -0.332000    5.282000    0.069000
  H     -1.954000    4.919000    1.869000
  H      0.182000    1.072000    0.005000
  H     -0.183000   -1.080000   -0.021000
  H     -5.864000   -4.962000    1.895000
  H     -4.794000    2.272000    0.139000
  H     -4.800000   -2.160000   -1.994000
  H     -6.841000   -3.582000   -1.893000
  H     -8.428000   -4.536000    0.546000
  H     -7.956000   -5.337000   -0.981000
  H     -7.456000   -6.037000    0.584000
  H     -5.287000   -0.344000    0.100000
  H     -3.780000   -3.601000    1.947000
  H      3.587000   -6.868000   -1.843000
  H     -2.276000   -4.774000   -0.050000
  H      3.714000   -3.724000    1.926000
  H      5.092000   -5.795000    1.871000
  H      6.205000   -7.329000   -0.439000
  H      5.393000   -7.917000    1.042000
  H      4.759000   -8.373000   -0.564000
  H      0.329000   -5.290000   -0.008000
  H      2.146000   -4.842000   -1.940000
  H      5.808000    4.986000   -1.956000
  H      4.788000   -2.281000   -0.185000
  H      4.860000    2.114000    1.912000
  H      6.901000    3.531000    1.772000
  H      7.383000    6.109000    0.356000
  H      8.414000    4.652000    0.435000
  H      7.921000    5.310000   -1.150000
  H      5.283000    0.336000   -0.179000
  H      3.720000    3.632000   -1.967000

----------------------------
CARTESIAN COORDINATES (A.U.)
----------------------------
  NO LB      ZA    FRAG     MASS         X           Y           Z
   0 C     6.0000    0    12.011   -6.557350   11.672838    2.016338
   1 C     6.0000    0    12.011    2.785456    7.636383    0.107714
   2 C     6.0000    0    12.011   -5.295013    7.734649    0.092597
   3 C     6.0000    0    12.011   -7.111039    8.182514   -1.787681
   4 C     6.0000    0    12.011   -8.573687   10.340581   -1.710202
   5 C     6.0000    0    12.011   -9.837914   14.375147    0.166296
   6 C     6.0000    0    12.011    0.249444    8.139050    0.115273
   7 C     6.0000    0    12.011   -1.075254    5.775003    0.088817
   8 C     6.0000    0    12.011    3.116158    4.947303    0.043464
   9 C     6.0000    0    12.011   -5.041789    9.546896    2.012558
  10 N     7.0000    0    14.007   -8.290229   12.047004    0.175745
  11 N     7.0000    0    14.007    0.733214    3.906064    0.047243
  12 N     7.0000    0    14.007   -3.798350    0.746442   -0.141729
  13 N     7.0000    0    14.007   -0.733214   -3.919292   -0.051023
  14 N     7.0000    0    14.007    3.798350   -0.757780    0.122832
  15 C     6.0000    0    12.011   -3.703863    5.406506    0.045353
  16 C     6.0000    0    12.011   -4.956752    3.051908   -0.034015
  17 C     6.0000    0    12.011  -10.531444   -8.180624    2.014448
  18 C     6.0000    0    12.011   -7.696855    2.779787    0.105825
  19 C     6.0000    0    12.011   -7.759216   -5.208085   -0.049133
  20 C     6.0000    0    12.011   -9.439182   -5.209975   -2.099486
  21 C     6.0000    0    12.011  -11.587801   -6.693410   -2.033345
  22 C     6.0000    0    12.011  -14.458295   -9.662170    0.075589
  23 C     6.0000    0    12.011   -8.171176    0.266451    0.069920
  24 C     6.0000    0    12.011   -5.716422   -0.982658   -0.090707
  25 C     6.0000    0    12.011   -8.356369   -6.738763    2.031456
  26 N     7.0000    0    14.007  -12.107475   -8.150389    0.001890
  27 C     6.0000    0    12.011   -5.417845   -3.632054   -0.075589
  28 C     6.0000    0    12.011   -3.118048   -4.958641   -0.051023
  29 C     6.0000    0    12.011    6.742543  -11.606698   -1.965315
  30 C     6.0000    0    12.011   -2.789236   -7.651501   -0.064251
  31 C     6.0000    0    12.011    5.296902   -7.745987   -0.015118
  32 C     6.0000    0    12.011    6.910728   -8.284559    2.020117
  33 C     6.0000    0    12.011    8.365818  -10.450186    2.001220
  34 C     6.0000    0    12.011    9.911614  -14.339242    0.026456
  35 C     6.0000    0    12.011   -0.253223   -8.154168   -0.041574
  36 C     6.0000    0    12.011    1.073364   -5.790121   -0.051023
  37 C     6.0000    0    12.011    5.243990   -9.471307   -2.029566
  38 N     7.0000    0    14.007    8.269442  -12.077240    0.032125
  39 C     6.0000    0    12.011    3.701973   -5.421624   -0.017008
  40 C     6.0000    0    12.011    4.952972   -3.065136    0.017008
  41 C     6.0000    0    12.011   10.474752    8.199522   -2.135391
  42 C     6.0000    0    12.011    7.691185   -2.794905   -0.177634
  43 C     6.0000    0    12.011    7.755436    5.198637   -0.039684
  44 C     6.0000    0    12.011    9.499653    5.157063    1.957756
  45 C     6.0000    0    12.011   11.652051    6.631049    1.848152
  46 C     6.0000    0    12.011   14.397823    9.737759   -0.217319
  47 C     6.0000    0    12.011    8.165507   -0.279679   -0.173855
  48 C     6.0000    0    12.011    5.716422    0.971319    0.028346
  49 C     6.0000    0    12.011    8.290229    6.768999   -2.107045
  50 C     6.0000    0    12.011    5.415955    3.620715    0.024566
  51 N     7.0000    0    14.007   12.118814    8.118263   -0.179524
  52 H     1.0000    0     1.008   -6.443966   13.107140    3.471427
  53 H     1.0000    0     1.008    4.297237    9.006435    0.153068
  54 H     1.0000    0     1.008   -7.383160    6.863485   -3.329697
  55 H     1.0000    0     1.008   -9.985313   10.775218   -3.123717
  56 H     1.0000    0     1.008   -8.898720   15.800000   -0.995886
  57 H     1.0000    0     1.008  -11.693625   13.936730   -0.610382
  58 H     1.0000    0     1.008  -10.024997   15.053558    2.101375
  59 H     1.0000    0     1.008   -0.627389    9.981533    0.130391
  60 H     1.0000    0     1.008   -3.692525    9.295563    3.531898
  61 H     1.0000    0     1.008    0.343930    2.025786    0.009449
  62 H     1.0000    0     1.008   -0.345820   -2.040904   -0.039684
  63 H     1.0000    0     1.008  -11.081354   -9.376821    3.581031
  64 H     1.0000    0     1.008   -9.059347    4.293458    0.262672
  65 H     1.0000    0     1.008   -9.070685   -4.081808   -3.768114
  66 H     1.0000    0     1.008  -12.927616   -6.768999   -3.577252
  67 H     1.0000    0     1.008  -15.926612   -8.571798    1.031790
  68 H     1.0000    0     1.008  -15.034661  -10.085468   -1.853821
  69 H     1.0000    0     1.008  -14.089798  -11.408277    1.103600
  70 H     1.0000    0     1.008   -9.990982   -0.650066    0.188973
  71 H     1.0000    0     1.008   -7.143165   -6.804904    3.679297
  72 H     1.0000    0     1.008    6.778448  -12.978639   -3.482765
  73 H     1.0000    0     1.008   -4.301017   -9.021553   -0.094486
  74 H     1.0000    0     1.008    7.018443   -7.037340    3.639613
  75 H     1.0000    0     1.008    9.622485  -10.950963    3.535678
  76 H     1.0000    0     1.008   11.725751  -13.849803   -0.829590
  77 H     1.0000    0     1.008   10.191293  -14.960962    1.969095
  78 H     1.0000    0     1.008    8.993207  -15.822677   -1.065806
  79 H     1.0000    0     1.008    0.621720   -9.996651   -0.015118
  80 H     1.0000    0     1.008    4.055352   -9.150054   -3.666069
  81 H     1.0000    0     1.008   10.975529    9.422175   -3.696304
  82 H     1.0000    0     1.008    9.048009   -4.310465   -0.349599
  83 H     1.0000    0     1.008    9.184069    3.994881    3.613156
  84 H     1.0000    0     1.008   13.041000    6.672623    3.348595
  85 H     1.0000    0     1.008   13.951848   11.544337    0.672743
  86 H     1.0000    0     1.008   15.900156    8.791006    0.822031
  87 H     1.0000    0     1.008   14.968521   10.034446   -2.173185
  88 H     1.0000    0     1.008    9.983423    0.634948   -0.338261
  89 H     1.0000    0     1.008    7.029781    6.863485   -3.717091

--------------------------------
INTERNAL COORDINATES (ANGSTROEM)
--------------------------------
 C      0   0   0     0.000000000000     0.00000000     0.00000000
 C      1   0   0     5.479574071039     0.00000000     0.00000000
 C      1   2   0     2.413628803275    48.39226498     0.00000000
 C      3   1   2     1.403465354043    87.92001475   224.94615755
 C      4   3   1     1.380188755207   120.17603487     0.12690958
 C      5   4   3     2.447822501735   152.49856618     1.63616239
 C      2   1   3     1.368114030335    15.97806413    16.06195615
 C      7   2   1     1.434084376876   108.05010202   220.61075984
 C      2   1   3     1.434123425651   120.08317410   331.32781442
 C      1   2   3     1.381605225815    32.70897026    40.85527786
 N      1   2   3     1.352319858613   122.42093807   303.21025941
 N      9   2   1     1.376127174356   106.58526707    11.00657060
 N     12   9   2     2.925062050624   168.53581413   171.12065651
 N     13  12   9     2.954513327098    91.55032014    11.12112580
 N     14  13  12     2.925371258490    88.43092389   359.84326247
 C      8   7   2     1.404790019896   127.24786865   181.11170171
 C     13  12   9     1.366535034311    81.72106996   188.00453233
 C     14  13  12     5.758810554272    80.56209567   166.76250791
 C     17  13  12     1.459010623676   111.08861209   183.82872609
 C     18  14  13     2.412235892279    27.27532823    36.33507194
 C     20  18  14     1.402692767501    87.95206320   148.94598259
 C     21  20  18     1.382106725257   120.14573887   359.70382047
 C     18  14  13     2.446510985056   144.15733107    82.80075377
 C     19  17  13     1.353610726908   106.29293361   359.75308708
 C     13  12   9     1.366813447402   172.21332906    33.46711076
 C     18  14  13     1.380960173213    15.08449437   309.23336894
 N     22  21  20     1.352773077792   120.73759875     0.27865223
 C     25  13  17     1.410897586645   125.60330303   182.37774668
 C     14  13  12     1.376642291955    80.24689249   177.85461986
 C     14  13  12     5.764089607215   164.51507311   312.20821879
 C     29  14  13     1.435600919476   106.58649366   178.76395472
 C     30  14  13     2.413316804732    27.10625047    82.12560436
 C     32  30  14     1.403734305344    87.90059683   149.76154742
 C     33  32  30     1.380694028378   120.14881443   359.74174632
 C     34  33  32     2.448777858443   152.49203239     2.45173620
 C     31  29  14     1.368160809262   108.16950133     0.70383075
 C     14  13  12     1.376239804685   169.26375223   353.09862627
 C     30  14  13     1.380907310430    14.68948582   353.70041132
 N     34  33  32     1.352658863128   120.85575621     0.19603406
 C     37  14  29     1.404717053360   126.01551127   180.90772073
 C     15  14  13     1.366491126938    81.61824056   183.09049352
 C      2   1   3     4.249062720177   152.64508288   141.12337153
 C     41  15  14     1.459677704153   111.05201287   175.08990246
 C     42   2   1     2.412953791518    41.78584867   165.18670112
 C     44  42   2     1.403446472082    87.95153797   233.97558675
 C     45  44  42     1.381696421071   120.11137308     0.19721020
 C     42   2   1     2.450019795838   135.97209175    75.50155022
 C     43  41  15     1.354461516618   106.26758155     0.30894352
 C     15  14  13     1.367461151185   171.87382904   332.35056460
 C     42   2   1     1.381886391857    32.59078432   214.04198031
 C      9   2   1     1.404988612053   126.98745415   192.01090813
 N     42   2   1     1.352765315936   113.57249190   103.23813941
 H      1   2   3     1.082857793064   110.75064929   159.40304809
 H      2   1   3     1.079907866440   113.74082444   162.11302435
 H      4   3   1     1.083418663306   121.07659696   179.54555691
 H      5   4   3     1.081856275112   122.85981233   179.47985075
 H      6   5   4     1.092588669171   104.43295996   100.05919743
 H      6   5   4     1.089526961576    84.69707556   209.53895850
 H      6   5   4     1.089613693012   133.90297769   322.39735780
 H      7   2   1     1.079807853278   126.66122480    40.84917362
 H     10   1   2     1.083467119944   118.77800774    77.73917216
 H     12   9   2     1.016297692608   125.29023241   180.00180175
 H     14  13  12     1.014936943854    44.97226959   359.42596618
 H     18  14  13     1.082871645210   128.03556573   234.20482432
 H     19  17  13     1.080893611786   126.41830519   178.11313280
 H     21  20  18     1.083569563987   121.05669627   180.67006309
 H     22  21  20     1.082483256222   122.73097286   180.59748951
 H     23  18  14     1.092105306278   103.92715769   234.93429879
 H     23  18  14     1.088871893291   134.19244188    12.25587044
 H     23  18  14     1.089833473518    84.85857450   125.45241208
 H     24  19  17     1.080075460327   127.28078426   178.44613241
 H     26  18  14     1.083408048706   118.76995697   244.94906660
 H     30  14  13     1.082703098730   127.99711412   279.66882698
 H     31  29  14     1.079759695488   125.22293469   180.92530585
 H     33  32  30     1.083188810873   121.01964473   180.74284758
 H     34  33  32     1.082494341787   122.70821597   180.59516895
 H     35  34  33     1.092652735319   105.73575241    97.19771933
 H     35  34  33     1.089462711615    84.05943581   206.43036958
 H     35  34  33     1.089268102902   133.08365142   318.50306270
 H     36  31  29     1.079439669458   126.61599965   178.98859863
 H     38  30  73     1.083742127999   118.77264435   359.90091293
 H     42   2   1     1.082178358682   119.31790784   319.86966986
 H     43  41  15     1.080281907652   126.36969097   182.06329380
 H     45  44  42     1.083277434455   121.10105945   179.58025624
 H     46  45  44     1.082194529648   122.72144639   179.46906377
 H     47  42   2     1.091546151109   106.65128841   315.16475048
 H     47  42   2     1.088818625851   132.46019523    94.52397119
 H     47  42   2     1.089531091801    83.63838232   206.04504406
 H     48  43  41     1.080402239909   127.23657387   181.62955349
 H     50  42   2     1.083186502870   118.77001737    94.71359229

---------------------------
INTERNAL COORDINATES (A.U.)
---------------------------
 C      0   0   0     0.000000000000     0.00000000     0.00000000
 C      1   0   0    10.354894324799     0.00000000     0.00000000
 C      1   2   0     4.561097427134    48.39226498     0.00000000
 C      3   1   2     2.652165157589    87.92001475   224.94615755
 C      4   3   1     2.608178760459   120.17603487     0.12690958
 C      5   4   3     4.625714152729   152.49856618     1.63616239
 C      2   1   3     2.585360837309    15.97806413    16.06195615
 C      7   2   1     2.710026725231   108.05010202   220.61075984
 C      2   1   3     2.710100516721   120.08317410   331.32781442
 C      1   2   3     2.610855501985    32.70897026    40.85527786
 N      1   2   3     2.555514178242   122.42093807   303.21025941
 N      9   2   1     2.600503484979   106.58526707    11.00657060
 N     12   9   2     5.527566200405   168.53581413   171.12065651
 N     13  12   9     5.583221047236    91.55032014    11.12112580
 N     14  13  12     5.528150518591    88.43092389   359.84326247
 C      8   7   2     2.654668413270   127.24786865   181.11170171
 C     13  12   9     2.582376967257    81.72106996   188.00453233
 C     14  13  12    10.882574804710    80.56209567   166.76250791
 C     17  13  12     2.757130505230   111.08861209   183.82872609
 C     18  14  13     4.558465206823    27.27532823    36.33507194
 C     20  18  14     2.650705180609    87.95206320   148.94598259
 C     21  20  18     2.611803198586   120.14573887   359.70382047
 C     18  14  13     4.623235745386   144.15733107    82.80075377
 C     19  17  13     2.557953565794   106.29293361   359.75308708
 C     13  12   9     2.582903091751   172.21332906    33.46711076
 C     18  14  13     2.609636529225    15.08449437   309.23336894
 N     22  21  20     2.556370638369   120.73759875     0.27865223
 C     25  13  17     2.666210041769   125.60330303   182.37774668
 C     14  13  12     2.601476916169    80.24689249   177.85461986
 C     14  13  12    10.892550769017   164.51507311   312.20821879
 C     29  14  13     2.712892575415   106.58649366   178.76395472
 C     30  14  13     4.560507835333    27.10625047    82.12560436
 C     32  30  14     2.652673401891    87.90059683   149.76154742
 C     33  32  30     2.609133588376   120.14881443   359.74174632
 C     34  33  32     4.627519515267   152.49203239     2.45173620
 C     31  29  14     2.585449236669   108.16950133     0.70383075
 C     14  13  12     2.600716325456   169.26375223   353.09862627
 C     30  14  13     2.609536633043    14.68948582   353.70041132
 N     34  33  32     2.556154803934   120.85575621     0.19603406
 C     37  14  29     2.654530526499   126.01551127   180.90772073
 C     15  14  13     2.582293994346    81.61824056   183.09049352
 C      2   1   3     8.029564866989   152.64508288   141.12337153
 C     41  15  14     2.758391104639   111.05201287   175.08990246
 C     42   2   1     4.559821839776    41.78584867   165.18670112
 C     44  42   2     2.652129475853    87.95153797   233.97558675
 C     45  44  42     2.611027836043   120.11137308     0.19721020
 C     42   2   1     4.629866436820   135.97209175    75.50155022
 C     43  41  15     2.559561325344   106.26758155     0.30894352
 C     15  14  13     2.584127074516   171.87382904   332.35056460
 C     42   2   1     2.611386828803    32.59078432   214.04198031
 C      9   2   1     2.655043698059   126.98745415   192.01090813
 N     42   2   1     2.556355970587   113.57249190   103.23813941
 H      1   2   3     2.046304670874   110.75064929   159.40304809
 H      2   1   3     2.040730117440   113.74082444   162.11302435
 H      4   3   1     2.047364562028   121.07659696   179.54555691
 H      5   4   3     2.044412076227   122.85981233   179.47985075
 H      6   5   4     2.064693361758   104.43295996   100.05919743
 H      6   5   4     2.058907572901    84.69707556   209.53895850
 H      6   5   4     2.059071471564   133.90297769   322.39735780
 H      7   2   1     2.040541119952   126.66122480    40.84917362
 H     10   1   2     2.047456131803   118.77800774    77.73917216
 H     12   9   2     1.920524309565   125.29023241   180.00180175
 H     14  13  12     1.917952867083    44.97226959   359.42596618
 H     18  14  13     2.046330847636   128.03556573   234.20482432
 H     19  17  13     2.042592906181   126.41830519   178.11313280
 H     21  20  18     2.047649722989   121.05669627   180.67006309
 H     22  21  20     2.045596898814   122.73097286   180.59748951
 H     23  18  14     2.063779938267   103.92715769   234.93429879
 H     23  18  14     2.057669673245   134.19244188    12.25587044
 H     23  18  14     2.059486796529    84.85857450   125.45241208
 H     24  19  17     2.041046823986   127.28078426   178.44613241
 H     26  18  14     2.047344503340   118.76995697   244.94906660
 H     30  14  13     2.046012340948   127.99711412   279.66882698
 H     31  29  14     2.040450114918   125.22293469   180.92530585
 H     33  32  30     2.046930203877   121.01964473   180.74284758
 H     34  33  32     2.045617847496   122.70821597   180.59516895
 H     35  34  33     2.064814429233   105.73575241    97.19771933
 H     35  34  33     2.058786158072    84.05943581   206.43036958
 H     35  34  33     2.058418400901   133.08365142   318.50306270
 H     36  31  29     2.039845353366   126.61599965   178.98859863
 H     38  30  73     2.047975821711   118.77264435   359.90091293
 H     42   2   1     2.045020725966   119.31790784   319.86966986
 H     43  41  15     2.041436952892   126.36969097   182.06329380
 H     45  44  42     2.047097678177   121.10105945   179.58025624
 H     46  45  44     2.045051284662   122.72144639   179.46906377
 H     47  42   2     2.062723288131   106.65128841   315.16475048
 H     47  42   2     2.057569012371   132.46019523    94.52397119
 H     47  42   2     2.058915377895    83.63838232   206.04504406
 H     48  43  41     2.041664347903   127.23657387   181.62955349
 H     50  42   2     2.046925842384   118.77001737    94.71359229

---------------------
BASIS SET INFORMATION
---------------------
There are 3 groups of distinct atoms

 Group   1 Type C   : 17s4p1d contracted to 3s2p1d pattern {881/31/1}
 Group   2 Type N   : 17s4p1d contracted to 3s2p1d pattern {881/31/1}
 Group   3 Type H   : 4s1p contracted to 2s1p pattern {31/1}

Atom   0C    basis set group =>   1
Atom   1N    basis set group =>   2
Atom   2C    basis set group =>   1
Atom   3N    basis set group =>   2
Atom   4C    basis set group =>   1
Atom   5N    basis set group =>   2
Atom   6C    basis set group =>   1
Atom   7N    basis set group =>   2
Atom   8C    basis set group =>   1
Atom   9N    basis set group =>   2
Atom  10C    basis set group =>   1
Atom  11N    basis set group =>   2
Atom  12C    basis set group =>   1
Atom  13N    basis set group =>   2
Atom  14C    basis set group =>   1
Atom  15N    basis set group =>   2
Atom  16C    basis set group =>   1
Atom  17C    basis set group =>   1
Atom  18C    basis set group =>   1
Atom  19C    basis set group =>   1
Atom  20C    basis set group =>   1
Atom  21C    basis set group =>   1
Atom  22C    basis set group =>   1
Atom  23C    basis set group =>   1
Atom  24C    basis set group =>   1
Atom  25C    basis set group =>   1
Atom  26C    basis set group =>   1
Atom  27C    basis set group =>   1
Atom  28C    basis set group =>   1
Atom  29C    basis set group =>   1
Atom  30C    basis set group =>   1
Atom  31C    basis set group =>   1
Atom  32C    basis set group =>   1
Atom  33C    basis set group =>   1
Atom  34C    basis set group =>   1
Atom  35C    basis set group =>   1
Atom  36C    basis set group =>   1
Atom  37C    basis set group =>   1
Atom  38C    basis set group =>   1
Atom  39C    basis set group =>   1
Atom  40C    basis set group =>   1
Atom  41C    basis set group =>   1
Atom  42C    basis set group =>   1
Atom  43C    basis set group =>   1
Atom  44C    basis set group =>   1
Atom  45C    basis set group =>   1
Atom  46C    basis set group =>   1
Atom  47C    basis set group =>   1
Atom  48C    basis set group =>   1
Atom  49C    basis set group =>   1
Atom  50C    basis set group =>   1
Atom  51C    basis set group =>   1
Atom  52H    basis set group =>   3
Atom  53H    basis set group =>   3
Atom  54H    basis set group =>   3
Atom  55H    basis set group =>   3
Atom  56H    basis set group =>   3
Atom  57H    basis set group =>   3
Atom  58H    basis set group =>   3
Atom  59H    basis set group =>   3
Atom  60H    basis set group =>   3
Atom  61H    basis set group =>   3
Atom  62H    basis set group =>   3
Atom  63H    basis set group =>   3
Atom  64H    basis set group =>   3
Atom  65H    basis set group =>   3
Atom  66H    basis set group =>   3
Atom  67H    basis set group =>   3
Atom  68H    basis set group =>   3
Atom  69H    basis set group =>   3
Atom  70H    basis set group =>   3
Atom  71H    basis set group =>   3
Atom  72H    basis set group =>   3
Atom  73H    basis set group =>   3
Atom  74H    basis set group =>   3
Atom  75H    basis set group =>   3
Atom  76H    basis set group =>   3
Atom  77H    basis set group =>   3
Atom  78H    basis set group =>   3
Atom  79H    basis set group =>   3
Atom  80H    basis set group =>   3
Atom  81H    basis set group =>   3
Atom  82H    basis set group =>   3
Atom  83H    basis set group =>   3
Atom  84H    basis set group =>   3
Atom  85H    basis set group =>   3
Atom  86H    basis set group =>   3
Atom  87H    basis set group =>   3
Atom  88H    basis set group =>   3
Atom  89H    basis set group =>   3


           ************************************************************
           *        Program running with 8 parallel MPI-processes     *
           *              working on a common directory               *
           ************************************************************
------------------------------------------------------------------------------
                           ORCA GTO INTEGRAL CALCULATION
------------------------------------------------------------------------------
------------------------------------------------------------------------------
                   ___                                                        
                  /   \      - P O W E R E D   B Y -                         
                 /     \                                                     
                 |  |  |   _    _      __       _____    __    __             
                 |  |  |  | |  | |    /  \     |  _  \  |  |  /  |          
                  \  \/   | |  | |   /    \    | | | |  |  | /  /          
                 / \  \   | |__| |  /  /\  \   | |_| |  |  |/  /          
                |  |  |   |  __  | /  /__\  \  |    /   |      \           
                |  |  |   | |  | | |   __   |  |    \   |  |\   \          
                \     /   | |  | | |  |  |  |  | |\  \  |  | \   \       
                 \___/    |_|  |_| |__|  |__|  |_| \__\ |__|  \__/        
                                                                              
                      - O R C A' S   B I G   F R I E N D -                    
                                      &                                       
                       - I N T E G R A L  F E E D E R -                       
                                                                              
 v1 FN, 2020, v2 2021                                                         
------------------------------------------------------------------------------


Reading SHARK input file /scratch/chu_02/allen/tmpyp4_amber_gaff2/conf1/conf1/Conf305.orca.SHARKINP.tmp ... ok
----------------------
SHARK INTEGRAL PACKAGE
----------------------

Number of atoms                             ...     90
Number of basis functions                   ...   1230
Number of shells                            ...    738
Maximum angular momentum                    ...      2
Integral batch strategy                     ... SHARK/LIBINT Hybrid
RI-J (if used) integral strategy            ... SPLIT-RIJ (Revised 2003 algorithm where possible)
Printlevel                                  ...      1
Contraction scheme used                     ... PARTIAL GENERAL contraction
Coulomb Range Separation                    ... NOT USED
Exchange Range Separation                   ... NOT USED
Finite Nucleus Model                        ... NOT USED
Auxiliary Coulomb fitting basis             ... NOT available
Auxiliary J/K fitting basis                 ... NOT available
Auxiliary Correlation fitting basis         ... NOT available
Auxiliary 'external' fitting basis          ... NOT available
Integral threshold                          ...     2.500000e-11
Primitive cut-off                           ...     2.500000e-12
Primitive pair pre-selection threshold      ...     2.500000e-12

Calculating pre-screening integrals         ... done (  0.1 sec) Dimension = 738
Calculating pre-screening integrals (ORCA)  ... done (  0.3 sec) Dimension = 426
Organizing shell pair data                  ... done (  0.5 sec)
Shell pair information
Total number of shell pairs                 ...    272691
Shell pairs after pre-screening             ...     71581
Total number of primitive shell pairs       ...    422091
Primitive shell pairs kept                  ...     92335
          la=0 lb=0:  29405 shell pairs
          la=1 lb=0:  25954 shell pairs
          la=1 lb=1:   4698 shell pairs
          la=2 lb=0:   7869 shell pairs
          la=2 lb=1:   3124 shell pairs
          la=2 lb=2:    531 shell pairs

Calculating one electron integrals          ... done (  0.2 sec)
Calculating Nuclear repulsion               ... done (  0.0 sec) ENN=   6225.345499992093 Eh

SHARK setup successfully completed in   1.6 seconds

Maximum memory used throughout the entire GTOINT-calculation: 98.9 MB


           ************************************************************
           *        Program running with 8 parallel MPI-processes     *
           *              working on a common directory               *
           ************************************************************
-------------------------------------------------------------------------------
                                 ORCA SCF
-------------------------------------------------------------------------------

------------
SCF SETTINGS
------------
Hamiltonian:
 Ab initio Hamiltonian  Method          .... Hartree-Fock(GTOs)


General Settings:
 Integral files         IntName         .... /scratch/chu_02/allen/tmpyp4_amber_gaff2/conf1/conf1/Conf305.orca
 Hartree-Fock type      HFTyp           .... RHF
 Total Charge           Charge          ....    0
 Multiplicity           Mult            ....    1
 Number of Electrons    NEL             ....  358
 Basis Dimension        Dim             ....  918
 Nuclear Repulsion      ENuc            ....   6225.3454999921 Eh

Convergence Acceleration:
 DIIS                   CNVDIIS         .... on
   Start iteration      DIISMaxIt       ....    12
   Startup error        DIISStart       ....  0.200000
   # of expansion vecs  DIISMaxEq       ....     5
   Bias factor          DIISBfac        ....   1.050
   Max. coefficient     DIISMaxC        ....  10.000
 Trust-Rad. Augm. Hess. CNVTRAH         .... auto
   Auto Start mean grad. ratio tolernc. ....  1.125000
   Auto Start start iteration           ....    20
   Auto Start num. interpolation iter.  ....    10
   Max. Number of Micro iterations      ....    16
   Max. Number of Macro iterations      .... Maxiter - #DIIS iter
   Number of Davidson start vectors     ....     2
   Converg. threshold I  (grad. norm)   ....   1.000e-05
   Converg. threshold II (energy diff.) ....   1.000e-08
   Grad. Scal. Fac. for Micro threshold ....   0.100
   Minimum threshold for Micro iter.    ....   0.010
   NR start threshold (gradient norm)   ....   0.001
   Initial trust radius                 ....   0.400
   Minimum AH scaling param. (alpha)    ....   1.000
   Maximum AH scaling param. (alpha)    .... 1000.000
   Orbital update algorithm             .... Taylor
   White noise on init. David. guess    .... on
   Maximum white noise                  ....   0.010
   Quad. conv. algorithm                .... NR
 SOSCF                  CNVSOSCF        .... on
   Start iteration      SOSCFMaxIt      ....   150
   Startup grad/error   SOSCFStart      ....  0.003300
 Level Shifting         CNVShift        .... on
   Level shift para.    LevelShift      ....    0.2500
   Turn off err/grad.   ShiftErr        ....    0.0010
 Zerner damping         CNVZerner       .... off
 Static damping         CNVDamp         .... on
   Fraction old density DampFac         ....    0.7000
   Max. Damping (<1)    DampMax         ....    0.9800
   Min. Damping (>=0)   DampMin         ....    0.0000
   Turn off err/grad.   DampErr         ....    0.1000
 Fernandez-Rico         CNVRico         .... off

SCF Procedure:
 Maximum # iterations   MaxIter         ....   125
 SCF integral mode      SCFMode         .... Direct
   Integral package                     .... SHARK and LIBINT hybrid scheme
 Reset frequency        DirectResetFreq ....    20
 Integral Threshold     Thresh          ....  2.500e-11 Eh
 Primitive CutOff       TCut            ....  2.500e-12 Eh

Convergence Tolerance:
 Convergence Check Mode ConvCheckMode   .... Total+1el-Energy
 Convergence forced     ConvForced      .... 1
 Energy Change          TolE            ....  1.000e-08 Eh
 1-El. energy change                    ....  1.000e-05 Eh
 Orbital Gradient       TolG            ....  1.000e-05
 Orbital Rotation angle TolX            ....  1.000e-05
 DIIS Error             TolErr          ....  5.000e-07


Diagonalization of the overlap matrix:
Smallest eigenvalue                        ... 2.253e-04
Time for diagonalization                   ...    0.214 sec
Threshold for overlap eigenvalues          ... 1.000e-08
Number of eigenvalues below threshold      ... 0
Time for construction of square roots      ...    0.127 sec
Total time needed                          ...    0.346 sec

Time for model grid setup =    1.415 sec

------------------------------
INITIAL GUESS: MODEL POTENTIAL
------------------------------
Loading Hartree-Fock densities                     ... done
Calculating cut-offs                               ... done
Initializing the effective Hamiltonian             ... done
Setting up the integral package (SHARK)            ... done
Starting the Coulomb interaction                   ... done (   1.6 sec)
Reading the grid                                   ... done
Mapping shells                                     ... done
Starting the XC term evaluation                    ... done (   0.3 sec)
Transforming the Hamiltonian                       ... done (   0.1 sec)
Diagonalizing the Hamiltonian                      ... done (   0.2 sec)
Back transforming the eigenvectors                 ... done (   0.0 sec)
Now organizing SCF variables                       ... done
                      ------------------
                      INITIAL GUESS DONE (   3.8 sec)
                      ------------------
--------------
SCF ITERATIONS
--------------
ITER       Energy         Delta-E        Max-DP      RMS-DP      [F,P]     Damp
               ***  Starting incremental Fock matrix formation  ***
  0  -2121.6789604695   0.000000000000 0.06896523  0.00120804  0.2328926 0.7000
  1  -2122.3432130449  -0.664252575418 0.05232200  0.00097993  0.1441168 0.7000
                               ***Turning on DIIS***
  2  -2122.7556754009  -0.412462355998 0.11594863  0.00222016  0.0802504 0.0000
  3  -2117.7552674959   5.000407905050 0.03023362  0.00067944  0.0442336 0.0000
  4  -2123.4190418959  -5.663774400033 0.00875149  0.00022771  0.0070858 0.0000
  5  -2123.5963992560  -0.177357360128 0.00508442  0.00013457  0.0049340 0.0000
  6  -2123.5787670614   0.017632194626 0.00334498  0.00008734  0.0019204 0.0000
  7  -2123.6827196269  -0.103952565536 0.00282156  0.00006900  0.0014981 0.0000
  8  -2123.7004078072  -0.017688180311 0.00286258  0.00006492  0.0013925 0.0000
  9  -2123.6650476793   0.035360127918 0.00231415  0.00004442  0.0010957 0.0000
 10  -2123.6787609804  -0.013713301083 0.00480262  0.00008745  0.0008332 0.0000
                      *** Initiating the SOSCF procedure ***
                           *** Shutting down DIIS ***
                      *** Re-Reading the Fockian *** 
                      *** Removing any level shift *** 
ITER      Energy       Delta-E        Grad      Rot      Max-DP    RMS-DP
 11  -2123.56279731   0.1159636738  0.000303  0.000303  0.000291  0.000007
               *** Restarting incremental Fock matrix formation ***
 12  -2123.62717658  -0.0643792687  0.000895  0.006055  0.001071  0.000027
 13  -2123.62723981  -0.0000632337  0.000950  0.024326  0.004603  0.000087
 14  -2123.62731767  -0.0000778610  0.000448  0.002273  0.000496  0.000011
 15  -2123.62732902  -0.0000113460  0.000151  0.002110  0.000558  0.000009
 16  -2123.62733355  -0.0000045300  0.000100  0.003367  0.000701  0.000013
 17  -2123.62733682  -0.0000032709  0.000133  0.003072  0.000490  0.000009
 18  -2123.62733832  -0.0000015046  0.000060  0.001582  0.000243  0.000006
 19  -2123.62733927  -0.0000009519  0.000059  0.000801  0.000164  0.000003
 20  -2123.62733962  -0.0000003470  0.000028  0.000513  0.000116  0.000002
 21  -2123.62733972  -0.0000000962  0.000023  0.000194  0.000046  0.000001
 22  -2123.62733979  -0.0000000736  0.000016  0.000368  0.000071  0.000001
 23  -2123.62733984  -0.0000000536  0.000011  0.000205  0.000053  0.000001
 24  -2123.62733986  -0.0000000197  0.000004  0.000112  0.000027  0.000000
 25  -2123.62733987  -0.0000000053  0.000003  0.000029  0.000015  0.000000
                  ***Gradient check signals convergence***
              ***Rediagonalizing the Fockian in SOSCF/NRSCF***

               *****************************************************
               *                     SUCCESS                       *
               *           SCF CONVERGED AFTER  26 CYCLES          *
               *****************************************************


----------------
TOTAL SCF ENERGY
----------------

Total Energy       :        -2123.62733987 Eh          -57786.83774 eV

Components:
Nuclear Repulsion  :         6225.34549999 Eh          169400.26320 eV
Electronic Energy  :        -8348.97283987 Eh         -227187.10094 eV
One Electron Energy:       -15291.82337539 Eh         -416111.66875 eV
Two Electron Energy:         6942.85053553 Eh          188924.56781 eV

Virial components:
Potential Energy   :        -4245.62775492 Eh         -115529.40461 eV
Kinetic Energy     :         2122.00041505 Eh           57742.56687 eV
Virial Ratio       :            2.00076669


---------------
SCF CONVERGENCE
---------------

  Last Energy change         ...   -4.4638e-09  Tolerance :   1.0000e-08
  Last MAX-Density change    ...    8.6826e-06  Tolerance :   1.0000e-07
  Last RMS-Density change    ...    1.0924e-07  Tolerance :   5.0000e-09
  Last Orbital Gradient      ...    1.9344e-06  Tolerance :   1.0000e-05
  Last Orbital Rotation      ...    2.1442e-05  Tolerance :   1.0000e-05

             **** THE GBW FILE WAS UPDATED (/scratch/chu_02/allen/tmpyp4_amber_gaff2/conf1/conf1/Conf305.orca.gbw) ****
             **** DENSITY /scratch/chu_02/allen/tmpyp4_amber_gaff2/conf1/conf1/Conf305.orca.scfp WAS UPDATED ****
             **** ENERGY FILE WAS UPDATED (/scratch/chu_02/allen/tmpyp4_amber_gaff2/conf1/conf1/Conf305.orca.en.tmp) ****
             **** THE GBW FILE WAS UPDATED (/scratch/chu_02/allen/tmpyp4_amber_gaff2/conf1/conf1/Conf305.orca.gbw) ****
             **** DENSITY /scratch/chu_02/allen/tmpyp4_amber_gaff2/conf1/conf1/Conf305.orca.scfp WAS UPDATED ****
----------------
ORBITAL ENERGIES
----------------

  NO   OCC          E(Eh)            E(eV) 
   0   2.0000     -15.645259      -425.7292 
   1   2.0000     -15.639497      -425.5724 
   2   2.0000     -15.628767      -425.2804 
   3   2.0000     -15.617216      -424.9661 
   4   2.0000     -15.520065      -422.3224 
   5   2.0000     -15.515517      -422.1987 
   6   2.0000     -15.445298      -420.2879 
   7   2.0000     -15.443981      -420.2521 
   8   2.0000     -11.306500      -307.6655 
   9   2.0000     -11.302675      -307.5614 
  10   2.0000     -11.301093      -307.5184 
  11   2.0000     -11.298490      -307.4475 
  12   2.0000     -11.296070      -307.3817 
  13   2.0000     -11.295372      -307.3627 
  14   2.0000     -11.293627      -307.3152 
  15   2.0000     -11.289540      -307.2040 
  16   2.0000     -11.286309      -307.1161 
  17   2.0000     -11.285218      -307.0864 
  18   2.0000     -11.278065      -306.8918 
  19   2.0000     -11.276492      -306.8489 
  20   2.0000     -11.249370      -306.1109 
  21   2.0000     -11.242889      -305.9346 
  22   2.0000     -11.238786      -305.8229 
  23   2.0000     -11.237902      -305.7989 
  24   2.0000     -11.234752      -305.7131 
  25   2.0000     -11.234137      -305.6964 
  26   2.0000     -11.233165      -305.6700 
  27   2.0000     -11.226742      -305.4952 
  28   2.0000     -11.226607      -305.4915 
  29   2.0000     -11.224533      -305.4351 
  30   2.0000     -11.218467      -305.2700 
  31   2.0000     -11.218264      -305.2645 
  32   2.0000     -11.202413      -304.8331 
  33   2.0000     -11.201796      -304.8164 
  34   2.0000     -11.193152      -304.5811 
  35   2.0000     -11.192757      -304.5704 
  36   2.0000     -11.175067      -304.0890 
  37   2.0000     -11.173340      -304.0421 
  38   2.0000     -11.173318      -304.0414 
  39   2.0000     -11.172744      -304.0258 
  40   2.0000     -11.168884      -303.9208 
  41   2.0000     -11.168342      -303.9060 
  42   2.0000     -11.166837      -303.8651 
  43   2.0000     -11.165080      -303.8173 
  44   2.0000     -11.162318      -303.7421 
  45   2.0000     -11.160906      -303.7037 
  46   2.0000     -11.151724      -303.4538 
  47   2.0000     -11.149704      -303.3989 
  48   2.0000     -11.145509      -303.2847 
  49   2.0000     -11.143064      -303.2182 
  50   2.0000     -11.140682      -303.1534 
  51   2.0000     -11.137644      -303.0707 
  52   2.0000      -1.330907       -36.2158 
  53   2.0000      -1.325909       -36.0798 
  54   2.0000      -1.316662       -35.8282 
  55   2.0000      -1.307374       -35.5755 
  56   2.0000      -1.219200       -33.1761 
  57   2.0000      -1.212042       -32.9813 
  58   2.0000      -1.162326       -31.6285 
  59   2.0000      -1.156912       -31.4812 
  60   2.0000      -1.118786       -30.4437 
  61   2.0000      -1.113730       -30.3061 
  62   2.0000      -1.105779       -30.0898 
  63   2.0000      -1.098420       -29.8895 
  64   2.0000      -1.054612       -28.6974 
  65   2.0000      -1.049740       -28.5649 
  66   2.0000      -1.041252       -28.3339 
  67   2.0000      -1.033238       -28.1158 
  68   2.0000      -1.027634       -27.9633 
  69   2.0000      -1.010686       -27.5022 
  70   2.0000      -1.009376       -27.4665 
  71   2.0000      -0.996865       -27.1261 
  72   2.0000      -0.983535       -26.7634 
  73   2.0000      -0.975050       -26.5325 
  74   2.0000      -0.970329       -26.4040 
  75   2.0000      -0.959416       -26.1070 
  76   2.0000      -0.952327       -25.9141 
  77   2.0000      -0.943622       -25.6773 
  78   2.0000      -0.939794       -25.5731 
  79   2.0000      -0.923198       -25.1215 
  80   2.0000      -0.893676       -24.3182 
  81   2.0000      -0.880839       -23.9689 
  82   2.0000      -0.876360       -23.8470 
  83   2.0000      -0.868675       -23.6378 
  84   2.0000      -0.862772       -23.4772 
  85   2.0000      -0.856795       -23.3146 
  86   2.0000      -0.848361       -23.0851 
  87   2.0000      -0.843186       -22.9443 
  88   2.0000      -0.821725       -22.3603 
  89   2.0000      -0.798609       -21.7313 
  90   2.0000      -0.797516       -21.7015 
  91   2.0000      -0.739725       -20.1289 
  92   2.0000      -0.730904       -19.8889 
  93   2.0000      -0.729520       -19.8512 
  94   2.0000      -0.721238       -19.6259 
  95   2.0000      -0.719807       -19.5869 
  96   2.0000      -0.712243       -19.3811 
  97   2.0000      -0.708133       -19.2693 
  98   2.0000      -0.699013       -19.0211 
  99   2.0000      -0.693366       -18.8674 
 100   2.0000      -0.685703       -18.6589 
 101   2.0000      -0.680812       -18.5258 
 102   2.0000      -0.679432       -18.4883 
 103   2.0000      -0.673230       -18.3195 
 104   2.0000      -0.668623       -18.1942 
 105   2.0000      -0.665658       -18.1135 
 106   2.0000      -0.662199       -18.0194 
 107   2.0000      -0.661378       -17.9970 
 108   2.0000      -0.657662       -17.8959 
 109   2.0000      -0.656450       -17.8629 
 110   2.0000      -0.652137       -17.7455 
 111   2.0000      -0.650111       -17.6904 
 112   2.0000      -0.646588       -17.5946 
 113   2.0000      -0.641932       -17.4679 
 114   2.0000      -0.635035       -17.2802 
 115   2.0000      -0.622837       -16.9483 
 116   2.0000      -0.620883       -16.8951 
 117   2.0000      -0.616499       -16.7758 
 118   2.0000      -0.610956       -16.6250 
 119   2.0000      -0.609320       -16.5804 
 120   2.0000      -0.608341       -16.5538 
 121   2.0000      -0.603709       -16.4277 
 122   2.0000      -0.600618       -16.3437 
 123   2.0000      -0.592895       -16.1335 
 124   2.0000      -0.589193       -16.0328 
 125   2.0000      -0.585183       -15.9237 
 126   2.0000      -0.578363       -15.7380 
 127   2.0000      -0.573086       -15.5945 
 128   2.0000      -0.570771       -15.5315 
 129   2.0000      -0.560485       -15.2516 
 130   2.0000      -0.553845       -15.0709 
 131   2.0000      -0.544941       -14.8286 
 132   2.0000      -0.541579       -14.7371 
 133   2.0000      -0.535664       -14.5762 
 134   2.0000      -0.533876       -14.5275 
 135   2.0000      -0.529504       -14.4085 
 136   2.0000      -0.524598       -14.2750 
 137   2.0000      -0.522528       -14.2187 
 138   2.0000      -0.519225       -14.1288 
 139   2.0000      -0.517005       -14.0684 
 140   2.0000      -0.509504       -13.8643 
 141   2.0000      -0.505617       -13.7585 
 142   2.0000      -0.504669       -13.7327 
 143   2.0000      -0.502437       -13.6720 
 144   2.0000      -0.499743       -13.5987 
 145   2.0000      -0.498335       -13.5604 
 146   2.0000      -0.495736       -13.4897 
 147   2.0000      -0.492644       -13.4055 
 148   2.0000      -0.490433       -13.3454 
 149   2.0000      -0.469052       -12.7636 
 150   2.0000      -0.460751       -12.5377 
 151   2.0000      -0.451802       -12.2942 
 152   2.0000      -0.448443       -12.2028 
 153   2.0000      -0.446167       -12.1408 
 154   2.0000      -0.445507       -12.1229 
 155   2.0000      -0.439243       -11.9524 
 156   2.0000      -0.435391       -11.8476 
 157   2.0000      -0.431691       -11.7469 
 158   2.0000      -0.392136       -10.6706 
 159   2.0000      -0.382311       -10.4032 
 160   2.0000      -0.379756       -10.3337 
 161   2.0000      -0.372384       -10.1331 
 162   2.0000      -0.364311        -9.9134 
 163   2.0000      -0.360060        -9.7977 
 164   2.0000      -0.352941        -9.6040 
 165   2.0000      -0.345793        -9.4095 
 166   2.0000      -0.337242        -9.1768 
 167   2.0000      -0.332884        -9.0582 
 168   2.0000      -0.329437        -8.9644 
 169   2.0000      -0.300180        -8.1683 
 170   2.0000      -0.296953        -8.0805 
 171   2.0000      -0.288449        -7.8491 
 172   2.0000      -0.287116        -7.8128 
 173   2.0000      -0.255341        -6.9482 
 174   2.0000      -0.247940        -6.7468 
 175   2.0000      -0.188290        -5.1236 
 176   2.0000      -0.178196        -4.8490 
 177   2.0000      -0.067210        -1.8289 
 178   2.0000      -0.055140        -1.5004 
 179   0.0000       0.030571         0.8319 
 180   0.0000       0.070337         1.9140 
 181   0.0000       0.093037         2.5317 
 182   0.0000       0.098288         2.6746 
 183   0.0000       0.129879         3.5342 
 184   0.0000       0.133820         3.6414 
 185   0.0000       0.141739         3.8569 
 186   0.0000       0.149613         4.0712 
 187   0.0000       0.159017         4.3271 
 188   0.0000       0.161483         4.3942 
 189   0.0000       0.162383         4.4187 
 190   0.0000       0.167800         4.5661 
 191   0.0000       0.173155         4.7118 
 192   0.0000       0.198806         5.4098 
 193   0.0000       0.201878         5.4934 
 194   0.0000       0.202196         5.5020 
 195   0.0000       0.205644         5.5959 
 196   0.0000       0.207920         5.6578 
 197   0.0000       0.210982         5.7411 
 198   0.0000       0.212800         5.7906 
 199   0.0000       0.217369         5.9149 
 200   0.0000       0.233325         6.3491 
 201   0.0000       0.237188         6.4542 
 202   0.0000       0.241976         6.5845 
 203   0.0000       0.247642         6.7387 
 204   0.0000       0.251109         6.8330 
 205   0.0000       0.254131         6.9153 
 206   0.0000       0.257374         7.0035 
 207   0.0000       0.258933         7.0459 
 208   0.0000       0.262797         7.1511 
 209   0.0000       0.263867         7.1802 
 210   0.0000       0.268032         7.2935 
 211   0.0000       0.269522         7.3341 
 212   0.0000       0.272175         7.4063 
 213   0.0000       0.275743         7.5034 
 214   0.0000       0.278417         7.5761 
 215   0.0000       0.280437         7.6311 
 216   0.0000       0.280980         7.6459 
 217   0.0000       0.282309         7.6820 
 218   0.0000       0.284937         7.7535 
 219   0.0000       0.289278         7.8716 
 220   0.0000       0.290563         7.9066 
 221   0.0000       0.291970         7.9449 
 222   0.0000       0.293215         7.9788 
 223   0.0000       0.294845         8.0231 
 224   0.0000       0.299122         8.1395 
 225   0.0000       0.301766         8.2115 
 226   0.0000       0.303596         8.2613 
 227   0.0000       0.306377         8.3369 
 228   0.0000       0.307133         8.3575 
 229   0.0000       0.307908         8.3786 
 230   0.0000       0.314826         8.5669 
 231   0.0000       0.317978         8.6526 
 232   0.0000       0.325561         8.8590 
 233   0.0000       0.327502         8.9118 
 234   0.0000       0.332340         9.0434 
 235   0.0000       0.336705         9.1622 
 236   0.0000       0.355845         9.6830 
 237   0.0000       0.386493        10.5170 
 238   0.0000       0.395506        10.7623 
 239   0.0000       0.400245        10.8912 
 240   0.0000       0.406230        11.0541 
 241   0.0000       0.409849        11.1526 
 242   0.0000       0.422346        11.4926 
 243   0.0000       0.423367        11.5204 
 244   0.0000       0.431754        11.7486 
 245   0.0000       0.432922        11.7804 
 246   0.0000       0.433867        11.8061 
 247   0.0000       0.438020        11.9191 
 248   0.0000       0.440225        11.9791 
 249   0.0000       0.444019        12.0824 
 250   0.0000       0.446053        12.1377 
 251   0.0000       0.451313        12.2809 
 252   0.0000       0.455593        12.3973 
 253   0.0000       0.466599        12.6968 
 254   0.0000       0.470884        12.8134 
 255   0.0000       0.474968        12.9245 
 256   0.0000       0.482195        13.1212 
 257   0.0000       0.486307        13.2331 
 258   0.0000       0.491215        13.3666 
 259   0.0000       0.496712        13.5162 
 260   0.0000       0.500846        13.6287 
 261   0.0000       0.502580        13.6759 
 262   0.0000       0.506958        13.7950 
 263   0.0000       0.509965        13.8768 
 264   0.0000       0.511479        13.9181 
 265   0.0000       0.515015        14.0143 
 266   0.0000       0.517089        14.0707 
 267   0.0000       0.521786        14.1985 
 268   0.0000       0.536116        14.5885 
 269   0.0000       0.537915        14.6374 
 270   0.0000       0.541256        14.7283 
 271   0.0000       0.545209        14.8359 
 272   0.0000       0.546729        14.8773 
 273   0.0000       0.553413        15.0591 
 274   0.0000       0.560320        15.2471 
 275   0.0000       0.564172        15.3519 
 276   0.0000       0.573281        15.5998 
 277   0.0000       0.577693        15.7198 
 278   0.0000       0.580609        15.7992 
 279   0.0000       0.585337        15.9278 
 280   0.0000       0.588040        16.0014 
 281   0.0000       0.590847        16.0778 
 282   0.0000       0.594222        16.1696 
 283   0.0000       0.596913        16.2428 
 284   0.0000       0.600324        16.3357 
 285   0.0000       0.601501        16.3677 
 286   0.0000       0.604628        16.4528 
 287   0.0000       0.608733        16.5645 
 288   0.0000       0.610950        16.6248 
 289   0.0000       0.616109        16.7652 
 290   0.0000       0.618175        16.8214 
 291   0.0000       0.627636        17.0788 
 292   0.0000       0.639212        17.3938 
 293   0.0000       0.639529        17.4025 
 294   0.0000       0.643491        17.5103 
 295   0.0000       0.650770        17.7083 
 296   0.0000       0.657304        17.8862 
 297   0.0000       0.659378        17.9426 
 298   0.0000       0.660903        17.9841 
 299   0.0000       0.663272        18.0485 
 300   0.0000       0.671503        18.2725 
 301   0.0000       0.672106        18.2889 
 302   0.0000       0.679184        18.4815 
 303   0.0000       0.682068        18.5600 
 304   0.0000       0.683241        18.5919 
 305   0.0000       0.685162        18.6442 
 306   0.0000       0.690293        18.7838 
 307   0.0000       0.693711        18.8768 
 308   0.0000       0.697549        18.9813 
 309   0.0000       0.701691        19.0940 
 310   0.0000       0.703750        19.1500 
 311   0.0000       0.705647        19.2016 
 312   0.0000       0.706746        19.2315 
 313   0.0000       0.708075        19.2677 
 314   0.0000       0.713183        19.4067 
 315   0.0000       0.713666        19.4198 
 316   0.0000       0.715455        19.4685 
 317   0.0000       0.718153        19.5419 
 318   0.0000       0.719645        19.5825 
 319   0.0000       0.722171        19.6513 
 320   0.0000       0.726715        19.7749 
 321   0.0000       0.728405        19.8209 
 322   0.0000       0.731347        19.9010 
 323   0.0000       0.733444        19.9580 
 324   0.0000       0.739303        20.1175 
 325   0.0000       0.742558        20.2060 
 326   0.0000       0.744948        20.2711 
 327   0.0000       0.745986        20.2993 
 328   0.0000       0.746825        20.3221 
 329   0.0000       0.748820        20.3764 
 330   0.0000       0.752631        20.4801 
 331   0.0000       0.754822        20.5398 
 332   0.0000       0.756380        20.5822 
 333   0.0000       0.762122        20.7384 
 334   0.0000       0.763945        20.7880 
 335   0.0000       0.771710        20.9993 
 336   0.0000       0.775133        21.0924 
 337   0.0000       0.780852        21.2481 
 338   0.0000       0.785289        21.3688 
 339   0.0000       0.785639        21.3783 
 340   0.0000       0.790825        21.5194 
 341   0.0000       0.793150        21.5827 
 342   0.0000       0.796702        21.6794 
 343   0.0000       0.799891        21.7662 
 344   0.0000       0.803422        21.8622 
 345   0.0000       0.807610        21.9762 
 346   0.0000       0.810727        22.0610 
 347   0.0000       0.812088        22.0980 
 348   0.0000       0.813270        22.1302 
 349   0.0000       0.817082        22.2339 
 350   0.0000       0.819020        22.2867 
 351   0.0000       0.823707        22.4142 
 352   0.0000       0.825483        22.4625 
 353   0.0000       0.827059        22.5054 
 354   0.0000       0.830264        22.5926 
 355   0.0000       0.832343        22.6492 
 356   0.0000       0.834195        22.6996 
 357   0.0000       0.835672        22.7398 
 358   0.0000       0.838021        22.8037 
 359   0.0000       0.838196        22.8085 
 360   0.0000       0.840123        22.8609 
 361   0.0000       0.841528        22.8992 
 362   0.0000       0.842021        22.9126 
 363   0.0000       0.845027        22.9943 
 364   0.0000       0.846646        23.0384 
 365   0.0000       0.848390        23.0859 
 366   0.0000       0.850201        23.1351 
 367   0.0000       0.854357        23.2482 
 368   0.0000       0.859490        23.3879 
 369   0.0000       0.861628        23.4461 
 370   0.0000       0.865697        23.5568 
 371   0.0000       0.866976        23.5916 
 372   0.0000       0.871789        23.7226 
 373   0.0000       0.877336        23.8735 
 374   0.0000       0.879164        23.9233 
 375   0.0000       0.880413        23.9573 
 376   0.0000       0.884601        24.0712 
 377   0.0000       0.889086        24.1933 
 378   0.0000       0.894920        24.3520 
 379   0.0000       0.895386        24.3647 
 380   0.0000       0.899332        24.4721 
 381   0.0000       0.900578        24.5060 
 382   0.0000       0.903770        24.5928 
 383   0.0000       0.904308        24.6075 
 384   0.0000       0.904608        24.6156 
 385   0.0000       0.906678        24.6720 
 386   0.0000       0.908961        24.7341 
 387   0.0000       0.910618        24.7792 
 388   0.0000       0.913226        24.8501 
 389   0.0000       0.915487        24.9117 
 390   0.0000       0.916495        24.9391 
 391   0.0000       0.919761        25.0280 
 392   0.0000       0.922979        25.1155 
 393   0.0000       0.926126        25.2012 
 394   0.0000       0.926481        25.2108 
 395   0.0000       0.931353        25.3434 
 396   0.0000       0.933325        25.3971 
 397   0.0000       0.937086        25.4994 
 398   0.0000       0.937746        25.5174 
 399   0.0000       0.941800        25.6277 
 400   0.0000       0.942124        25.6365 
 401   0.0000       0.945544        25.7296 
 402   0.0000       0.949078        25.8257 
 403   0.0000       0.951481        25.8911 
 404   0.0000       0.953361        25.9423 
 405   0.0000       0.957023        26.0419 
 406   0.0000       0.958614        26.0852 
 407   0.0000       0.962981        26.2040 
 408   0.0000       0.966783        26.3075 
 409   0.0000       0.970170        26.3997 
 410   0.0000       0.973487        26.4899 
 411   0.0000       0.975695        26.5500 
 412   0.0000       0.982790        26.7431 
 413   0.0000       0.985441        26.8152 
 414   0.0000       0.989112        26.9151 
 415   0.0000       0.989779        26.9333 
 416   0.0000       1.000038        27.2124 
 417   0.0000       1.000435        27.2232 
 418   0.0000       1.007679        27.4203 
 419   0.0000       1.014291        27.6003 
 420   0.0000       1.023890        27.8615 
 421   0.0000       1.025436        27.9035 
 422   0.0000       1.032303        28.0904 
 423   0.0000       1.038889        28.2696 
 424   0.0000       1.045448        28.4481 
 425   0.0000       1.048641        28.5350 
 426   0.0000       1.052444        28.6385 
 427   0.0000       1.062742        28.9187 
 428   0.0000       1.064805        28.9748 
 429   0.0000       1.073138        29.2016 
 430   0.0000       1.077165        29.3111 
 431   0.0000       1.080103        29.3911 
 432   0.0000       1.085869        29.5480 
 433   0.0000       1.090191        29.6656 
 434   0.0000       1.095478        29.8095 
 435   0.0000       1.105562        30.0839 
 436   0.0000       1.108444        30.1623 
 437   0.0000       1.110112        30.2077 
 438   0.0000       1.116071        30.3698 
 439   0.0000       1.118873        30.4461 
 440   0.0000       1.120139        30.4805 
 441   0.0000       1.124938        30.6111 
 442   0.0000       1.130355        30.7585 
 443   0.0000       1.131250        30.7829 
 444   0.0000       1.133832        30.8531 
 445   0.0000       1.134800        30.8795 
 446   0.0000       1.135604        30.9014 
 447   0.0000       1.139742        31.0140 
 448   0.0000       1.144054        31.1313 
 449   0.0000       1.145889        31.1812 
 450   0.0000       1.151928        31.3455 
 451   0.0000       1.152459        31.3600 
 452   0.0000       1.154374        31.4121 
 453   0.0000       1.155653        31.4469 
 454   0.0000       1.159921        31.5630 
 455   0.0000       1.166571        31.7440 
 456   0.0000       1.174563        31.9615 
 457   0.0000       1.177667        32.0459 
 458   0.0000       1.181515        32.1507 
 459   0.0000       1.184635        32.2355 
 460   0.0000       1.188711        32.3465 
 461   0.0000       1.190008        32.3818 
 462   0.0000       1.200033        32.6545 
 463   0.0000       1.204375        32.7727 
 464   0.0000       1.207006        32.8443 
 465   0.0000       1.208154        32.8755 
 466   0.0000       1.215088        33.0642 
 467   0.0000       1.216222        33.0951 
 468   0.0000       1.221663        33.2432 
 469   0.0000       1.229686        33.4615 
 470   0.0000       1.233818        33.5739 
 471   0.0000       1.234977        33.6054 
 472   0.0000       1.235777        33.6272 
 473   0.0000       1.240477        33.7551 
 474   0.0000       1.242453        33.8089 
 475   0.0000       1.246586        33.9213 
 476   0.0000       1.250719        34.0338 
 477   0.0000       1.252609        34.0852 
 478   0.0000       1.254921        34.1481 
 479   0.0000       1.256669        34.1957 
 480   0.0000       1.258990        34.2588 
 481   0.0000       1.264046        34.3964 
 482   0.0000       1.267958        34.5029 
 483   0.0000       1.270891        34.5827 
 484   0.0000       1.276020        34.7223 
 485   0.0000       1.276280        34.7293 
 486   0.0000       1.282112        34.8881 
 487   0.0000       1.285301        34.9748 
 488   0.0000       1.289432        35.0872 
 489   0.0000       1.290975        35.1292 
 490   0.0000       1.293419        35.1957 
 491   0.0000       1.301079        35.4042 
 492   0.0000       1.303292        35.4644 
 493   0.0000       1.309950        35.6455 
 494   0.0000       1.314225        35.7619 
 495   0.0000       1.315720        35.8026 
 496   0.0000       1.318879        35.8885 
 497   0.0000       1.319361        35.9016 
 498   0.0000       1.325362        36.0649 
 499   0.0000       1.330958        36.2172 
 500   0.0000       1.334060        36.3016 
 501   0.0000       1.337759        36.4023 
 502   0.0000       1.340169        36.4678 
 503   0.0000       1.344210        36.5778 
 504   0.0000       1.350176        36.7401 
 505   0.0000       1.352953        36.8157 
 506   0.0000       1.354136        36.8479 
 507   0.0000       1.355206        36.8770 
 508   0.0000       1.358469        36.9658 
 509   0.0000       1.363386        37.0996 
 510   0.0000       1.364886        37.1404 
 511   0.0000       1.368332        37.2342 
[...]
 76 H s       :     0.890796  s :     0.890796
      pz      :     0.021990  p :     0.079600
      px      :     0.043346
      py      :     0.014263
 77 H s       :     0.888473  s :     0.888473
      pz      :     0.047677  p :     0.078945
      px      :     0.015013
      py      :     0.016254
 78 H s       :     0.888889  s :     0.888889
      pz      :     0.025727  p :     0.078884
      px      :     0.020542
      py      :     0.032614
 79 H s       :     0.909161  s :     0.909161
      pz      :     0.022055  p :     0.086658
      px      :     0.021754
      py      :     0.042849
 80 H s       :     0.869959  s :     0.869959
      pz      :     0.038941  p :     0.084217
      px      :     0.029980
      py      :     0.015296
 81 H s       :     0.887145  s :     0.887145
      pz      :     0.037766  p :     0.083908
      px      :     0.016148
      py      :     0.029993
 82 H s       :     0.915416  s :     0.915416
      pz      :     0.022110  p :     0.086837
      px      :     0.031392
      py      :     0.033335
 83 H s       :     0.872882  s :     0.872882
      pz      :     0.039246  p :     0.083998
      px      :     0.015260
      py      :     0.029492
 84 H s       :     0.887143  s :     0.887143
      pz      :     0.035781  p :     0.083677
      px      :     0.031717
      py      :     0.016179
 85 H s       :     0.893632  s :     0.893632
      pz      :     0.022496  p :     0.079737
      px      :     0.014088
      py      :     0.043153
 86 H s       :     0.890828  s :     0.890828
      pz      :     0.024724  p :     0.078853
      px      :     0.032991
      py      :     0.021138
 87 H s       :     0.890116  s :     0.890116
      pz      :     0.047975  p :     0.078710
      px      :     0.015604
      py      :     0.015131
 88 H s       :     0.913443  s :     0.913443
      pz      :     0.022019  p :     0.086973
      px      :     0.042570
      py      :     0.022383
 89 H s       :     0.871930  s :     0.871930
      pz      :     0.037929  p :     0.083901
      px      :     0.030500
      py      :     0.015472


                      *****************************
                      * MAYER POPULATION ANALYSIS *
                      *****************************

  NA   - Mulliken gross atomic population
  ZA   - Total nuclear charge
  QA   - Mulliken gross atomic charge
  VA   - Mayer's total valence
  BVA  - Mayer's bonded valence
  FA   - Mayer's free valence

  ATOM       NA         ZA         QA         VA         BVA        FA
  0 C      5.7944     6.0000     0.2056     3.8334     3.8334    -0.0000
  1 N      7.4459     7.0000    -0.4459     3.3559     3.3559     0.0000
  2 C      6.0648     6.0000    -0.0648     3.9184     3.9184    -0.0000
  3 N      7.3374     7.0000    -0.3374     3.4482     3.4482     0.0000
  4 C      6.0707     6.0000    -0.0707     3.9842     3.9842    -0.0000
  5 N      7.5616     7.0000    -0.5616     3.0879     3.0879    -0.0000
  6 C      6.0696     6.0000    -0.0696     4.0001     4.0001     0.0000
  7 N      7.3387     7.0000    -0.3387     3.4392     3.4392     0.0000
  8 C      5.7971     6.0000     0.2029     3.8301     3.8301    -0.0000
  9 N      7.5629     7.0000    -0.5629     3.0830     3.0830    -0.0000
 10 C      5.8840     6.0000     0.1160     3.8986     3.8986    -0.0000
 11 N      7.4373     7.0000    -0.4373     3.3848     3.3848    -0.0000
 12 C      6.0708     6.0000    -0.0708     3.9175     3.9175     0.0000
 13 N      7.4374     7.0000    -0.4374     3.3903     3.3903    -0.0000
 14 C      5.7648     6.0000     0.2352     3.7900     3.7900     0.0000
 15 N      7.4409     7.0000    -0.4409     3.3714     3.3714     0.0000
 16 C      5.7666     6.0000     0.2334     3.7873     3.7873     0.0000
 17 C      6.0760     6.0000    -0.0760     3.9990     3.9990    -0.0000
 18 C      6.1938     6.0000    -0.1938     3.7568     3.7568     0.0000
 19 C      5.7757     6.0000     0.2243     3.8747     3.8747    -0.0000
 20 C      5.7900     6.0000     0.2100     3.8258     3.8258    -0.0000
 21 C      6.0791     6.0000    -0.0791     3.9078     3.9078     0.0000
 22 C      6.0863     6.0000    -0.0863     3.9831     3.9831     0.0000
 23 C      6.0469     6.0000    -0.0469     3.9905     3.9905    -0.0000
 24 C      5.7960     6.0000     0.2040     3.8229     3.8229    -0.0000
 25 C      5.8862     6.0000     0.1138     3.8895     3.8895    -0.0000
 26 C      6.0733     6.0000    -0.0733     3.9036     3.9036    -0.0000
 27 C      5.7802     6.0000     0.2198     3.8788     3.8788    -0.0000
 28 C      6.0541     6.0000    -0.0541     3.9881     3.9881    -0.0000
 29 C      6.1840     6.0000    -0.1840     3.7371     3.7371    -0.0000
 30 C      5.7621     6.0000     0.2379     3.7939     3.7939    -0.0000
 31 C      5.7842     6.0000     0.2158     3.8251     3.8251     0.0000
 32 C      6.0641     6.0000    -0.0641     3.9192     3.9192     0.0000
 33 C      6.0767     6.0000    -0.0767     3.9820     3.9820    -0.0000
 34 C      6.0497     6.0000    -0.0497     3.9902     3.9902    -0.0000
 35 C      5.7908     6.0000     0.2092     3.8231     3.8231    -0.0000
 36 C      5.8872     6.0000     0.1128     3.8877     3.8877     0.0000
 37 C      6.0660     6.0000    -0.0660     3.9176     3.9176     0.0000
 38 C      5.7638     6.0000     0.2362     3.8001     3.8001    -0.0000
 39 C      6.0610     6.0000    -0.0610     3.9893     3.9893    -0.0000
 40 C      6.1870     6.0000    -0.1870     3.7378     3.7378    -0.0000
 41 C      5.7789     6.0000     0.2211     3.8821     3.8821    -0.0000
 42 C      5.7984     6.0000     0.2016     3.8272     3.8272    -0.0000
 43 C      6.0736     6.0000    -0.0736     3.9024     3.9024    -0.0000
 44 C      6.0894     6.0000    -0.0894     3.9854     3.9854     0.0000
 45 C      6.0549     6.0000    -0.0549     3.9924     3.9924     0.0000
 46 C      5.7950     6.0000     0.2050     3.8264     3.8264    -0.0000
 47 C      5.8844     6.0000     0.1156     3.8937     3.8937     0.0000
 48 C      6.0733     6.0000    -0.0733     3.9051     3.9051    -0.0000
 49 C      5.7714     6.0000     0.2286     3.8866     3.8866     0.0000
 50 C      6.0513     6.0000    -0.0513     3.9903     3.9903     0.0000
 51 C      6.1908     6.0000    -0.1908     3.7370     3.7370    -0.0000
 52 H      0.9493     1.0000     0.0507     0.9853     0.9853    -0.0000
 53 H      1.0147     1.0000    -0.0147     0.9989     0.9989    -0.0000
 54 H      0.9555     1.0000     0.0445     1.0107     1.0107     0.0000
 55 H      0.9513     1.0000     0.0487     0.9861     0.9861     0.0000
 56 H      0.9439     1.0000     0.0561     0.9710     0.9710     0.0000
 57 H      0.9457     1.0000     0.0543     0.9829     0.9829    -0.0000
 58 H      0.9464     1.0000     0.0536     0.9860     0.9860    -0.0000
 59 H      1.0102     1.0000    -0.0102     1.0008     1.0008     0.0000
 60 H      0.9547     1.0000     0.0453     1.0079     1.0079    -0.0000
 61 H      0.8278     1.0000     0.1722     1.0423     1.0423     0.0000
 62 H      0.8264     1.0000     0.1736     1.0435     1.0435     0.0000
 63 H      0.9429     1.0000     0.0571     0.9853     0.9853     0.0000
 64 H      1.0165     1.0000    -0.0165     0.9952     0.9952    -0.0000
 65 H      0.9533     1.0000     0.0467     1.0094     1.0094    -0.0000
 66 H      0.9424     1.0000     0.0576     0.9850     0.9850     0.0000
 67 H      0.9366     1.0000     0.0634     0.9720     0.9720     0.0000
 68 H      0.9418     1.0000     0.0582     0.9868     0.9868    -0.0000
 69 H      0.9413     1.0000     0.0587     0.9830     0.9830     0.0000
 70 H      1.0255     1.0000    -0.0255     0.9936     0.9936     0.0000
 71 H      0.9520     1.0000     0.0480     1.0064     1.0064     0.0000
 72 H      0.9402     1.0000     0.0598     0.9847     0.9847    -0.0000
 73 H      1.0127     1.0000    -0.0127     0.9991     0.9991    -0.0000
 74 H      0.9502     1.0000     0.0498     1.0100     1.0100    -0.0000
 75 H      0.9412     1.0000     0.0588     0.9852     0.9852     0.0000
 76 H      0.9351     1.0000     0.0649     0.9717     0.9717     0.0000
 77 H      0.9397     1.0000     0.0603     0.9852     0.9852     0.0000
 78 H      0.9405     1.0000     0.0595     0.9848     0.9848     0.0000
 79 H      1.0142     1.0000    -0.0142     0.9991     0.9991     0.0000
 80 H      0.9498     1.0000     0.0502     1.0071     1.0071     0.0000
 81 H      0.9463     1.0000     0.0537     0.9855     0.9855     0.0000
 82 H      1.0242     1.0000    -0.0242     0.9939     0.9939    -0.0000
 83 H      0.9575     1.0000     0.0425     1.0091     1.0091     0.0000
 84 H      0.9469     1.0000     0.0531     0.9855     0.9855    -0.0000
 85 H      0.9408     1.0000     0.0592     0.9716     0.9716    -0.0000
 86 H      0.9440     1.0000     0.0560     0.9840     0.9840    -0.0000
 87 H      0.9433     1.0000     0.0567     0.9856     0.9856    -0.0000
 88 H      1.0204     1.0000    -0.0204     0.9950     0.9950    -0.0000
 89 H      0.9545     1.0000     0.0455     1.0068     1.0068    -0.0000

  Mayer bond orders larger than 0.100000
B(  0-C ,  1-N ) :   1.1089 B(  0-C , 17-C ) :   1.6558 B(  0-C , 52-H ) :   0.9690 
B(  1-N ,  8-C ) :   1.1021 B(  1-N , 10-C ) :   0.9671 B(  2-C , 12-C ) :   1.5309 
B(  2-C , 16-C ) :   1.3295 B(  2-C , 53-H ) :   0.9776 B(  3-N , 14-C ) :   1.2071 
B(  3-N , 16-C ) :   1.1942 B(  3-N , 61-H ) :   0.8988 B(  4-C ,  6-C ) :   1.2491 
B(  4-C , 17-C ) :   1.2472 B(  4-C , 18-C ) :   1.3130 B(  5-N , 19-C ) :   1.4284 
B(  5-N , 27-C ) :   1.3987 B(  6-C ,  8-C ) :   1.6574 B(  6-C , 54-H ) :   0.9699 
B(  7-N , 30-C ) :   1.1929 B(  7-N , 38-C ) :   1.1995 B(  7-N , 62-H ) :   0.8979 
B(  8-C , 55-H ) :   0.9704 B(  9-N , 41-C ) :   1.4034 B(  9-N , 49-C ) :   1.4200 
B( 10-C , 56-H ) :   0.9763 B( 10-C , 57-H ) :   0.9826 B( 10-C , 58-H ) :   0.9832 
B( 11-N , 20-C ) :   1.1275 B( 11-N , 24-C ) :   1.1210 B( 11-N , 25-C ) :   0.9578 
B( 12-C , 14-C ) :   1.3322 B( 12-C , 59-H ) :   0.9765 B( 13-N , 31-C ) :   1.1329 
B( 13-N , 35-C ) :   1.1258 B( 13-N , 36-C ) :   0.9556 B( 14-C , 18-C ) :   1.1816 
B( 15-N , 42-C ) :   1.1134 B( 15-N , 46-C ) :   1.1164 B( 15-N , 47-C ) :   0.9623 
B( 16-C , 51-C ) :   1.1946 B( 17-C , 60-H ) :   0.9704 B( 18-C , 19-C ) :   1.1930 
B( 19-C , 21-C ) :   1.2206 B( 20-C , 28-C ) :   1.6226 B( 20-C , 63-H ) :   0.9702 
B( 21-C , 26-C ) :   1.6353 B( 21-C , 64-H ) :   0.9730 B( 22-C , 23-C ) :   1.2863 
B( 22-C , 28-C ) :   1.2739 B( 22-C , 29-C ) :   1.2251 B( 23-C , 24-C ) :   1.6168 
B( 23-C , 65-H ) :   0.9708 B( 24-C , 66-H ) :   0.9692 B( 25-C , 67-H ) :   0.9761 
B( 25-C , 68-H ) :   0.9829 B( 25-C , 69-H ) :   0.9821 B( 26-C , 27-C ) :   1.2167 
B( 26-C , 70-H ) :   0.9728 B( 27-C , 29-C ) :   1.2251 B( 28-C , 71-H ) :   0.9715 
B( 29-C , 30-C ) :   1.2207 B( 30-C , 32-C ) :   1.3032 B( 31-C , 39-C ) :   1.6210 
B( 31-C , 72-H ) :   0.9693 B( 32-C , 37-C ) :   1.5553 B( 32-C , 73-H ) :   0.9779 
B( 33-C , 34-C ) :   1.2830 B( 33-C , 39-C ) :   1.2757 B( 33-C , 40-C ) :   1.2315 
B( 34-C , 35-C ) :   1.6178 B( 34-C , 74-H ) :   0.9702 B( 35-C , 75-H ) :   0.9693 
B( 36-C , 76-H ) :   0.9764 B( 36-C , 77-H ) :   0.9820 B( 36-C , 78-H ) :   0.9829 
B( 37-C , 38-C ) :   1.3053 B( 37-C , 79-H ) :   0.9775 B( 38-C , 40-C ) :   1.2152 
B( 39-C , 80-H ) :   0.9713 B( 40-C , 41-C ) :   1.2251 B( 41-C , 43-C ) :   1.2091 
B( 42-C , 50-C ) :   1.6340 B( 42-C , 81-H ) :   0.9696 B( 43-C , 48-C ) :   1.6423 
B( 43-C , 82-H ) :   0.9733 B( 44-C , 45-C ) :   1.2683 B( 44-C , 50-C ) :   1.2679 
B( 44-C , 51-C ) :   1.2581 B( 45-C , 46-C ) :   1.6336 B( 45-C , 83-H ) :   0.9713 
B( 46-C , 84-H ) :   0.9702 B( 47-C , 85-H ) :   0.9761 B( 47-C , 86-H ) :   0.9828 
B( 47-C , 87-H ) :   0.9826 B( 48-C , 49-C ) :   1.2099 B( 48-C , 88-H ) :   0.9741 
B( 49-C , 51-C ) :   1.2213 B( 50-C , 89-H ) :   0.9712 

-------
TIMINGS
-------

Total SCF time: 0 days 0 hours 39 min 17 sec 

Total time                  ....    2357.616 sec
Sum of individual times     ....    2350.953 sec  ( 99.7%)

Fock matrix formation       ....    2330.979 sec  ( 98.9%)
Diagonalization             ....       4.651 sec  (  0.2%)
Density matrix formation    ....       0.464 sec  (  0.0%)
Population analysis         ....       0.298 sec  (  0.0%)
Initial guess               ....       2.428 sec  (  0.1%)
Orbital Transformation      ....       0.000 sec  (  0.0%)
Orbital Orthonormalization  ....       0.000 sec  (  0.0%)
DIIS solution               ....       5.550 sec  (  0.2%)
SOSCF solution              ....       5.167 sec  (  0.2%)

Maximum memory used throughout the entire SCF-calculation: 304.1 MB


           ************************************************************
           *        Program running with 8 parallel MPI-processes     *
           *              working on a common directory               *
           ************************************************************

------------------------------------------------------------------------------
                                ORCA  MP2 
------------------------------------------------------------------------------

Freezing NCore=104 chemical core electrons

----------
MP2 ENERGY (disk based algorithm)
----------

Dimension of the basis                    ...  918
Memory devoted to MP2                     ... 7000 MB   
Data format for buffers                   ... DOUBLE
Compression type for matrix containers    ... UNCOMPRESSED

-------------------------------
PARTIAL EXCHANGE TRANSFORMATION
-------------------------------

Transformation type                        ... one-operator
Generation of integrals (i,mue|j,nue)      ... ON
Generation of integrals (mue,kappa|nue,tau)... OFF
Generation of integrals (i,mue|a,nue)      ... OFF
Dimension of the basis                     ...  918
Number of internal MOs                     ...  127 (  52- 178)
Pair cutoff                                ... 2.500e-12 Eh
Number of AO pairs in the trafo            ... 421821
Total Number of distinct AO pairs          ... 421821
Memory devoted for trafo                   ... 7000.0 MB 
Max. Number of MO pairs treated together   ... 1088      
Number Format for Storage                  ... Double (8 Byte)
Integral package used                      ... LIBINT

Starting integral evaluation:
    ... done with AO integral generation
Closing buffer AOK     (38.18 GB; CompressionRatio= 1.33)
Collecting buffer AOK 
Number of MO pairs included in the trafo   ... 8128
------------------------
SORTING OF (i,mue|j,nue)
------------------------

IBATCH = 1 of  1
Closing buffer KAO     (51.03 GB; CompressionRatio= 1.00)
Collecting buffer KAO 
N(AO-Batches) Done                         ... 173520008 
N(AO-Batches) Skipped                      ... 167679808 
N(IJ)-pairs Skipped                        ...         0 
TOTAL TIME for half transformation         ...  1019.350 sec
AO-integral generation                     ...   248.783 sec
Half transformation                        ...   462.566 sec
K-integral sorting                         ...    89.615 sec

Finished integral transformation - now doing MP2 part

OPERATOR COMBINATION   0   0: ij=( 52..178, 52..178)
Process 5:   Internal MO 132
Process 2:   Internal MO  84
Process 0:   Internal MO  54
Process 0:   Internal MO  57
Process 1:   Internal MO  69
Process 0:   Internal MO  60
Process 4:   Internal MO 117
Process 0:   Internal MO  63
Process 1:   Internal MO  72
Process 3:   Internal MO 102
Process 2:   Internal MO  87
Process 0:   Internal MO  66
Process 7:   Internal MO 165
Process 1:   Internal MO  75
Process 6:   Internal MO 150
Process 2:   Internal MO  90
Process 1:   Internal MO  78
Process 5:   Internal MO 135
Process 3:   Internal MO 105
Process 4:   Internal MO 120
Process 1:   Internal MO  81
Process 2:   Internal MO  93
Process 3:   Internal MO 108
Process 2:   Internal MO  96
Process 7:   Internal MO 168
Process 4:   Internal MO 123
Process 6:   Internal MO 153
Process 5:   Internal MO 138
Process 3:   Internal MO 111
Process 2:   Internal MO  99
Process 4:   Internal MO 126
Process 5:   Internal MO 141
Process 3:   Internal MO 114
Process 6:   Internal MO 156
Process 7:   Internal MO 171
Process 4:   Internal MO 129
Process 5:   Internal MO 144
Process 6:   Internal MO 159
Process 7:   Internal MO 174
Process 5:   Internal MO 147
Process 6:   Internal MO 162
Process 7:   Internal MO 177
-----------------------------------------------
 MP2 CORRELATION ENERGY   :     -7.288652433 Eh
-----------------------------------------------


-------
TIMINGS
-------
Total time                : 1172.281 sec
Integral trafo            : 1027.413 sec ( 87.6%)
K(i,j)                    :    9.728 sec (  0.8%)
T(i,j)                    :    0.148 sec (  0.0%)

---------------------------------------
MP2 TOTAL ENERGY:    -2130.915992307 Eh
---------------------------------------

Maximum memory used throughout the entire MP2-calculation: 6735.7 MB

-------------------------   --------------------
FINAL SINGLE POINT ENERGY     -2130.915992306588
-------------------------   --------------------


                            ***************************************
                            *     ORCA property calculations      *
                            ***************************************


  WARNING: The energy has been calculated at the MP2 level but the densities
           used in the property calculations are still SCF densities
           MP2 response densities have not been calculated 
           use %mp2 Density relaxed end
           or  %mp2 Density unrelaxed end

                                    ---------------------
                                    Active property flags
                                    ---------------------
   (+) Dipole Moment


------------------------------------------------------------------------------
                       ORCA ELECTRIC PROPERTIES CALCULATION
------------------------------------------------------------------------------

Dipole Moment Calculation                       ... on
Quadrupole Moment Calculation                   ... off
Polarizability Calculation                      ... off
GBWName                                         ... /scratch/chu_02/allen/tmpyp4_amber_gaff2/conf1/conf1/Conf305.orca.gbw
Electron density                                ... /scratch/chu_02/allen/tmpyp4_amber_gaff2/conf1/conf1/Conf305.orca.scfp
The origin for moment calculation is the CENTER OF MASS  = (-0.000850, -0.004664 -0.000670)

-------------
DIPOLE MOMENT
-------------
                                X             Y             Z
Electronic contribution:      0.32712      -1.69015      -0.05888
Nuclear contribution   :      0.02071       0.20136       0.07179
                        -----------------------------------------
Total Dipole Moment    :      0.34784      -1.48879       0.01291
                        -----------------------------------------
Magnitude (a.u.)       :      1.52894
Magnitude (Debye)      :      3.88625



--------------------
Rotational spectrum 
--------------------
 
Rotational constants in cm-1:     0.001500     0.001474     0.000762 
Rotational constants in MHz :    44.964623    44.175101    22.842177 

 Dipole components along the rotational axes: 
x,y,z [a.u.] :     0.803774    -1.300534     0.014565 
x,y,z [Debye]:     2.043032    -3.305694     0.037021 

 

Timings for individual modules:

Sum of individual times         ...     3535.475 sec (=  58.925 min)
GTO integral calculation        ...        2.933 sec (=   0.049 min)   0.1 %
SCF iterations                  ...     2358.928 sec (=  39.315 min)  66.7 %
MP2 module                      ...     1173.614 sec (=  19.560 min)  33.2 %
                             ****ORCA TERMINATED NORMALLY****
TOTAL RUN TIME: 0 days 0 hours 58 minutes 57 seconds 569 msec
# of primitive gaussian functions

