
                                 *****************
                                 * O   R   C   A *
                                 *****************

                                            #,                                       
                                            ###                                      
                                            ####                                     
                                            #####                                    
                                            ######                                   
                                           ########,                                 
                                     ,,################,,,,,                         
                               ,,#################################,,                 
                          ,,##########################################,,             
                       ,#########################################, ''#####,          
                    ,#############################################,,   '####,        
                  ,##################################################,,,,####,       
                ,###########''''           ''''###############################       
              ,#####''   ,,,,##########,,,,          '''####'''          '####       
            ,##' ,,,,###########################,,,                        '##       
           ' ,,###''''                  '''############,,,                           
         ,,##''                                '''############,,,,        ,,,,,,###''
      ,#''                                            '''#######################'''  
     '                                                          ''''####''''         
             ,#######,   #######,   ,#######,      ##                                
            ,#'     '#,  ##    ##  ,#'     '#,    #''#        ######   ,####,        
            ##       ##  ##   ,#'  ##            #'  '#       #        #'  '#        
            ##       ##  #######   ##           ,######,      #####,   #    #        
            '#,     ,#'  ##    ##  '#,     ,#' ,#      #,         ##   #,  ,#        
             '#######'   ##     ##  '#######'  #'      '#     #####' # '####'        



                  #######################################################
                  #                        -***-                        #
                  #          Department of theory and spectroscopy      #
                  #    Directorship and core code : Frank Neese         #
                  #        Max Planck Institute fuer Kohlenforschung    #
                  #                Kaiser Wilhelm Platz 1               #
                  #                 D-45470 Muelheim/Ruhr               #
                  #                      Germany                        #
                  #                                                     #
                  #                  All rights reserved                #
                  #                        -***-                        #
                  #######################################################


                         Program Version 5.0.4 -  RELEASE  -


 With contributions from (in alphabetic order):
   Daniel Aravena         : Magnetic Suceptibility
   Michael Atanasov       : Ab Initio Ligand Field Theory (pilot matlab implementation)
   Alexander A. Auer      : GIAO ZORA, VPT2 properties, NMR spectrum
   Ute Becker             : Parallelization
   Giovanni Bistoni       : ED, misc. LED, open-shell LED, HFLD
   Martin Brehm           : Molecular dynamics
   Dmytro Bykov           : SCF Hessian
   Vijay G. Chilkuri      : MRCI spin determinant printing, contributions to CSF-ICE
   Dipayan Datta          : RHF DLPNO-CCSD density
   Achintya Kumar Dutta   : EOM-CC, STEOM-CC
   Dmitry Ganyushin       : Spin-Orbit,Spin-Spin,Magnetic field MRCI
   Miquel Garcia          : C-PCM and meta-GGA Hessian, CC/C-PCM, Gaussian charge scheme
   Yang Guo               : DLPNO-NEVPT2, F12-NEVPT2, CIM, IAO-localization
   Andreas Hansen         : Spin unrestricted coupled pair/coupled cluster methods
   Benjamin Helmich-Paris : MC-RPA, TRAH-SCF, COSX integrals
   Lee Huntington         : MR-EOM, pCC
   Robert Izsak           : Overlap fitted RIJCOSX, COSX-SCS-MP3, EOM
   Marcus Kettner         : VPT2
   Christian Kollmar      : KDIIS, OOCD, Brueckner-CCSD(T), CCSD density, CASPT2, CASPT2-K
   Simone Kossmann        : Meta GGA functionals, TD-DFT gradient, OOMP2, MP2 Hessian
   Martin Krupicka        : Initial AUTO-CI
   Lucas Lang             : DCDCAS
   Marvin Lechner         : AUTO-CI (C++ implementation), FIC-MRCC
   Dagmar Lenk            : GEPOL surface, SMD
   Dimitrios Liakos       : Extrapolation schemes; Compound Job, initial MDCI parallelization
   Dimitrios Manganas     : Further ROCIS development; embedding schemes
   Dimitrios Pantazis     : SARC Basis sets
   Anastasios Papadopoulos: AUTO-CI, single reference methods and gradients
   Taras Petrenko         : DFT Hessian,TD-DFT gradient, ASA, ECA, R-Raman, ABS, FL, XAS/XES, NRVS
   Peter Pinski           : DLPNO-MP2, DLPNO-MP2 Gradient
   Christoph Reimann      : Effective Core Potentials
   Marius Retegan         : Local ZFS, SOC
   Christoph Riplinger    : Optimizer, TS searches, QM/MM, DLPNO-CCSD(T), (RO)-DLPNO pert. Triples
   Tobias Risthaus        : Range-separated hybrids, TD-DFT gradient, RPA, STAB
   Michael Roemelt        : Original ROCIS implementation
   Masaaki Saitow         : Open-shell DLPNO-CCSD energy and density
   Barbara Sandhoefer     : DKH picture change effects
   Avijit Sen             : IP-ROCIS
   Kantharuban Sivalingam : CASSCF convergence, NEVPT2, FIC-MRCI
   Bernardo de Souza      : ESD, SOC TD-DFT
   Georgi Stoychev        : AutoAux, RI-MP2 NMR, DLPNO-MP2 response
   Willem Van den Heuvel  : Paramagnetic NMR
   Boris Wezisla          : Elementary symmetry handling
   Frank Wennmohs         : Technical directorship


 We gratefully acknowledge several colleagues who have allowed us to
 interface, adapt or use parts of their codes:
   Stefan Grimme, W. Hujo, H. Kruse, P. Pracht,  : VdW corrections, initial TS optimization,
                  C. Bannwarth, S. Ehlert          DFT functionals, gCP, sTDA/sTD-DF
   Ed Valeev, F. Pavosevic, A. Kumar             : LibInt (2-el integral package), F12 methods
   Garnet Chan, S. Sharma, J. Yang, R. Olivares  : DMRG
   Ulf Ekstrom                                   : XCFun DFT Library
   Mihaly Kallay                                 : mrcc  (arbitrary order and MRCC methods)
   Jiri Pittner, Ondrej Demel                    : Mk-CCSD
   Frank Weinhold                                : gennbo (NPA and NBO analysis)
   Christopher J. Cramer and Donald G. Truhlar   : smd solvation model
   Lars Goerigk                                  : TD-DFT with DH, B97 family of functionals
   V. Asgeirsson, H. Jonsson                     : NEB implementation
   FAccTs GmbH                                   : IRC, NEB, NEB-TS, DLPNO-Multilevel, CI-OPT
                                                   MM, QMMM, 2- and 3-layer-ONIOM, Crystal-QMMM,
                                                   LR-CPCM, SF, NACMEs, symmetry and pop. for TD-DFT,
                                                   nearIR, NL-DFT gradient (VV10), updates on ESD,
                                                   ML-optimized integration grids
   S Lehtola, MJT Oliveira, MAL Marques          : LibXC Library
   Liviu Ungur et al                             : ANISO software


 Your calculation uses the libint2 library for the computation of 2-el integrals
 For citations please refer to: http://libint.valeyev.net

 Your ORCA version has been built with support for libXC version: 5.1.0
 For citations please refer to: https://tddft.org/programs/libxc/

 This ORCA versions uses:
   CBLAS   interface :  Fast vector & matrix operations
   LAPACKE interface :  Fast linear algebra routines
   SCALAPACK package :  Parallel linear algebra routines
   Shared memory     :  Shared parallel matrices
   BLAS/LAPACK       :  OpenBLAS 0.3.15  USE64BITINT DYNAMIC_ARCH NO_AFFINITY Sandybridge SINGLE_THREADED
        Core in use  :  Sandybridge
   Copyright (c) 2011-2014, The OpenBLAS Project


================================================================================

----- Orbital basis set information -----
Your calculation utilizes the basis: cc-pVDZ 
       H, B-Ne : Obtained from the ccRepo (grant-hill.group.shef.ac.uk/ccrepo) Feb. 2017
                 T. H. Dunning, Jr., J. Chem. Phys. 90, 1007 (1989)
            He : Obtained from the ccRepo (grant-hill.group.shef.ac.uk/ccrepo) Feb. 2017
                 D. E. Woon, T. H. Dunning, Jr., J. Chem. Phys. 100, 2975 (1994)
  Li-Be, Na-Mg : Obtained from the ccRepo (grant-hill.group.shef.ac.uk/ccrepo) Feb. 2017
                 B. P. Prascher, D. E. Woon, K. A. Peterson, T. H. Dunning, Jr., A. K. Wilson, Theor. Chem. Acc. 128, 69 (2011)
         Al-Ar : Obtained from the ccRepo (grant-hill.group.shef.ac.uk/ccrepo) Feb. 2017
                 D. E. Woon, T. H. Dunning, Jr., J. Chem. Phys. 98, 1358 (1993)
            Ca : Obtained from the Peterson Research Group Website (tyr0.chem.wsu.edu/~kipeters) Feb. 2017
                 J. Koput, K. A. Peterson, J. Phys. Chem. 106, 9595 (2002)
         Sc-Zn : Obtained from the ccRepo (grant-hill.group.shef.ac.uk/ccrepo) Feb. 2017
                 N. B. Balabanov, K. A. Peterson, J. Chem. Phys. 123, 064107 (2005)
                 N. B. Balabanov, K. A. Peterson, J. Chem. Phys. 125, 074110 (2006)
         Ga-Kr : Obtained from the ccRepo (grant-hill.group.shef.ac.uk/ccrepo) Feb. 2017
                 A. K. Wilson, D. E. Woon, K. A. Peterson, T. H. Dunning, Jr., J. Chem. Phys. 110, 7667 (1999)

================================================================================
                                        WARNINGS
                       Please study these warnings very carefully!
================================================================================


WARNING: No MP2 level density has been requested!
         To caclulate MP2 level properties use
         %mp2 Density relaxed end
         or
         %mp2 Density unrelaxed end

WARNING: Post HF methods need fully converged wavefunctions
  ===> : Setting SCFConvForced true
         You can overwrite this default with %scf ConvForced false 


INFO   : the flag for use of the SHARK integral package has been found!

================================================================================
                                       INPUT FILE
================================================================================
NAME = /scratch/allen/tmpyp4_amber_gaff2/2.Mdgx/conf11/conf11/Conf273.orca
|  1> ! PAL2
|  2> ! mp2 cc-pvdz TightSCF  NoKeepInts
|  3> 
|  4> %scf
|  5>   MaxCore 2000
|  6> end
|  7> %mp2
|  8>   MaxCore 2000
|  9> end
| 10> * xyz 0 1
| 11>    C       -3.97900         5.82600         1.24800
| 12>    C        1.47400         4.04100         0.05700
| 13>    C       -2.80200         4.09300         0.04900
| 14>    C       -3.23900         4.69200        -1.14300
| 15>    C       -4.02200         5.82800        -1.10100
| 16>    C       -5.19100         7.61700         0.09200
| 17>    C        0.13200         4.30700         0.06100
| 18>    C       -0.56900         3.05600         0.04700
| 19>    C        1.64900         2.61800         0.02300
| 20>    C       -3.19000         4.69200         1.25800
| 21>    N       -4.38400         6.37700         0.08200
| 22>    N        0.38800         2.06700         0.02500
| 23>    N       -2.01000         0.39500        -0.07500
| 24>    N       -0.38800        -2.07400        -0.02700
| 25>    N        2.01000        -0.40100         0.06500
| 26>    C       -1.96000         2.86100         0.02400
| 27>    C       -2.62300         1.61500        -0.01800
| 28>    C       -5.57300        -4.32900         1.06600
| 29>    C       -4.07300         1.47100         0.05600
| 30>    C       -4.10600        -2.75600        -0.02600
| 31>    C       -4.99500        -2.75700        -1.11100
| 32>    C       -6.13200        -3.54200        -1.07600
| 33>    C       -7.65100        -5.11300         0.04000
| 34>    C       -4.32400         0.14100         0.03700
| 35>    C       -3.02500        -0.52000        -0.04800
| 36>    C       -4.42200        -3.56600         1.07500
| 37>    N       -6.40700        -4.31300         0.00100
| 38>    C       -2.86700        -1.92200        -0.04000
| 39>    C       -1.65000        -2.62400        -0.02700
| 40>    C        3.56800        -6.14200        -1.04000
| 41>    C       -1.47600        -4.04900        -0.03400
| 42>    C        2.80300        -4.09900        -0.00800
| 43>    C        3.65700        -4.38400         1.06900
| 44>    C        4.42700        -5.53000         1.05900
| 45>    C        5.24500        -7.58800         0.01400
| 46>    C       -0.13400        -4.31500        -0.02200
| 47>    C        0.56800        -3.06400        -0.02700
| 48>    C        2.77500        -5.01200        -1.07400
| 49>    N        4.37600        -6.39100         0.01700
| 50>    C        1.95900        -2.86900        -0.00900
| 51>    C        2.62100        -1.62200         0.00900
| 52>    C        5.54300         4.33900        -1.13000
| 53>    C        4.07000        -1.47900        -0.09400
| 54>    C        4.10400         2.75100        -0.02100
| 55>    C        5.02700         2.72900         1.03600
| 56>    C        6.16600         3.50900         0.97800
| 57>    C        7.61900         5.15300        -0.11500
| 58>    C        4.32100        -0.14800        -0.09200
| 59>    C        3.02500         0.51400         0.01500
| 60>    C        4.38700         3.58200        -1.11500
| 61>    C        2.86600         1.91600         0.01300
| 62>    N        6.41300         4.29600        -0.09500
| 63>    H       -4.31100         6.31300         2.15600
| 64>    H        2.27400         4.76600         0.08100
| 65>    H       -2.96500         4.28200        -2.10700
| 66>    H       -4.37500         6.33000        -1.99200
| 67>    H       -4.52300         8.47800         0.01600
| 68>    H       -5.87500         7.59700        -0.75600
| 69>    H       -5.75400         7.66100         1.02400
| 70>    H       -0.33200         5.28200         0.06900
| 71>    H       -2.89600         4.26900         2.21200
| 72>    H        0.18200         1.07200         0.00500
| 73>    H       -0.18300        -1.08000        -0.02100
| 74>    H       -5.86400        -4.96200         1.89500
| 75>    H       -4.79400         2.27200         0.13900
| 76>    H       -4.80000        -2.16000        -1.99400
| 77>    H       -6.84100        -3.58200        -1.89300
| 78>    H       -8.42800        -4.53600         0.54600
| 79>    H       -7.95600        -5.33700        -0.98100
| 80>    H       -7.45600        -6.03700         0.58400
| 81>    H       -5.28700        -0.34400         0.10000
| 82>    H       -3.78000        -3.60100         1.94700
| 83>    H        3.58700        -6.86800        -1.84300
| 84>    H       -2.27600        -4.77400        -0.05000
| 85>    H        3.71400        -3.72400         1.92600
| 86>    H        5.09200        -5.79500         1.87100
| 87>    H        6.20500        -7.32900        -0.43900
| 88>    H        5.39300        -7.91700         1.04200
| 89>    H        4.75900        -8.37300        -0.56400
| 90>    H        0.32900        -5.29000        -0.00800
| 91>    H        2.14600        -4.84200        -1.94000
| 92>    H        5.80800         4.98600        -1.95600
| 93>    H        4.78800        -2.28100        -0.18500
| 94>    H        4.86000         2.11400         1.91200
| 95>    H        6.90100         3.53100         1.77200
| 96>    H        7.38300         6.10900         0.35600
| 97>    H        8.41400         4.65200         0.43500
| 98>    H        7.92100         5.31000        -1.15000
| 99>    H        5.28300         0.33600        -0.17900
|100>    H        3.72000         3.63200        -1.96700
|101> *
|102> 
|103>                          ****END OF INPUT****
================================================================================

                       ****************************
                       * Single Point Calculation *
                       ****************************

---------------------------------
CARTESIAN COORDINATES (ANGSTROEM)
---------------------------------
  C     -3.979000    5.826000    1.248000
  C      1.474000    4.041000    0.057000
  C     -2.802000    4.093000    0.049000
  C     -3.239000    4.692000   -1.143000
  C     -4.022000    5.828000   -1.101000
  C     -5.191000    7.617000    0.092000
  C      0.132000    4.307000    0.061000
  C     -0.569000    3.056000    0.047000
  C      1.649000    2.618000    0.023000
  C     -3.190000    4.692000    1.258000
  N     -4.384000    6.377000    0.082000
  N      0.388000    2.067000    0.025000
  N     -2.010000    0.395000   -0.075000
  N     -0.388000   -2.074000   -0.027000
  N      2.010000   -0.401000    0.065000
  C     -1.960000    2.861000    0.024000
  C     -2.623000    1.615000   -0.018000
  C     -5.573000   -4.329000    1.066000
  C     -4.073000    1.471000    0.056000
  C     -4.106000   -2.756000   -0.026000
  C     -4.995000   -2.757000   -1.111000
  C     -6.132000   -3.542000   -1.076000
  C     -7.651000   -5.113000    0.040000
  C     -4.324000    0.141000    0.037000
  C     -3.025000   -0.520000   -0.048000
  C     -4.422000   -3.566000    1.075000
  N     -6.407000   -4.313000    0.001000
  C     -2.867000   -1.922000   -0.040000
  C     -1.650000   -2.624000   -0.027000
  C      3.568000   -6.142000   -1.040000
  C     -1.476000   -4.049000   -0.034000
  C      2.803000   -4.099000   -0.008000
  C      3.657000   -4.384000    1.069000
  C      4.427000   -5.530000    1.059000
  C      5.245000   -7.588000    0.014000
  C     -0.134000   -4.315000   -0.022000
  C      0.568000   -3.064000   -0.027000
  C      2.775000   -5.012000   -1.074000
  N      4.376000   -6.391000    0.017000
  C      1.959000   -2.869000   -0.009000
  C      2.621000   -1.622000    0.009000
  C      5.543000    4.339000   -1.130000
  C      4.070000   -1.479000   -0.094000
  C      4.104000    2.751000   -0.021000
  C      5.027000    2.729000    1.036000
  C      6.166000    3.509000    0.978000
  C      7.619000    5.153000   -0.115000
  C      4.321000   -0.148000   -0.092000
  C      3.025000    0.514000    0.015000
  C      4.387000    3.582000   -1.115000
  C      2.866000    1.916000    0.013000
  N      6.413000    4.296000   -0.095000
  H     -4.311000    6.313000    2.156000
  H      2.274000    4.766000    0.081000
  H     -2.965000    4.282000   -2.107000
  H     -4.375000    6.330000   -1.992000
  H     -4.523000    8.478000    0.016000
  H     -5.875000    7.597000   -0.756000
  H     -5.754000    7.661000    1.024000
  H     -0.332000    5.282000    0.069000
  H     -2.896000    4.269000    2.212000
  H      0.182000    1.072000    0.005000
  H     -0.183000   -1.080000   -0.021000
  H     -5.864000   -4.962000    1.895000
  H     -4.794000    2.272000    0.139000
  H     -4.800000   -2.160000   -1.994000
  H     -6.841000   -3.582000   -1.893000
  H     -8.428000   -4.536000    0.546000
  H     -7.956000   -5.337000   -0.981000
  H     -7.456000   -6.037000    0.584000
  H     -5.287000   -0.344000    0.100000
  H     -3.780000   -3.601000    1.947000
  H      3.587000   -6.868000   -1.843000
  H     -2.276000   -4.774000   -0.050000
  H      3.714000   -3.724000    1.926000
  H      5.092000   -5.795000    1.871000
  H      6.205000   -7.329000   -0.439000
  H      5.393000   -7.917000    1.042000
  H      4.759000   -8.373000   -0.564000
  H      0.329000   -5.290000   -0.008000
  H      2.146000   -4.842000   -1.940000
  H      5.808000    4.986000   -1.956000
  H      4.788000   -2.281000   -0.185000
  H      4.860000    2.114000    1.912000
  H      6.901000    3.531000    1.772000
  H      7.383000    6.109000    0.356000
  H      8.414000    4.652000    0.435000
  H      7.921000    5.310000   -1.150000
  H      5.283000    0.336000   -0.179000
  H      3.720000    3.632000   -1.967000

----------------------------
CARTESIAN COORDINATES (A.U.)
----------------------------
  NO LB      ZA    FRAG     MASS         X           Y           Z
   0 C     6.0000    0    12.011   -7.519220   11.009544    2.358378
   1 C     6.0000    0    12.011    2.785456    7.636383    0.107714
   2 C     6.0000    0    12.011   -5.295013    7.734649    0.092597
   3 C     6.0000    0    12.011   -6.120823    8.866595   -2.159957
   4 C     6.0000    0    12.011   -7.600479   11.013324   -2.080588
   5 C     6.0000    0    12.011   -9.809568   14.394044    0.173855
   6 C     6.0000    0    12.011    0.249444    8.139050    0.115273
   7 C     6.0000    0    12.011   -1.075254    5.775003    0.088817
   8 C     6.0000    0    12.011    3.116158    4.947303    0.043464
   9 C     6.0000    0    12.011   -6.028226    8.866595    2.377275
  10 N     7.0000    0    14.007   -8.284559   12.050784    0.154958
  11 N     7.0000    0    14.007    0.733214    3.906064    0.047243
  12 N     7.0000    0    14.007   -3.798350    0.746442   -0.141729
  13 N     7.0000    0    14.007   -0.733214   -3.919292   -0.051023
  14 N     7.0000    0    14.007    3.798350   -0.757780    0.122832
  15 C     6.0000    0    12.011   -3.703863    5.406506    0.045353
  16 C     6.0000    0    12.011   -4.956752    3.051908   -0.034015
  17 C     6.0000    0    12.011  -10.531444   -8.180624    2.014448
  18 C     6.0000    0    12.011   -7.696855    2.779787    0.105825
  19 C     6.0000    0    12.011   -7.759216   -5.208085   -0.049133
  20 C     6.0000    0    12.011   -9.439182   -5.209975   -2.099486
  21 C     6.0000    0    12.011  -11.587801   -6.693410   -2.033345
  22 C     6.0000    0    12.011  -14.458295   -9.662170    0.075589
  23 C     6.0000    0    12.011   -8.171176    0.266451    0.069920
  24 C     6.0000    0    12.011   -5.716422   -0.982658   -0.090707
  25 C     6.0000    0    12.011   -8.356369   -6.738763    2.031456
  26 N     7.0000    0    14.007  -12.107475   -8.150389    0.001890
  27 C     6.0000    0    12.011   -5.417845   -3.632054   -0.075589
  28 C     6.0000    0    12.011   -3.118048   -4.958641   -0.051023
  29 C     6.0000    0    12.011    6.742543  -11.606698   -1.965315
  30 C     6.0000    0    12.011   -2.789236   -7.651501   -0.064251
  31 C     6.0000    0    12.011    5.296902   -7.745987   -0.015118
  32 C     6.0000    0    12.011    6.910728   -8.284559    2.020117
  33 C     6.0000    0    12.011    8.365818  -10.450186    2.001220
  34 C     6.0000    0    12.011    9.911614  -14.339242    0.026456
  35 C     6.0000    0    12.011   -0.253223   -8.154168   -0.041574
  36 C     6.0000    0    12.011    1.073364   -5.790121   -0.051023
  37 C     6.0000    0    12.011    5.243990   -9.471307   -2.029566
  38 N     7.0000    0    14.007    8.269442  -12.077240    0.032125
  39 C     6.0000    0    12.011    3.701973   -5.421624   -0.017008
  40 C     6.0000    0    12.011    4.952972   -3.065136    0.017008
  41 C     6.0000    0    12.011   10.474752    8.199522   -2.135391
  42 C     6.0000    0    12.011    7.691185   -2.794905   -0.177634
  43 C     6.0000    0    12.011    7.755436    5.198637   -0.039684
  44 C     6.0000    0    12.011    9.499653    5.157063    1.957756
  45 C     6.0000    0    12.011   11.652051    6.631049    1.848152
  46 C     6.0000    0    12.011   14.397823    9.737759   -0.217319
  47 C     6.0000    0    12.011    8.165507   -0.279679   -0.173855
  48 C     6.0000    0    12.011    5.716422    0.971319    0.028346
  49 C     6.0000    0    12.011    8.290229    6.768999   -2.107045
  50 C     6.0000    0    12.011    5.415955    3.620715    0.024566
  51 N     7.0000    0    14.007   12.118814    8.118263   -0.179524
  52 H     1.0000    0     1.008   -8.146609   11.929841    4.074250
  53 H     1.0000    0     1.008    4.297237    9.006435    0.153068
  54 H     1.0000    0     1.008   -5.603038    8.091807   -3.981653
  55 H     1.0000    0     1.008   -8.267552   11.961966   -3.764334
  56 H     1.0000    0     1.008   -8.547231   16.021098    0.030236
  57 H     1.0000    0     1.008  -11.102141   14.356249   -1.428633
  58 H     1.0000    0     1.008  -10.873484   14.477192    1.935080
  59 H     1.0000    0     1.008   -0.627389    9.981533    0.130391
  60 H     1.0000    0     1.008   -5.472647    8.067241    4.180074
  61 H     1.0000    0     1.008    0.343930    2.025786    0.009449
  62 H     1.0000    0     1.008   -0.345820   -2.040904   -0.039684
  63 H     1.0000    0     1.008  -11.081354   -9.376821    3.581031
  64 H     1.0000    0     1.008   -9.059347    4.293458    0.262672
  65 H     1.0000    0     1.008   -9.070685   -4.081808   -3.768114
  66 H     1.0000    0     1.008  -12.927616   -6.768999   -3.577252
  67 H     1.0000    0     1.008  -15.926612   -8.571798    1.031790
  68 H     1.0000    0     1.008  -15.034661  -10.085468   -1.853821
  69 H     1.0000    0     1.008  -14.089798  -11.408277    1.103600
  70 H     1.0000    0     1.008   -9.990982   -0.650066    0.188973
  71 H     1.0000    0     1.008   -7.143165   -6.804904    3.679297
  72 H     1.0000    0     1.008    6.778448  -12.978639   -3.482765
  73 H     1.0000    0     1.008   -4.301017   -9.021553   -0.094486
  74 H     1.0000    0     1.008    7.018443   -7.037340    3.639613
  75 H     1.0000    0     1.008    9.622485  -10.950963    3.535678
  76 H     1.0000    0     1.008   11.725751  -13.849803   -0.829590
  77 H     1.0000    0     1.008   10.191293  -14.960962    1.969095
  78 H     1.0000    0     1.008    8.993207  -15.822677   -1.065806
  79 H     1.0000    0     1.008    0.621720   -9.996651   -0.015118
  80 H     1.0000    0     1.008    4.055352   -9.150054   -3.666069
  81 H     1.0000    0     1.008   10.975529    9.422175   -3.696304
  82 H     1.0000    0     1.008    9.048009   -4.310465   -0.349599
  83 H     1.0000    0     1.008    9.184069    3.994881    3.613156
  84 H     1.0000    0     1.008   13.041000    6.672623    3.348595
  85 H     1.0000    0     1.008   13.951848   11.544337    0.672743
  86 H     1.0000    0     1.008   15.900156    8.791006    0.822031
  87 H     1.0000    0     1.008   14.968521   10.034446   -2.173185
  88 H     1.0000    0     1.008    9.983423    0.634948   -0.338261
  89 H     1.0000    0     1.008    7.029781    6.863485   -3.717091

--------------------------------
INTERNAL COORDINATES (ANGSTROEM)
--------------------------------
 C      0   0   0     0.000000000000     0.00000000     0.00000000
 C      1   0   0     5.860026877071     0.00000000     0.00000000
 C      1   2   0     2.413756201442    39.33915015     0.00000000
 C      3   1   2     1.403792719742    87.91617665   249.77979354
 C      4   3   1     1.380343797755   120.12684435     0.09910404
 C      5   4   3     2.447515270637   152.53853456     1.74192213
 C      2   1   3     1.368114030335    13.44384794    25.65081064
 C      7   2   3     1.434084376876   108.05010202     0.84668783
 C      2   1   3     1.434123425651   114.87323154   322.84664112
 C      1   2   3     1.381512576852    38.73885514    48.86236042
 N      1   2   3     1.351732961794   103.15901499   285.58044971
 N      9   2   1     1.376127174356   106.58526707    11.81190201
 N     12   9   2     2.925062050624   168.53581413   171.12065651
 N     13  12   9     2.954513327098    91.55032014    11.12112580
 N     14  13  12     2.925371258490    88.43092389   359.84326247
 C      8   7   2     1.404790019896   127.24786865   181.11170171
 C     13  12   9     1.366535034311    81.72106996   188.00453233
 C     14  13  12     5.758810554272    80.56209567   166.76250791
 C     17  13  12     1.459010623676   111.08861209   183.82872609
 C     18  14  13     2.412235892279    27.27532823    36.33507194
 C     20  18  14     1.402692767501    87.95206320   148.94598259
 C     21  20  18     1.382106725257   120.14573887   359.70382047
 C     18  14  13     2.446510985056   144.15733107    82.80075377
 C     19  17  13     1.353610726908   106.29293361   359.75308708
 C     13  12   9     1.366813447402   172.21332906    33.46711076
 C     18  14  13     1.380960173213    15.08449437   309.23336894
 N     22  21  20     1.352773077792   120.73759875     0.27865223
 C     25  13  17     1.410897586645   125.60330303   182.37774668
 C     14  13  12     1.376642291955    80.24689249   177.85461986
 C     14  13  12     5.764089607215   164.51507311   312.20821879
 C     29  14  13     1.435600919476   106.58649366   178.76395472
 C     30  14  13     2.413316804732    27.10625047    82.12560436
 C     32  30  14     1.403734305344    87.90059683   149.76154742
 C     33  32  30     1.380694028378   120.14881443   359.74174632
 C     34  33  32     2.448777858443   152.49203239     2.45173620
 C     31  29  14     1.368160809262   108.16950133     0.70383075
 C     14  13  12     1.376239804685   169.26375223   353.09862627
 C     30  14  13     1.380907310430    14.68948582   353.70041132
 N     34  33  32     1.352658863128   120.85575621     0.19603406
 C     37  14  29     1.404717053360   126.01551127   180.90772073
 C     15  14  13     1.366491126938    81.61824056   183.09049352
 C      2   1   3     4.249062720177   157.89896979   132.52545713
 C     41  15  14     1.459677704153   111.05201287   175.08990246
 C     42   2   1     2.412953791518    41.78584867   165.72419181
 C     44  42   2     1.403446472082    87.95153797   233.97558675
 C     45  44  42     1.381696421071   120.11137308     0.19721020
 C     42   2   1     2.450019795838   135.97209175    76.03904091
 C     43  41  15     1.354461516618   106.26758155     0.30894352
 C     15  14  13     1.367461151185   171.87382904   332.35056460
 C     42   2   1     1.381886391857    32.59078432   214.57947100
 C      9   2   1     1.404988612053   126.98745415   192.81623954
 N     42   2   1     1.352765315936   113.57249190   103.77563011
 H      1   2   3     1.082523440855   126.36294661   147.52452112
 H      2   1   3     1.079907866440   118.70720362   154.85669209
 H      4   3   1     1.082807462109   121.03883537   179.57750281
 H      5   4   3     1.081893710121   122.81232170   179.42501431
 H      6   5   4     1.092392328790   104.48541973   100.02409081
 H      6   5   4     1.089660497586    84.66765116   209.46939386
 H      6   5   4     1.089738041916   133.88008708   322.22517350
 H      7   2  54     1.079807853278   126.66122480     1.30600390
 H     10   1   2     1.084196015488   118.78265793   109.51590107
 H     12   9   2     1.016297692608   125.29023241   180.00180175
 H     14  13  12     1.014936943854    44.97226959   359.42596618
 H     18  14  13     1.082871645210   128.03556573   234.20482432
 H     19  17  13     1.080893611786   126.41830519   178.11313280
 H     21  20  18     1.083569563987   121.05669627   180.67006309
 H     22  21  20     1.082483256222   122.73097286   180.59748951
 H     23  18  14     1.092105306278   103.92715769   234.93429879
 H     23  18  14     1.088871893291   134.19244188    12.25587044
 H     23  18  14     1.089833473518    84.85857450   125.45241208
 H     24  19  17     1.080075460327   127.28078426   178.44613241
 H     26  18  14     1.083408048706   118.76995697   244.94906660
 H     30  14  13     1.082703098730   127.99711412   279.66882698
 H     31  29  14     1.079759695488   125.22293469   180.92530585
 H     33  32  30     1.083188810873   121.01964473   180.74284758
 H     34  33  32     1.082494341787   122.70821597   180.59516895
 H     35  34  33     1.092652735319   105.73575241    97.19771933
 H     35  34  33     1.089462711615    84.05943581   206.43036958
 H     35  34  33     1.089268102902   133.08365142   318.50306270
 H     36  31  29     1.079439669458   126.61599965   178.98859863
 H     38  30  73     1.083742127999   118.77264435   359.90091293
 H     42   2   1     1.082178358682   119.31790784   320.40716056
 H     43  41  15     1.080281907652   126.36969097   182.06329380
 H     45  44  42     1.083277434455   121.10105945   179.58025624
 H     46  45  44     1.082194529648   122.72144639   179.46906377
 H     47  42   2     1.091546151109   106.65128841   315.16475048
 H     47  42   2     1.088818625851   132.46019523    94.52397119
 H     47  42   2     1.089531091801    83.63838232   206.04504406
 H     48  43  41     1.080402239909   127.23657387   181.62955349
 H     50  42   2     1.083186502870   118.77001737    94.71359229

---------------------------
INTERNAL COORDINATES (A.U.)
---------------------------
 C      0   0   0     0.000000000000     0.00000000     0.00000000
 C      1   0   0    11.073845935083     0.00000000     0.00000000
 C      1   2   0     4.561338174780    39.33915015     0.00000000
 C      3   1   2     2.652783789104    87.91617665   249.77979354
 C      4   3   1     2.608471748413   120.12684435     0.09910404
 C      5   4   3     4.625133570094   152.53853456     1.74192213
 C      2   1   3     2.585360837309    13.44384794    25.65081064
 C      7   2   3     2.710026725231   108.05010202     0.84668783
 C      2   1   3     2.710100516721   114.87323154   322.84664112
 C      1   2   3     2.610680420818    38.73885514    48.86236042
 N      1   2   3     2.554405103985   103.15901499   285.58044971
 N      9   2   1     2.600503484979   106.58526707    11.81190201
 N     12   9   2     5.527566200405   168.53581413   171.12065651
 N     13  12   9     5.583221047236    91.55032014    11.12112580
 N     14  13  12     5.528150518591    88.43092389   359.84326247
 C      8   7   2     2.654668413270   127.24786865   181.11170171
 C     13  12   9     2.582376967257    81.72106996   188.00453233
 C     14  13  12    10.882574804710    80.56209567   166.76250791
 C     17  13  12     2.757130505230   111.08861209   183.82872609
 C     18  14  13     4.558465206823    27.27532823    36.33507194
 C     20  18  14     2.650705180609    87.95206320   148.94598259
 C     21  20  18     2.611803198586   120.14573887   359.70382047
 C     18  14  13     4.623235745386   144.15733107    82.80075377
 C     19  17  13     2.557953565794   106.29293361   359.75308708
 C     13  12   9     2.582903091751   172.21332906    33.46711076
 C     18  14  13     2.609636529225    15.08449437   309.23336894
 N     22  21  20     2.556370638369   120.73759875     0.27865223
 C     25  13  17     2.666210041769   125.60330303   182.37774668
 C     14  13  12     2.601476916169    80.24689249   177.85461986
 C     14  13  12    10.892550769017   164.51507311   312.20821879
 C     29  14  13     2.712892575415   106.58649366   178.76395472
 C     30  14  13     4.560507835333    27.10625047    82.12560436
 C     32  30  14     2.652673401891    87.90059683   149.76154742
 C     33  32  30     2.609133588376   120.14881443   359.74174632
 C     34  33  32     4.627519515267   152.49203239     2.45173620
 C     31  29  14     2.585449236669   108.16950133     0.70383075
 C     14  13  12     2.600716325456   169.26375223   353.09862627
 C     30  14  13     2.609536633043    14.68948582   353.70041132
 N     34  33  32     2.556154803934   120.85575621     0.19603406
 C     37  14  29     2.654530526499   126.01551127   180.90772073
 C     15  14  13     2.582293994346    81.61824056   183.09049352
 C      2   1   3     8.029564866989   157.89896979   132.52545713
 C     41  15  14     2.758391104639   111.05201287   175.08990246
 C     42   2   1     4.559821839776    41.78584867   165.72419181
 C     44  42   2     2.652129475853    87.95153797   233.97558675
 C     45  44  42     2.611027836043   120.11137308     0.19721020
 C     42   2   1     4.629866436820   135.97209175    76.03904091
 C     43  41  15     2.559561325344   106.26758155     0.30894352
 C     15  14  13     2.584127074516   171.87382904   332.35056460
 C     42   2   1     2.611386828803    32.59078432   214.57947100
 C      9   2   1     2.655043698059   126.98745415   192.81623954
 N     42   2   1     2.556355970587   113.57249190   103.77563011
 H      1   2   3     2.045672836766   126.36294661   147.52452112
 H      2   1   3     2.040730117440   118.70720362   154.85669209
 H      4   3   1     2.046209559153   121.03883537   179.57750281
 H      5   4   3     2.044482818141   122.81232170   179.42501431
 H      6   5   4     2.064322332210   104.48541973   100.02409081
 H      6   5   4     2.059159919390    84.66765116   209.46939386
 H      6   5   4     2.059306456938   133.88008708   322.22517350
 H      7   2  54     2.040541119952   126.66122480     1.30600390
 H     10   1   2     2.048833544761   118.78265793   109.51590107
 H     12   9   2     1.920524309565   125.29023241   180.00180175
 H     14  13  12     1.917952867083    44.97226959   359.42596618
 H     18  14  13     2.046330847636   128.03556573   234.20482432
 H     19  17  13     2.042592906181   126.41830519   178.11313280
 H     21  20  18     2.047649722989   121.05669627   180.67006309
 H     22  21  20     2.045596898814   122.73097286   180.59748951
 H     23  18  14     2.063779938267   103.92715769   234.93429879
 H     23  18  14     2.057669673245   134.19244188    12.25587044
 H     23  18  14     2.059486796529    84.85857450   125.45241208
 H     24  19  17     2.041046823986   127.28078426   178.44613241
 H     26  18  14     2.047344503340   118.76995697   244.94906660
 H     30  14  13     2.046012340948   127.99711412   279.66882698
 H     31  29  14     2.040450114918   125.22293469   180.92530585
 H     33  32  30     2.046930203877   121.01964473   180.74284758
 H     34  33  32     2.045617847496   122.70821597   180.59516895
 H     35  34  33     2.064814429233   105.73575241    97.19771933
 H     35  34  33     2.058786158072    84.05943581   206.43036958
 H     35  34  33     2.058418400901   133.08365142   318.50306270
 H     36  31  29     2.039845353366   126.61599965   178.98859863
 H     38  30  73     2.047975821711   118.77264435   359.90091293
 H     42   2   1     2.045020725966   119.31790784   320.40716056
 H     43  41  15     2.041436952892   126.36969097   182.06329380
 H     45  44  42     2.047097678177   121.10105945   179.58025624
 H     46  45  44     2.045051284662   122.72144639   179.46906377
 H     47  42   2     2.062723288131   106.65128841   315.16475048
 H     47  42   2     2.057569012371   132.46019523    94.52397119
 H     47  42   2     2.058915377895    83.63838232   206.04504406
 H     48  43  41     2.041664347903   127.23657387   181.62955349
 H     50  42   2     2.046925842384   118.77001737    94.71359229

---------------------
BASIS SET INFORMATION
---------------------
There are 3 groups of distinct atoms

 Group   1 Type C   : 17s4p1d contracted to 3s2p1d pattern {881/31/1}
 Group   2 Type N   : 17s4p1d contracted to 3s2p1d pattern {881/31/1}
 Group   3 Type H   : 4s1p contracted to 2s1p pattern {31/1}

Atom   0C    basis set group =>   1
Atom   1N    basis set group =>   2
Atom   2C    basis set group =>   1
Atom   3N    basis set group =>   2
Atom   4C    basis set group =>   1
Atom   5N    basis set group =>   2
Atom   6C    basis set group =>   1
Atom   7N    basis set group =>   2
Atom   8C    basis set group =>   1
Atom   9N    basis set group =>   2
Atom  10C    basis set group =>   1
Atom  11N    basis set group =>   2
Atom  12C    basis set group =>   1
Atom  13N    basis set group =>   2
Atom  14C    basis set group =>   1
Atom  15N    basis set group =>   2
Atom  16C    basis set group =>   1
Atom  17C    basis set group =>   1
Atom  18C    basis set group =>   1
Atom  19C    basis set group =>   1
Atom  20C    basis set group =>   1
Atom  21C    basis set group =>   1
Atom  22C    basis set group =>   1
Atom  23C    basis set group =>   1
Atom  24C    basis set group =>   1
Atom  25C    basis set group =>   1
Atom  26C    basis set group =>   1
Atom  27C    basis set group =>   1
Atom  28C    basis set group =>   1
Atom  29C    basis set group =>   1
Atom  30C    basis set group =>   1
Atom  31C    basis set group =>   1
Atom  32C    basis set group =>   1
Atom  33C    basis set group =>   1
Atom  34C    basis set group =>   1
Atom  35C    basis set group =>   1
Atom  36C    basis set group =>   1
Atom  37C    basis set group =>   1
Atom  38C    basis set group =>   1
Atom  39C    basis set group =>   1
Atom  40C    basis set group =>   1
Atom  41C    basis set group =>   1
Atom  42C    basis set group =>   1
Atom  43C    basis set group =>   1
Atom  44C    basis set group =>   1
Atom  45C    basis set group =>   1
Atom  46C    basis set group =>   1
Atom  47C    basis set group =>   1
Atom  48C    basis set group =>   1
Atom  49C    basis set group =>   1
Atom  50C    basis set group =>   1
Atom  51C    basis set group =>   1
Atom  52H    basis set group =>   3
Atom  53H    basis set group =>   3
Atom  54H    basis set group =>   3
Atom  55H    basis set group =>   3
Atom  56H    basis set group =>   3
Atom  57H    basis set group =>   3
Atom  58H    basis set group =>   3
Atom  59H    basis set group =>   3
Atom  60H    basis set group =>   3
Atom  61H    basis set group =>   3
Atom  62H    basis set group =>   3
Atom  63H    basis set group =>   3
Atom  64H    basis set group =>   3
Atom  65H    basis set group =>   3
Atom  66H    basis set group =>   3
Atom  67H    basis set group =>   3
Atom  68H    basis set group =>   3
Atom  69H    basis set group =>   3
Atom  70H    basis set group =>   3
Atom  71H    basis set group =>   3
Atom  72H    basis set group =>   3
Atom  73H    basis set group =>   3
Atom  74H    basis set group =>   3
Atom  75H    basis set group =>   3
Atom  76H    basis set group =>   3
Atom  77H    basis set group =>   3
Atom  78H    basis set group =>   3
Atom  79H    basis set group =>   3
Atom  80H    basis set group =>   3
Atom  81H    basis set group =>   3
Atom  82H    basis set group =>   3
Atom  83H    basis set group =>   3
Atom  84H    basis set group =>   3
Atom  85H    basis set group =>   3
Atom  86H    basis set group =>   3
Atom  87H    basis set group =>   3
Atom  88H    basis set group =>   3
Atom  89H    basis set group =>   3


           ************************************************************
           *        Program running with 16 parallel MPI-processes    *
           *              working on a common directory               *
           ************************************************************
------------------------------------------------------------------------------
                           ORCA GTO INTEGRAL CALCULATION
------------------------------------------------------------------------------
------------------------------------------------------------------------------
                   ___                                                        
                  /   \      - P O W E R E D   B Y -                         
                 /     \                                                     
                 |  |  |   _    _      __       _____    __    __             
                 |  |  |  | |  | |    /  \     |  _  \  |  |  /  |          
                  \  \/   | |  | |   /    \    | | | |  |  | /  /          
                 / \  \   | |__| |  /  /\  \   | |_| |  |  |/  /          
                |  |  |   |  __  | /  /__\  \  |    /   |      \           
                |  |  |   | |  | | |   __   |  |    \   |  |\   \          
                \     /   | |  | | |  |  |  |  | |\  \  |  | \   \       
                 \___/    |_|  |_| |__|  |__|  |_| \__\ |__|  \__/        
                                                                              
                      - O R C A' S   B I G   F R I E N D -                    
                                      &                                       
                       - I N T E G R A L  F E E D E R -                       
                                                                              
 v1 FN, 2020, v2 2021                                                         
------------------------------------------------------------------------------


Reading SHARK input file /scratch/allen/tmpyp4_amber_gaff2/conf1/conf1/Conf273.orca.SHARKINP.tmp ... ok
----------------------
SHARK INTEGRAL PACKAGE
----------------------

Number of atoms                             ...     90
Number of basis functions                   ...   1230
Number of shells                            ...    738
Maximum angular momentum                    ...      2
Integral batch strategy                     ... SHARK/LIBINT Hybrid
RI-J (if used) integral strategy            ... SPLIT-RIJ (Revised 2003 algorithm where possible)
Printlevel                                  ...      1
Contraction scheme used                     ... PARTIAL GENERAL contraction
Coulomb Range Separation                    ... NOT USED
Exchange Range Separation                   ... NOT USED
Finite Nucleus Model                        ... NOT USED
Auxiliary Coulomb fitting basis             ... NOT available
Auxiliary J/K fitting basis                 ... NOT available
Auxiliary Correlation fitting basis         ... NOT available
Auxiliary 'external' fitting basis          ... NOT available
Integral threshold                          ...     2.500000e-11
Primitive cut-off                           ...     2.500000e-12
Primitive pair pre-selection threshold      ...     2.500000e-12

Calculating pre-screening integrals         ... done (  0.1 sec) Dimension = 738
Calculating pre-screening integrals (ORCA)  ... done (  0.3 sec) Dimension = 426
Organizing shell pair data                  ... done (  0.7 sec)
Shell pair information
Total number of shell pairs                 ...    272691
Shell pairs after pre-screening             ...     71635
Total number of primitive shell pairs       ...    422091
Primitive shell pairs kept                  ...     92376
          la=0 lb=0:  29423 shell pairs
          la=1 lb=0:  25980 shell pairs
          la=1 lb=1:   4686 shell pairs
          la=2 lb=0:   7899 shell pairs
          la=2 lb=1:   3116 shell pairs
          la=2 lb=2:    531 shell pairs

Calculating one electron integrals          ... done (  0.2 sec)
Calculating Nuclear repulsion               ... done (  0.0 sec) ENN=   6221.846055274294 Eh

SHARK setup successfully completed in   2.2 seconds

Maximum memory used throughout the entire GTOINT-calculation: 99.0 MB


           ************************************************************
           *        Program running with 16 parallel MPI-processes    *
           *              working on a common directory               *
           ************************************************************
-------------------------------------------------------------------------------
                                 ORCA SCF
-------------------------------------------------------------------------------

------------
SCF SETTINGS
------------
Hamiltonian:
 Ab initio Hamiltonian  Method          .... Hartree-Fock(GTOs)


General Settings:
 Integral files         IntName         .... /scratch/allen/tmpyp4_amber_gaff2/conf1/conf1/Conf273.orca
 Hartree-Fock type      HFTyp           .... RHF
 Total Charge           Charge          ....    0
 Multiplicity           Mult            ....    1
 Number of Electrons    NEL             ....  358
 Basis Dimension        Dim             ....  918
 Nuclear Repulsion      ENuc            ....   6221.8460552743 Eh

Convergence Acceleration:
 DIIS                   CNVDIIS         .... on
   Start iteration      DIISMaxIt       ....    12
   Startup error        DIISStart       ....  0.200000
   # of expansion vecs  DIISMaxEq       ....     5
   Bias factor          DIISBfac        ....   1.050
   Max. coefficient     DIISMaxC        ....  10.000
 Trust-Rad. Augm. Hess. CNVTRAH         .... auto
   Auto Start mean grad. ratio tolernc. ....  1.125000
   Auto Start start iteration           ....    20
   Auto Start num. interpolation iter.  ....    10
   Max. Number of Micro iterations      ....    16
   Max. Number of Macro iterations      .... Maxiter - #DIIS iter
   Number of Davidson start vectors     ....     2
   Converg. threshold I  (grad. norm)   ....   1.000e-05
   Converg. threshold II (energy diff.) ....   1.000e-08
   Grad. Scal. Fac. for Micro threshold ....   0.100
   Minimum threshold for Micro iter.    ....   0.010
   NR start threshold (gradient norm)   ....   0.001
   Initial trust radius                 ....   0.400
   Minimum AH scaling param. (alpha)    ....   1.000
   Maximum AH scaling param. (alpha)    .... 1000.000
   Orbital update algorithm             .... Taylor
   White noise on init. David. guess    .... on
   Maximum white noise                  ....   0.010
   Quad. conv. algorithm                .... NR
 SOSCF                  CNVSOSCF        .... on
   Start iteration      SOSCFMaxIt      ....   150
   Startup grad/error   SOSCFStart      ....  0.003300
 Level Shifting         CNVShift        .... on
   Level shift para.    LevelShift      ....    0.2500
   Turn off err/grad.   ShiftErr        ....    0.0010
 Zerner damping         CNVZerner       .... off
 Static damping         CNVDamp         .... on
   Fraction old density DampFac         ....    0.7000
   Max. Damping (<1)    DampMax         ....    0.9800
   Min. Damping (>=0)   DampMin         ....    0.0000
   Turn off err/grad.   DampErr         ....    0.1000
 Fernandez-Rico         CNVRico         .... off

SCF Procedure:
 Maximum # iterations   MaxIter         ....   125
 SCF integral mode      SCFMode         .... Direct
   Integral package                     .... SHARK and LIBINT hybrid scheme
 Reset frequency        DirectResetFreq ....    20
 Integral Threshold     Thresh          ....  2.500e-11 Eh
 Primitive CutOff       TCut            ....  2.500e-12 Eh

Convergence Tolerance:
 Convergence Check Mode ConvCheckMode   .... Total+1el-Energy
 Convergence forced     ConvForced      .... 1
 Energy Change          TolE            ....  1.000e-08 Eh
 1-El. energy change                    ....  1.000e-05 Eh
 Orbital Gradient       TolG            ....  1.000e-05
 Orbital Rotation angle TolX            ....  1.000e-05
 DIIS Error             TolErr          ....  5.000e-07


Diagonalization of the overlap matrix:
Smallest eigenvalue                        ... 2.264e-04
Time for diagonalization                   ...    0.446 sec
Threshold for overlap eigenvalues          ... 1.000e-08
Number of eigenvalues below threshold      ... 0
Time for construction of square roots      ...    0.270 sec
Total time needed                          ...    0.723 sec

Time for model grid setup =    1.301 sec

------------------------------
INITIAL GUESS: MODEL POTENTIAL
------------------------------
Loading Hartree-Fock densities                     ... done
Calculating cut-offs                               ... done
Initializing the effective Hamiltonian             ... done
Setting up the integral package (SHARK)            ... done
Starting the Coulomb interaction                   ... done (   1.4 sec)
Reading the grid                                   ... done
Mapping shells                                     ... done
Starting the XC term evaluation                    ... done (   0.2 sec)
Transforming the Hamiltonian                       ... done (   0.3 sec)
Diagonalizing the Hamiltonian                      ... done (   0.4 sec)
Back transforming the eigenvectors                 ... done (   0.1 sec)
Now organizing SCF variables                       ... done
                      ------------------
                      INITIAL GUESS DONE (   3.8 sec)
                      ------------------
--------------
SCF ITERATIONS
--------------
ITER       Energy         Delta-E        Max-DP      RMS-DP      [F,P]     Damp
               ***  Starting incremental Fock matrix formation  ***
  0  -2121.6414206351   0.000000000000 0.06934134  0.00121180  0.2351269 0.7000
  1  -2122.3103857088  -0.668965073712 0.05271757  0.00098175  0.1454587 0.7000
                               ***Turning on DIIS***
  2  -2122.7265566477  -0.416170938885 0.11740039  0.00221877  0.0807624 0.0000
  3  -2117.7689465929   4.957610054847 0.03422644  0.00068524  0.0442640 0.0000
  4  -2123.4135256681  -5.644579075200 0.00933902  0.00023052  0.0073943 0.0000
  5  -2123.5808689723  -0.167343304256 0.00551788  0.00013876  0.0051651 0.0000
  6  -2123.5596738443   0.021195128031 0.00467540  0.00009515  0.0024738 0.0000
  7  -2123.6639659694  -0.104292125128 0.00419792  0.00008040  0.0019531 0.0000
  8  -2123.6919638013  -0.027997831834 0.00409363  0.00008210  0.0018400 0.0000
                      *** Initiating the SOSCF procedure ***
                           *** Shutting down DIIS ***
                      *** Re-Reading the Fockian *** 
                      *** Removing any level shift *** 
ITER      Energy       Delta-E        Grad      Rot      Max-DP    RMS-DP
  9  -2123.65067293   0.0412908740  0.003167  0.003167  0.002969  0.000061
               *** Restarting incremental Fock matrix formation ***
 10  -2123.60768764   0.0429852915  0.002226  0.021725  0.006200  0.000102
 11  -2123.60837409  -0.0006864517  0.001451  0.073065  0.018157  0.000344
 12  -2123.60960266  -0.0012285738  0.001112  0.017888  0.005710  0.000087
 13  -2123.60993635  -0.0003336920  0.000896  0.019917  0.006454  0.000105
 14  -2123.61017300  -0.0002366444  0.000531  0.011396  0.003881  0.000052
 15  -2123.61025962  -0.0000866197  0.000349  0.011491  0.003589  0.000053
 16  -2123.61032018  -0.0000605583  0.000285  0.006706  0.001668  0.000027
 17  -2123.61034048  -0.0000203035  0.000152  0.001584  0.000601  0.000009
 18  -2123.61034550  -0.0000050213  0.000115  0.001754  0.000326  0.000007
 19  -2123.61034777  -0.0000022682  0.000070  0.002004  0.000335  0.000006
 20  -2123.61034919  -0.0000014194  0.000065  0.002907  0.000460  0.000008
 21  -2123.61035029  -0.0000010989  0.000038  0.002597  0.000457  0.000008
 22  -2123.61035098  -0.0000006908  0.000031  0.001640  0.000288  0.000005
 23  -2123.61035131  -0.0000003359  0.000027  0.000722  0.000226  0.000003
 24  -2123.61035150  -0.0000001913  0.000023  0.000629  0.000188  0.000003
 25  -2123.61035162  -0.0000001196  0.000019  0.000629  0.000187  0.000002
 26  -2123.61035171  -0.0000000871  0.000013  0.000491  0.000154  0.000002
 27  -2123.61035177  -0.0000000607  0.000009  0.000285  0.000093  0.000001
 28  -2123.61035180  -0.0000000305  0.000004  0.000059  0.000019  0.000000
 29  -2123.61035181  -0.0000000068  0.000003  0.000016  0.000008  0.000000
               *** Restarting incremental Fock matrix formation ***
                  ***Gradient check signals convergence***
              ***Rediagonalizing the Fockian in SOSCF/NRSCF***

               *****************************************************
               *                     SUCCESS                       *
               *           SCF CONVERGED AFTER  30 CYCLES          *
               *****************************************************


----------------
TOTAL SCF ENERGY
----------------

Total Energy       :        -2123.61035177 Eh          -57786.37547 eV

Components:
Nuclear Repulsion  :         6221.84605527 Eh          169305.03847 eV
Electronic Energy  :        -8345.45640705 Eh         -227091.41394 eV
One Electron Energy:       -15285.18455415 Eh         -415931.01724 eV
Two Electron Energy:         6939.72814710 Eh          188839.60330 eV

Virial components:
Potential Energy   :        -4245.59558492 Eh         -115528.52922 eV
Kinetic Energy     :         2121.98523315 Eh           57742.15375 eV
Virial Ratio       :            2.00076585


---------------
SCF CONVERGENCE
---------------

  Last Energy change         ...    3.7271e-08  Tolerance :   1.0000e-08
  Last MAX-Density change    ...    5.7124e-06  Tolerance :   1.0000e-07
  Last RMS-Density change    ...    1.2017e-07  Tolerance :   5.0000e-09
  Last Orbital Gradient      ...    1.3889e-06  Tolerance :   1.0000e-05
  Last Orbital Rotation      ...    1.7184e-05  Tolerance :   1.0000e-05

             **** THE GBW FILE WAS UPDATED (/scratch/allen/tmpyp4_amber_gaff2/conf1/conf1/Conf273.orca.gbw) ****
             **** DENSITY /scratch/allen/tmpyp4_amber_gaff2/conf1/conf1/Conf273.orca.scfp WAS UPDATED ****
             **** ENERGY FILE WAS UPDATED (/scratch/allen/tmpyp4_amber_gaff2/conf1/conf1/Conf273.orca.en.tmp) ****
             **** THE GBW FILE WAS UPDATED (/scratch/allen/tmpyp4_amber_gaff2/conf1/conf1/Conf273.orca.gbw) ****
             **** DENSITY /scratch/allen/tmpyp4_amber_gaff2/conf1/conf1/Conf273.orca.scfp WAS UPDATED ****
----------------
ORBITAL ENERGIES
----------------

  NO   OCC          E(Eh)            E(eV) 
   0   2.0000     -15.719727      -427.7555 
   1   2.0000     -15.628342      -425.2688 
   2   2.0000     -15.618645      -425.0049 
   3   2.0000     -15.576567      -423.8599 
   4   2.0000     -15.520616      -422.3374 
   5   2.0000     -15.504114      -421.8884 
   6   2.0000     -15.451277      -420.4506 
   7   2.0000     -15.426761      -419.7835 
   8   2.0000     -11.357011      -309.0400 
   9   2.0000     -11.356503      -309.0262 
  10   2.0000     -11.350043      -308.8504 
  11   2.0000     -11.313566      -307.8578 
  12   2.0000     -11.296294      -307.3878 
  13   2.0000     -11.290550      -307.2315 
  14   2.0000     -11.289646      -307.2069 
  15   2.0000     -11.286446      -307.1198 
  16   2.0000     -11.286302      -307.1159 
  17   2.0000     -11.281518      -306.9857 
  18   2.0000     -11.280289      -306.9523 
  19   2.0000     -11.271342      -306.7088 
  20   2.0000     -11.263164      -306.4863 
  21   2.0000     -11.243117      -305.9408 
  22   2.0000     -11.239408      -305.8398 
  23   2.0000     -11.232102      -305.6410 
  24   2.0000     -11.226671      -305.4933 
  25   2.0000     -11.225783      -305.4691 
  26   2.0000     -11.222936      -305.3916 
  27   2.0000     -11.218956      -305.2833 
  28   2.0000     -11.218654      -305.2751 
  29   2.0000     -11.211176      -305.0716 
  30   2.0000     -11.209369      -305.0224 
  31   2.0000     -11.195347      -304.6409 
  32   2.0000     -11.194218      -304.6102 
  33   2.0000     -11.193041      -304.5781 
  34   2.0000     -11.188227      -304.4471 
  35   2.0000     -11.187470      -304.4265 
  36   2.0000     -11.183147      -304.3089 
  37   2.0000     -11.179840      -304.2189 
  38   2.0000     -11.179748      -304.2164 
  39   2.0000     -11.177835      -304.1644 
  40   2.0000     -11.170105      -303.9540 
  41   2.0000     -11.165237      -303.8215 
  42   2.0000     -11.164601      -303.8042 
  43   2.0000     -11.161735      -303.7263 
  44   2.0000     -11.160550      -303.6940 
  45   2.0000     -11.144511      -303.2576 
  46   2.0000     -11.143872      -303.2402 
  47   2.0000     -11.140674      -303.1531 
  48   2.0000     -11.137316      -303.0618 
  49   2.0000     -11.130836      -302.8854 
  50   2.0000     -11.116546      -302.4966 
  51   2.0000     -11.110869      -302.3421 
  52   2.0000      -1.391626       -37.8681 
  53   2.0000      -1.316606       -35.8267 
  54   2.0000      -1.307634       -35.5825 
  55   2.0000      -1.271847       -34.6087 
  56   2.0000      -1.224404       -33.3177 
  57   2.0000      -1.200177       -32.6585 
  58   2.0000      -1.178135       -32.0587 
  59   2.0000      -1.164871       -31.6978 
  60   2.0000      -1.136777       -30.9333 
  61   2.0000      -1.109339       -30.1866 
  62   2.0000      -1.105934       -30.0940 
  63   2.0000      -1.097363       -29.8608 
  64   2.0000      -1.066035       -29.0083 
  65   2.0000      -1.057395       -28.7732 
  66   2.0000      -1.041071       -28.3290 
  67   2.0000      -1.032567       -28.0976 
  68   2.0000      -1.015160       -27.6239 
  69   2.0000      -1.003916       -27.3179 
  70   2.0000      -0.999065       -27.1860 
  71   2.0000      -0.994987       -27.0750 
  72   2.0000      -0.985497       -26.8167 
  73   2.0000      -0.976074       -26.5603 
  74   2.0000      -0.964288       -26.2396 
  75   2.0000      -0.961370       -26.1602 
  76   2.0000      -0.950745       -25.8711 
  77   2.0000      -0.940441       -25.5907 
  78   2.0000      -0.935176       -25.4474 
  79   2.0000      -0.919664       -25.0253 
  80   2.0000      -0.912212       -24.8226 
  81   2.0000      -0.891137       -24.2491 
  82   2.0000      -0.886642       -24.1268 
  83   2.0000      -0.868187       -23.6246 
  84   2.0000      -0.860071       -23.4037 
  85   2.0000      -0.846342       -23.0301 
  86   2.0000      -0.829017       -22.5587 
  87   2.0000      -0.826483       -22.4897 
  88   2.0000      -0.820174       -22.3181 
  89   2.0000      -0.794270       -21.6132 
  90   2.0000      -0.785785       -21.3823 
  91   2.0000      -0.772215       -21.0130 
  92   2.0000      -0.740139       -20.1402 
  93   2.0000      -0.733506       -19.9597 
  94   2.0000      -0.728816       -19.8321 
  95   2.0000      -0.723989       -19.7007 
  96   2.0000      -0.716068       -19.4852 
  97   2.0000      -0.710553       -19.3351 
  98   2.0000      -0.706069       -19.2131 
  99   2.0000      -0.705403       -19.1950 
 100   2.0000      -0.695781       -18.9332 
 101   2.0000      -0.688036       -18.7224 
 102   2.0000      -0.684040       -18.6137 
 103   2.0000      -0.675511       -18.3816 
 104   2.0000      -0.672327       -18.2950 
 105   2.0000      -0.671171       -18.2635 
 106   2.0000      -0.666845       -18.1458 
 107   2.0000      -0.661727       -18.0065 
 108   2.0000      -0.651997       -17.7417 
 109   2.0000      -0.648961       -17.6591 
 110   2.0000      -0.648373       -17.6431 
 111   2.0000      -0.642056       -17.4712 
 112   2.0000      -0.640445       -17.4274 
 113   2.0000      -0.634487       -17.2653 
 114   2.0000      -0.633882       -17.2488 
 115   2.0000      -0.629238       -17.1224 
 116   2.0000      -0.627052       -17.0630 
 117   2.0000      -0.614850       -16.7309 
 118   2.0000      -0.610802       -16.6208 
 119   2.0000      -0.608923       -16.5696 
 120   2.0000      -0.608282       -16.5522 
 121   2.0000      -0.600734       -16.3468 
 122   2.0000      -0.592563       -16.1245 
 123   2.0000      -0.589225       -16.0336 
 124   2.0000      -0.584193       -15.8967 
 125   2.0000      -0.578107       -15.7311 
 126   2.0000      -0.574723       -15.6390 
 127   2.0000      -0.570942       -15.5361 
 128   2.0000      -0.570542       -15.5252 
 129   2.0000      -0.569815       -15.5054 
 130   2.0000      -0.556275       -15.1370 
 131   2.0000      -0.543026       -14.7765 
 132   2.0000      -0.541959       -14.7475 
 133   2.0000      -0.538354       -14.6494 
 134   2.0000      -0.533467       -14.5164 
 135   2.0000      -0.529257       -14.4018 
 136   2.0000      -0.519418       -14.1341 
 137   2.0000      -0.515637       -14.0312 
 138   2.0000      -0.513587       -13.9754 
 139   2.0000      -0.512062       -13.9339 
 140   2.0000      -0.509655       -13.8684 
 141   2.0000      -0.503233       -13.6937 
 142   2.0000      -0.501194       -13.6382 
 143   2.0000      -0.497556       -13.5392 
 144   2.0000      -0.495254       -13.4766 
 145   2.0000      -0.492743       -13.4082 
 146   2.0000      -0.488422       -13.2906 
 147   2.0000      -0.473237       -12.8774 
 148   2.0000      -0.470141       -12.7932 
 149   2.0000      -0.465776       -12.6744 
 150   2.0000      -0.462735       -12.5917 
 151   2.0000      -0.460073       -12.5192 
 152   2.0000      -0.451838       -12.2951 
 153   2.0000      -0.440771       -11.9940 
 154   2.0000      -0.432735       -11.7753 
 155   2.0000      -0.431000       -11.7281 
 156   2.0000      -0.418300       -11.3825 
 157   2.0000      -0.416605       -11.3364 
 158   2.0000      -0.411141       -11.1877 
 159   2.0000      -0.409836       -11.1522 
 160   2.0000      -0.381451       -10.3798 
 161   2.0000      -0.369376       -10.0512 
 162   2.0000      -0.353227        -9.6118 
 163   2.0000      -0.351690        -9.5700 
 164   2.0000      -0.345649        -9.4056 
 165   2.0000      -0.341574        -9.2947 
 166   2.0000      -0.337950        -9.1961 
 167   2.0000      -0.316957        -8.6248 
 168   2.0000      -0.311842        -8.4856 
 169   2.0000      -0.304910        -8.2970 
 170   2.0000      -0.298040        -8.1101 
 171   2.0000      -0.282440        -7.6856 
 172   2.0000      -0.275438        -7.4951 
 173   2.0000      -0.266460        -7.2508 
 174   2.0000      -0.228877        -6.2281 
 175   2.0000      -0.182949        -4.9783 
 176   2.0000      -0.173133        -4.7112 
 177   2.0000      -0.062610        -1.7037 
 178   2.0000      -0.050777        -1.3817 
 179   0.0000       0.036164         0.9841 
 180   0.0000       0.054393         1.4801 
 181   0.0000       0.073678         2.0049 
 182   0.0000       0.098630         2.6839 
 183   0.0000       0.102324         2.7844 
 184   0.0000       0.123319         3.3557 
 185   0.0000       0.141549         3.8517 
 186   0.0000       0.149081         4.0567 
 187   0.0000       0.160884         4.3779 
 188   0.0000       0.165480         4.5029 
 189   0.0000       0.166961         4.5432 
 190   0.0000       0.167403         4.5553 
 191   0.0000       0.173164         4.7120 
 192   0.0000       0.180333         4.9071 
 193   0.0000       0.195799         5.3280 
 194   0.0000       0.200040         5.4434 
 195   0.0000       0.206053         5.6070 
 196   0.0000       0.212293         5.7768 
 197   0.0000       0.212442         5.7808 
 198   0.0000       0.217149         5.9089 
 199   0.0000       0.218025         5.9328 
 200   0.0000       0.229866         6.2550 
 201   0.0000       0.236872         6.4456 
 202   0.0000       0.237766         6.4699 
 203   0.0000       0.239942         6.5292 
 204   0.0000       0.241485         6.5711 
 205   0.0000       0.246052         6.6954 
 206   0.0000       0.247030         6.7220 
 207   0.0000       0.249331         6.7846 
 208   0.0000       0.251182         6.8350 
 209   0.0000       0.258384         7.0310 
 210   0.0000       0.263644         7.1741 
 211   0.0000       0.267097         7.2681 
 212   0.0000       0.268360         7.3025 
 213   0.0000       0.274069         7.4578 
 214   0.0000       0.279053         7.5934 
 215   0.0000       0.280833         7.6419 
 216   0.0000       0.283565         7.7162 
 217   0.0000       0.285274         7.7627 
 218   0.0000       0.287405         7.8207 
 219   0.0000       0.289516         7.8781 
 220   0.0000       0.290375         7.9015 
 221   0.0000       0.294546         8.0150 
 222   0.0000       0.299141         8.1400 
 223   0.0000       0.299951         8.1621 
 224   0.0000       0.300444         8.1755 
 225   0.0000       0.305329         8.3084 
 226   0.0000       0.306732         8.3466 
 227   0.0000       0.307223         8.3600 
 228   0.0000       0.317890         8.6502 
 229   0.0000       0.320580         8.7234 
 230   0.0000       0.327536         8.9127 
 231   0.0000       0.330381         8.9901 
 232   0.0000       0.333202         9.0669 
 233   0.0000       0.336650         9.1607 
 234   0.0000       0.340369         9.2619 
 235   0.0000       0.356558         9.7024 
 236   0.0000       0.358309         9.7501 
 237   0.0000       0.361617         9.8401 
 238   0.0000       0.374401        10.1880 
 239   0.0000       0.387119        10.5340 
 240   0.0000       0.394451        10.7336 
 241   0.0000       0.398932        10.8555 
 242   0.0000       0.408234        11.1086 
 243   0.0000       0.417231        11.3534 
 244   0.0000       0.423655        11.5282 
 245   0.0000       0.430688        11.7196 
 246   0.0000       0.436471        11.8770 
 247   0.0000       0.438623        11.9355 
 248   0.0000       0.443615        12.0714 
 249   0.0000       0.444727        12.1016 
 250   0.0000       0.451836        12.2951 
 251   0.0000       0.456177        12.4132 
 252   0.0000       0.457856        12.4589 
 253   0.0000       0.469279        12.7697 
 254   0.0000       0.471291        12.8245 
 255   0.0000       0.476744        12.9729 
 256   0.0000       0.479755        13.0548 
 257   0.0000       0.483346        13.1525 
 258   0.0000       0.484262        13.1775 
 259   0.0000       0.492934        13.4134 
 260   0.0000       0.501411        13.6441 
 261   0.0000       0.504903        13.7391 
 262   0.0000       0.506655        13.7868 
 263   0.0000       0.509692        13.8694 
 264   0.0000       0.512129        13.9358 
 265   0.0000       0.517119        14.0715 
 266   0.0000       0.521226        14.1833 
 267   0.0000       0.525463        14.2986 
 268   0.0000       0.531799        14.4710 
 269   0.0000       0.538598        14.6560 
 270   0.0000       0.543316        14.7844 
 271   0.0000       0.544743        14.8232 
 272   0.0000       0.546957        14.8835 
 273   0.0000       0.548622        14.9288 
 274   0.0000       0.553054        15.0494 
 275   0.0000       0.560610        15.2550 
 276   0.0000       0.568445        15.4682 
 277   0.0000       0.571689        15.5565 
 278   0.0000       0.578485        15.7414 
 279   0.0000       0.585965        15.9449 
 280   0.0000       0.587995        16.0002 
 281   0.0000       0.593952        16.1623 
 282   0.0000       0.597185        16.2502 
 283   0.0000       0.598335        16.2815 
 284   0.0000       0.600125        16.3302 
 285   0.0000       0.601817        16.3763 
 286   0.0000       0.604904        16.4603 
 287   0.0000       0.608055        16.5460 
 288   0.0000       0.613027        16.6813 
 289   0.0000       0.620150        16.8751 
 290   0.0000       0.626470        17.0471 
 291   0.0000       0.629743        17.1362 
 292   0.0000       0.632649        17.2152 
 293   0.0000       0.638178        17.3657 
 294   0.0000       0.642910        17.4945 
 295   0.0000       0.646705        17.5977 
 296   0.0000       0.648374        17.6432 
 297   0.0000       0.655628        17.8406 
 298   0.0000       0.659846        17.9553 
 299   0.0000       0.662419        18.0253 
 300   0.0000       0.663628        18.0582 
 301   0.0000       0.668835        18.1999 
 302   0.0000       0.669214        18.2102 
 303   0.0000       0.673682        18.3318 
 304   0.0000       0.677986        18.4489 
 305   0.0000       0.679955        18.5025 
 306   0.0000       0.683056        18.5869 
 307   0.0000       0.686662        18.6850 
 308   0.0000       0.690847        18.7989 
 309   0.0000       0.693626        18.8745 
 310   0.0000       0.699288        19.0286 
 311   0.0000       0.700987        19.0748 
 312   0.0000       0.704896        19.1812 
 313   0.0000       0.707548        19.2534 
 314   0.0000       0.712421        19.3860 
 315   0.0000       0.714900        19.4534 
 316   0.0000       0.715706        19.4753 
 317   0.0000       0.717850        19.5337 
 318   0.0000       0.719438        19.5769 
 319   0.0000       0.722940        19.6722 
 320   0.0000       0.725973        19.7547 
 321   0.0000       0.729318        19.8458 
 322   0.0000       0.731702        19.9106 
 323   0.0000       0.737744        20.0750 
 324   0.0000       0.739096        20.1118 
 325   0.0000       0.744043        20.2465 
 326   0.0000       0.744568        20.2607 
 327   0.0000       0.748123        20.3575 
 328   0.0000       0.752954        20.4889 
 329   0.0000       0.755184        20.5496 
 330   0.0000       0.759465        20.6661 
 331   0.0000       0.760761        20.7014 
 332   0.0000       0.762725        20.7548 
 333   0.0000       0.765070        20.8186 
 334   0.0000       0.765668        20.8349 
 335   0.0000       0.767754        20.8916 
 336   0.0000       0.771026        20.9807 
 337   0.0000       0.776019        21.1166 
 338   0.0000       0.783624        21.3235 
 339   0.0000       0.786249        21.3949 
 340   0.0000       0.789277        21.4773 
 341   0.0000       0.791426        21.5358 
 342   0.0000       0.792700        21.5705 
 343   0.0000       0.794554        21.6209 
 344   0.0000       0.796651        21.6780 
 345   0.0000       0.797865        21.7110 
 346   0.0000       0.805016        21.9056 
 347   0.0000       0.806051        21.9338 
 348   0.0000       0.811713        22.0878 
 349   0.0000       0.814895        22.1744 
 350   0.0000       0.817388        22.2423 
 351   0.0000       0.821833        22.3632 
 352   0.0000       0.825029        22.4502 
 353   0.0000       0.825456        22.4618 
 354   0.0000       0.828268        22.5383 
 355   0.0000       0.829709        22.5775 
 356   0.0000       0.830478        22.5985 
 357   0.0000       0.836739        22.7688 
 358   0.0000       0.840537        22.8722 
 359   0.0000       0.840683        22.8762 
 360   0.0000       0.844770        22.9874 
 361   0.0000       0.845975        23.0202 
 362   0.0000       0.849020        23.1030 
 363   0.0000       0.851186        23.1619 
 364   0.0000       0.851619        23.1737 
 365   0.0000       0.857693        23.3390 
 366   0.0000       0.859047        23.3759 
 367   0.0000       0.859552        23.3896 
 368   0.0000       0.861923        23.4541 
 369   0.0000       0.864960        23.5368 
 370   0.0000       0.866749        23.5854 
 371   0.0000       0.868670        23.6377 
 372   0.0000       0.869535        23.6612 
 373   0.0000       0.871570        23.7166 
 374   0.0000       0.875233        23.8163 
 375   0.0000       0.877168        23.8690 
 376   0.0000       0.878521        23.9058 
 377   0.0000       0.878917        23.9165 
 378   0.0000       0.884325        24.0637 
 379   0.0000       0.889733        24.2109 
 380   0.0000       0.889803        24.2128 
 381   0.0000       0.891649        24.2630 
 382   0.0000       0.902025        24.5453 
 383   0.0000       0.903854        24.5951 
 384   0.0000       0.904010        24.5994 
 385   0.0000       0.908099        24.7106 
 386   0.0000       0.910058        24.7639 
 387   0.0000       0.916310        24.9341 
 388   0.0000       0.918039        24.9811 
 389   0.0000       0.918650        24.9977 
 390   0.0000       0.920281        25.0421 
 391   0.0000       0.925075        25.1726 
 392   0.0000       0.928411        25.2633 
 393   0.0000       0.933249        25.3950 
 394   0.0000       0.933642        25.4057 
 395   0.0000       0.935858        25.4660 
 396   0.0000       0.936568        25.4853 
 397   0.0000       0.939562        25.5668 
 398   0.0000       0.941160        25.6103 
 399   0.0000       0.942702        25.6522 
 400   0.0000       0.945640        25.7322 
 401   0.0000       0.948800        25.8182 
 402   0.0000       0.952103        25.9080 
 403   0.0000       0.956289        26.0219 
 404   0.0000       0.958970        26.0949 
 405   0.0000       0.960571        26.1385 
 406   0.0000       0.963007        26.2047 
 407   0.0000       0.967447        26.3256 
 408   0.0000       0.969182        26.3728 
 409   0.0000       0.975072        26.5331 
 410   0.0000       0.981246        26.7011 
 411   0.0000       0.984877        26.7999 
 412   0.0000       0.988350        26.8944 
 413   0.0000       0.996565        27.1179 
 414   0.0000       0.996891        27.1268 
 415   0.0000       0.999945        27.2099 
 416   0.0000       1.004475        27.3332 
 417   0.0000       1.007239        27.4084 
 418   0.0000       1.008897        27.4535 
 419   0.0000       1.011352        27.5203 
 420   0.0000       1.019389        27.7390 
 421   0.0000       1.027195        27.9514 
 422   0.0000       1.033065        28.1111 
 423   0.0000       1.037938        28.2437 
 424   0.0000       1.039665        28.2907 
 425   0.0000       1.046082        28.4653 
 426   0.0000       1.056837        28.7580 
 427   0.0000       1.063078        28.9278 
 428   0.0000       1.066501        29.0210 
 429   0.0000       1.070687        29.1349 
 430   0.0000       1.073840        29.2207 
 431   0.0000       1.082446        29.4549 
 432   0.0000       1.085508        29.5382 
 433   0.0000       1.088359        29.6158 
 434   0.0000       1.094339        29.7785 
 435   0.0000       1.096400        29.8345 
 436   0.0000       1.102639        30.0043 
 437   0.0000       1.110595        30.2208 
 438   0.0000       1.112494        30.2725 
 439   0.0000       1.115022        30.3413 
 440   0.0000       1.117088        30.3975 
 441   0.0000       1.118518        30.4364 
 442   0.0000       1.124103        30.5884 
 443   0.0000       1.128519        30.7086 
 444   0.0000       1.133295        30.8385 
 445   0.0000       1.134922        30.8828 
 446   0.0000       1.142009        31.0756 
 447   0.0000       1.143985        31.1294 
 448   0.0000       1.145187        31.1621 
 449   0.0000       1.148856        31.2620 
 450   0.0000       1.155452        31.4415 
 451   0.0000       1.156364        31.4663 
 452   0.0000       1.158989        31.5377 
 453   0.0000       1.160643        31.5827 
 454   0.0000       1.165850        31.7244 
 455   0.0000       1.167781        31.7769 
 456   0.0000       1.175860        31.9968 
 457   0.0000       1.177938        32.0533 
 458   0.0000       1.183562        32.2064 
 459   0.0000       1.186395        32.2834 
 460   0.0000       1.189611        32.3710 
 461   0.0000       1.191414        32.4200 
 462   0.0000       1.200001        32.6537 
 463   0.0000       1.200235        32.6600 
 464   0.0000       1.204638        32.7799 
 465   0.0000       1.209108        32.9015 
 466   0.0000       1.210234        32.9321 
 467   0.0000       1.213008        33.0076 
 468   0.0000       1.216923        33.1142 
 469   0.0000       1.220551        33.2129 
 470   0.0000       1.226686        33.3798 
 471   0.0000       1.229280        33.4504 
 472   0.0000       1.233431        33.5634 
 473   0.0000       1.237611        33.6771 
 474   0.0000       1.238901        33.7122 
 475   0.0000       1.242930        33.8218 
 476   0.0000       1.246388        33.9160 
 477   0.0000       1.250118        34.0174 
 478   0.0000       1.257147        34.2087 
 479   0.0000       1.258033        34.2328 
 480   0.0000       1.258497        34.2454 
 481   0.0000       1.264152        34.3993 
 482   0.0000       1.265488        34.4357 
 483   0.0000       1.269621        34.5481 
 484   0.0000       1.275583        34.7104 
 485   0.0000       1.282362        34.8948 
 486   0.0000       1.283568        34.9277 
 487   0.0000       1.286651        35.0116 
 488   0.0000       1.289594        35.0916 
 489   0.0000       1.292109        35.1601 
 490   0.0000       1.295458        35.2512 
 491   0.0000       1.299858        35.3709 
 492   0.0000       1.302667        35.4474 
 493   0.0000       1.305937        35.5363 
 494   0.0000       1.310540        35.6616 
 495   0.0000       1.314570        35.7713 
 496   0.0000       1.319528        35.9062 
 497   0.0000       1.323132        36.0042 
 498   0.0000       1.324731        36.0478 
 499   0.0000       1.331233        36.2247 
 500   0.0000       1.332634        36.2628 
 501   0.0000       1.336812        36.3765 
 502   0.0000       1.340135        36.4669 
 503   0.0000       1.343038        36.5459 
 504   0.0000       1.346284        36.6342 
[...]
      pz      :     0.021742  p :     0.079237
      px      :     0.042799
      py      :     0.014696
 77 H s       :     0.896325  s :     0.896325
      pz      :     0.047063  p :     0.078277
      px      :     0.015002
      py      :     0.016212
 78 H s       :     0.896723  s :     0.896723
      pz      :     0.025415  p :     0.078187
      px      :     0.020724
      py      :     0.032047
 79 H s       :     0.906980  s :     0.906980
      pz      :     0.022662  p :     0.087335
      px      :     0.021913
      py      :     0.042760
 80 H s       :     0.880796  s :     0.880796
      pz      :     0.038073  p :     0.083085
      px      :     0.029436
      py      :     0.015575
 81 H s       :     0.888984  s :     0.888984
      pz      :     0.037523  p :     0.083233
      px      :     0.016069
      py      :     0.029641
 82 H s       :     0.914164  s :     0.914164
      pz      :     0.022553  p :     0.087187
      px      :     0.030861
      py      :     0.033773
 83 H s       :     0.872308  s :     0.872308
      pz      :     0.039155  p :     0.083593
      px      :     0.015247
      py      :     0.029190
 84 H s       :     0.889045  s :     0.889045
      pz      :     0.035806  p :     0.084526
      px      :     0.031809
      py      :     0.016911
 85 H s       :     0.896449  s :     0.896449
      pz      :     0.022508  p :     0.079584
      px      :     0.014166
      py      :     0.042910
 86 H s       :     0.890826  s :     0.890826
      pz      :     0.024693  p :     0.078888
      px      :     0.032987
      py      :     0.021207
 87 H s       :     0.891512  s :     0.891512
      pz      :     0.047780  p :     0.078566
      px      :     0.015664
      py      :     0.015121
 88 H s       :     0.918826  s :     0.918826
      pz      :     0.022602  p :     0.086824
      px      :     0.041906
      py      :     0.022316
 89 H s       :     0.875805  s :     0.875805
      pz      :     0.037785  p :     0.084043
      px      :     0.030454
      py      :     0.015804


                      *****************************
                      * MAYER POPULATION ANALYSIS *
                      *****************************

  NA   - Mulliken gross atomic population
  ZA   - Total nuclear charge
  QA   - Mulliken gross atomic charge
  VA   - Mayer's total valence
  BVA  - Mayer's bonded valence
  FA   - Mayer's free valence

  ATOM       NA         ZA         QA         VA         BVA        FA
  0 C      5.7625     6.0000     0.2375     3.7989     3.7989     0.0000
  1 N      7.4099     7.0000    -0.4099     3.4864     3.4864     0.0000
  2 C      6.0665     6.0000    -0.0665     3.9207     3.9207    -0.0000
  3 N      7.3444     7.0000    -0.3444     3.4190     3.4190    -0.0000
  4 C      6.0677     6.0000    -0.0677     3.9520     3.9520     0.0000
  5 N      7.5662     7.0000    -0.5662     3.0654     3.0654    -0.0000
  6 C      6.0269     6.0000    -0.0269     3.9587     3.9587    -0.0000
  7 N      7.3368     7.0000    -0.3368     3.4458     3.4458    -0.0000
  8 C      5.7635     6.0000     0.2365     3.7988     3.7988     0.0000
  9 N      7.5664     7.0000    -0.5664     3.0927     3.0927    -0.0000
 10 C      5.8973     6.0000     0.1027     3.8571     3.8571    -0.0000
 11 N      7.4402     7.0000    -0.4402     3.3706     3.3706     0.0000
 12 C      6.0579     6.0000    -0.0579     3.9083     3.9083     0.0000
 13 N      7.4519     7.0000    -0.4519     3.3124     3.3124     0.0000
 14 C      5.7813     6.0000     0.2187     3.8124     3.8124     0.0000
 15 N      7.4418     7.0000    -0.4418     3.3620     3.3620     0.0000
 16 C      5.7418     6.0000     0.2582     3.8066     3.8066     0.0000
 17 C      6.0299     6.0000    -0.0299     3.9589     3.9589     0.0000
 18 C      6.1737     6.0000    -0.1737     3.6697     3.6697     0.0000
 19 C      5.7706     6.0000     0.2294     3.9037     3.9037    -0.0000
 20 C      5.8142     6.0000     0.1858     3.8207     3.8207    -0.0000
 21 C      6.0668     6.0000    -0.0668     3.8895     3.8895     0.0000
 22 C      6.0923     6.0000    -0.0923     3.9850     3.9850     0.0000
 23 C      6.0693     6.0000    -0.0693     3.9884     3.9884     0.0000
 24 C      5.7824     6.0000     0.2176     3.8311     3.8311    -0.0000
 25 C      5.8848     6.0000     0.1152     3.8945     3.8945    -0.0000
 26 C      6.0650     6.0000    -0.0650     3.9099     3.9099    -0.0000
 27 C      5.7500     6.0000     0.2500     3.9038     3.9038    -0.0000
 28 C      6.0388     6.0000    -0.0388     3.9912     3.9912    -0.0000
 29 C      6.1979     6.0000    -0.1979     3.7281     3.7281    -0.0000
 30 C      5.7805     6.0000     0.2195     3.7770     3.7770    -0.0000
 31 C      5.8140     6.0000     0.1860     3.8341     3.8341     0.0000
 32 C      6.0643     6.0000    -0.0643     3.9129     3.9129     0.0000
 33 C      6.1043     6.0000    -0.1043     3.9838     3.9838     0.0000
 34 C      6.0504     6.0000    -0.0504     4.0002     4.0002     0.0000
 35 C      5.8238     6.0000     0.1762     3.8301     3.8301     0.0000
 36 C      5.8784     6.0000     0.1216     3.9121     3.9121     0.0000
 37 C      6.0709     6.0000    -0.0709     3.9131     3.9131     0.0000
 38 C      5.7548     6.0000     0.2452     3.7938     3.7938     0.0000
 39 C      6.0658     6.0000    -0.0658     3.9996     3.9996     0.0000
 40 C      6.2057     6.0000    -0.2057     3.7536     3.7536     0.0000
 41 C      5.7843     6.0000     0.2157     3.8731     3.8731     0.0000
 42 C      5.7873     6.0000     0.2127     3.8333     3.8333    -0.0000
 43 C      6.0778     6.0000    -0.0778     3.9051     3.9051     0.0000
 44 C      6.0928     6.0000    -0.0928     3.9827     3.9827    -0.0000
 45 C      6.0370     6.0000    -0.0370     3.9965     3.9965    -0.0000
 46 C      5.8179     6.0000     0.1821     3.8195     3.8195    -0.0000
 47 C      5.8831     6.0000     0.1169     3.8976     3.8976     0.0000
 48 C      6.0828     6.0000    -0.0828     3.8969     3.8969     0.0000
 49 C      5.7941     6.0000     0.2059     3.8603     3.8603    -0.0000
 50 C      6.0689     6.0000    -0.0689     3.9903     3.9903    -0.0000
 51 C      6.1886     6.0000    -0.1886     3.7432     3.7432    -0.0000
 52 H      0.9158     1.0000     0.0842     0.9818     0.9818     0.0000
 53 H      1.0062     1.0000    -0.0062     1.0028     1.0028    -0.0000
 54 H      0.9318     1.0000     0.0682     1.0048     1.0048     0.0000
 55 H      0.9177     1.0000     0.0823     0.9826     0.9826     0.0000
 56 H      0.9128     1.0000     0.0872     0.9727     0.9727    -0.0000
 57 H      0.9224     1.0000     0.0776     0.9848     0.9848    -0.0000
 58 H      0.9237     1.0000     0.0763     0.9871     0.9871    -0.0000
 59 H      1.0304     1.0000    -0.0304     0.9961     0.9961     0.0000
 60 H      0.9303     1.0000     0.0697     1.0045     1.0045     0.0000
 61 H      0.8224     1.0000     0.1776     1.0439     1.0439    -0.0000
 62 H      0.8327     1.0000     0.1673     1.0433     1.0433    -0.0000
 63 H      0.9482     1.0000     0.0518     0.9864     0.9864    -0.0000
 64 H      1.0357     1.0000    -0.0357     0.9928     0.9928    -0.0000
 65 H      0.9605     1.0000     0.0395     1.0076     1.0076    -0.0000
 66 H      0.9460     1.0000     0.0540     0.9847     0.9847    -0.0000
 67 H      0.9427     1.0000     0.0573     0.9715     0.9715    -0.0000
 68 H      0.9446     1.0000     0.0554     0.9863     0.9863     0.0000
 69 H      0.9414     1.0000     0.0586     0.9830     0.9830     0.0000
 70 H      1.0121     1.0000    -0.0121     0.9986     0.9986    -0.0000
 71 H      0.9540     1.0000     0.0460     1.0077     1.0077    -0.0000
 72 H      0.9643     1.0000     0.0357     0.9861     0.9861     0.0000
 73 H      1.0195     1.0000    -0.0195     0.9960     0.9960     0.0000
 74 H      0.9722     1.0000     0.0278     1.0090     1.0090    -0.0000
 75 H      0.9656     1.0000     0.0344     0.9868     0.9868     0.0000
 76 H      0.9552     1.0000     0.0448     0.9700     0.9700     0.0000
 77 H      0.9550     1.0000     0.0450     0.9841     0.9841     0.0000
 78 H      0.9558     1.0000     0.0442     0.9834     0.9834     0.0000
 79 H      1.0115     1.0000    -0.0115     1.0021     1.0021     0.0000
 80 H      0.9725     1.0000     0.0275     1.0061     1.0061     0.0000
 81 H      0.9502     1.0000     0.0498     0.9852     0.9852     0.0000
 82 H      1.0231     1.0000    -0.0231     0.9953     0.9953     0.0000
 83 H      0.9575     1.0000     0.0425     1.0109     1.0109    -0.0000
 84 H      0.9513     1.0000     0.0487     0.9865     0.9865    -0.0000
 85 H      0.9464     1.0000     0.0536     0.9713     0.9713    -0.0000
 86 H      0.9437     1.0000     0.0563     0.9841     0.9841     0.0000
 87 H      0.9459     1.0000     0.0541     0.9852     0.9852    -0.0000
 88 H      1.0313     1.0000    -0.0313     0.9907     0.9907    -0.0000
 89 H      0.9618     1.0000     0.0382     1.0058     1.0058    -0.0000

  Mayer bond orders larger than 0.100000
B(  0-C ,  1-N ) :   1.2127 B(  0-C , 17-C ) :   1.5072 B(  0-C , 52-H ) :   0.9665 
B(  1-N ,  8-C ) :   1.2094 B(  1-N , 10-C ) :   0.9237 B(  2-C , 12-C ) :   1.5831 
B(  2-C , 16-C ) :   1.2697 B(  2-C , 53-H ) :   0.9793 B(  3-N , 14-C ) :   1.1740 
B(  3-N , 16-C ) :   1.2019 B(  3-N , 61-H ) :   0.8951 B(  4-C ,  6-C ) :   1.3612 
B(  4-C , 17-C ) :   1.3668 B(  4-C , 18-C ) :   1.0452 B(  5-N , 19-C ) :   1.3628 
B(  5-N , 27-C ) :   1.4496 B(  6-C ,  8-C ) :   1.5106 B(  6-C , 54-H ) :   0.9707 
B(  7-N , 30-C ) :   1.1834 B(  7-N , 38-C ) :   1.2162 B(  7-N , 62-H ) :   0.9016 
B(  8-C , 55-H ) :   0.9675 B(  9-N , 41-C ) :   1.4358 B(  9-N , 49-C ) :   1.3921 
B( 10-C , 56-H ) :   0.9767 B( 10-C , 57-H ) :   0.9807 B( 10-C , 58-H ) :   0.9814 
B( 11-N , 20-C ) :   1.0950 B( 11-N , 24-C ) :   1.1343 B( 11-N , 25-C ) :   0.9628 
B( 12-C , 14-C ) :   1.2703 B( 12-C , 59-H ) :   0.9767 B( 13-N , 31-C ) :   1.0807 
B( 13-N , 35-C ) :   1.0701 B( 13-N , 36-C ) :   0.9833 B( 14-C , 18-C ) :   1.2660 
B( 15-N , 42-C ) :   1.1266 B( 15-N , 46-C ) :   1.0880 B( 15-N , 47-C ) :   0.9666 
B( 16-C , 51-C ) :   1.2512 B( 17-C , 60-H ) :   0.9707 B( 18-C , 19-C ) :   1.3148 
B( 19-C , 21-C ) :   1.1602 B( 20-C , 28-C ) :   1.6300 B( 20-C , 63-H ) :   0.9710 
B( 21-C , 26-C ) :   1.6846 B( 21-C , 64-H ) :   0.9716 B( 22-C , 23-C ) :   1.2538 
B( 22-C , 28-C ) :   1.2796 B( 22-C , 29-C ) :   1.2581 B( 23-C , 24-C ) :   1.6362 
B( 23-C , 65-H ) :   0.9723 B( 24-C , 66-H ) :   0.9691 B( 25-C , 67-H ) :   0.9762 
B( 25-C , 68-H ) :   0.9834 B( 25-C , 69-H ) :   0.9819 B( 26-C , 27-C ) :   1.1700 
B( 26-C , 70-H ) :   0.9758 B( 27-C , 29-C ) :   1.2436 B( 28-C , 71-H ) :   0.9709 
B( 29-C , 30-C ) :   1.1736 B( 30-C , 32-C ) :   1.3525 B( 31-C , 39-C ) :   1.6870 
B( 31-C , 72-H ) :   0.9709 B( 32-C , 37-C ) :   1.5077 B( 32-C , 73-H ) :   0.9771 
B( 33-C , 34-C ) :   1.2308 B( 33-C , 39-C ) :   1.2231 B( 33-C , 40-C ) :   1.3627 
B( 34-C , 35-C ) :   1.6857 B( 34-C , 74-H ) :   0.9709 B( 35-C , 75-H ) :   0.9709 
B( 36-C , 76-H ) :   0.9755 B( 36-C , 77-H ) :   0.9826 B( 36-C , 78-H ) :   0.9838 
B( 37-C , 38-C ) :   1.3457 B( 37-C , 79-H ) :   0.9793 B( 38-C , 40-C ) :   1.1773 
B( 39-C , 80-H ) :   0.9721 B( 40-C , 41-C ) :   1.1661 B( 41-C , 43-C ) :   1.2585 
B( 42-C , 50-C ) :   1.6426 B( 42-C , 81-H ) :   0.9696 B( 43-C , 48-C ) :   1.5926 
B( 43-C , 82-H ) :   0.9757 B( 44-C , 45-C ) :   1.2813 B( 44-C , 50-C ) :   1.2481 
B( 44-C , 51-C ) :   1.2465 B( 45-C , 46-C ) :   1.6331 B( 45-C , 83-H ) :   0.9702 
B( 46-C , 84-H ) :   0.9709 B( 47-C , 85-H ) :   0.9759 B( 47-C , 86-H ) :   0.9825 
B( 47-C , 87-H ) :   0.9830 B( 48-C , 49-C ) :   1.2526 B( 48-C , 88-H ) :   0.9725 
B( 49-C , 51-C ) :   1.1876 B( 50-C , 89-H ) :   0.9723 

-------
TIMINGS
-------

Total SCF time: 0 days 0 hours 31 min 29 sec 

Total time                  ....    1889.882 sec
Sum of individual times     ....    1885.008 sec  ( 99.7%)

Fock matrix formation       ....    1857.211 sec  ( 98.3%)
Diagonalization             ....       7.310 sec  (  0.4%)
Density matrix formation    ....       0.570 sec  (  0.0%)
Population analysis         ....       0.583 sec  (  0.0%)
Initial guess               ....       2.522 sec  (  0.1%)
Orbital Transformation      ....       0.000 sec  (  0.0%)
Orbital Orthonormalization  ....       0.000 sec  (  0.0%)
DIIS solution               ....       3.244 sec  (  0.2%)
SOSCF solution              ....      12.267 sec  (  0.6%)

Maximum memory used throughout the entire SCF-calculation: 302.6 MB


           ************************************************************
           *        Program running with 16 parallel MPI-processes    *
           *              working on a common directory               *
           ************************************************************

------------------------------------------------------------------------------
                                ORCA  MP2 
------------------------------------------------------------------------------

Freezing NCore=104 chemical core electrons

----------
MP2 ENERGY (disk based algorithm)
----------

Dimension of the basis                    ...  918
Memory devoted to MP2                     ... 2000 MB   
Data format for buffers                   ... DOUBLE
Compression type for matrix containers    ... UNCOMPRESSED

-------------------------------
PARTIAL EXCHANGE TRANSFORMATION
-------------------------------

Transformation type                        ... one-operator
Generation of integrals (i,mue|j,nue)      ... ON
Generation of integrals (mue,kappa|nue,tau)... OFF
Generation of integrals (i,mue|a,nue)      ... OFF
Dimension of the basis                     ...  918
Number of internal MOs                     ...  127 (  52- 178)
Pair cutoff                                ... 2.500e-12 Eh
Number of AO pairs in the trafo            ... 421821
Total Number of distinct AO pairs          ... 421821
Memory devoted for trafo                   ... 2000.0 MB 
Max. Number of MO pairs treated together   ...  311      
Number Format for Storage                  ... Double (8 Byte)
Integral package used                      ... LIBINT

Starting integral evaluation:
    ... done with AO integral generation
Closing buffer AOK     (37.64 GB; CompressionRatio= 1.35)
Collecting buffer AOK 
Number of MO pairs included in the trafo   ... 8128
------------------------
SORTING OF (i,mue|j,nue)
------------------------

IBATCH = 1 of  2
IBATCH = 2 of  2
Closing buffer KAO     (51.03 GB; CompressionRatio= 1.00)
Collecting buffer KAO 
N(AO-Batches) Done                         ...  85458702 
N(AO-Batches) Skipped                      ...  82035370 
N(IJ)-pairs Skipped                        ...         0 
TOTAL TIME for half transformation         ...  2883.091 sec
AO-integral generation                     ...   210.641 sec
Half transformation                        ...   423.357 sec
K-integral sorting                         ...  2031.369 sec

Finished integral transformation - now doing MP2 part

OPERATOR COMBINATION   0   0: ij=( 52..178, 52..178)
Process 10:   Internal MO 132
Process 13:   Internal MO 156
Process  4:   Internal MO  84
Process  1:   Internal MO  60
Process  7:   Internal MO 108
Process  0:   Internal MO  54
Process  0:   Internal MO  57
Process  2:   Internal MO  69
Process  1:   Internal MO  63
Process  5:   Internal MO  93
Process  1:   Internal MO  66
Process  8:   Internal MO 117
Process  2:   Internal MO  72
Process 11:   Internal MO 141
Process  4:   Internal MO  87
Process  6:   Internal MO 102
Process 14:   Internal MO 165
Process  3:   Internal MO  78
Process  2:   Internal MO  75
Process  9:   Internal MO 126
Process  7:   Internal MO 111
Process 12:   Internal MO 150
Process  5:   Internal MO  96
Process  4:   Internal MO  90
Process  3:   Internal MO  81
Process 15:   Internal MO 174
Process 10:   Internal MO 135
Process  6:   Internal MO 105
Process  8:   Internal MO 120
Process  5:   Internal MO  99
Process  7:   Internal MO 114
Process  9:   Internal MO 129
Process 11:   Internal MO 144
Process 14:   Internal MO 168
Process 13:   Internal MO 159
Process 12:   Internal MO 153
Process  8:   Internal MO 123
Process 10:   Internal MO 138
Process 15:   Internal MO 177
Process 11:   Internal MO 147
Process 13:   Internal MO 162
Process 14:   Internal MO 171
-----------------------------------------------
 MP2 CORRELATION ENERGY   :     -7.259457497 Eh
-----------------------------------------------


-------
TIMINGS
-------
Total time                : 3180.562 sec
Integral trafo            : 2887.281 sec ( 90.8%)
K(i,j)                    :    6.445 sec (  0.2%)
T(i,j)                    :    0.086 sec (  0.0%)

---------------------------------------
MP2 TOTAL ENERGY:    -2130.869809269 Eh
---------------------------------------

Maximum memory used throughout the entire MP2-calculation: 2275.2 MB

-------------------------   --------------------
FINAL SINGLE POINT ENERGY     -2130.869809269412
-------------------------   --------------------


                            ***************************************
                            *     ORCA property calculations      *
                            ***************************************


  WARNING: The energy has been calculated at the MP2 level but the densities
           used in the property calculations are still SCF densities
           MP2 response densities have not been calculated 
           use %mp2 Density relaxed end
           or  %mp2 Density unrelaxed end

                                    ---------------------
                                    Active property flags
                                    ---------------------
   (+) Dipole Moment


------------------------------------------------------------------------------
                       ORCA ELECTRIC PROPERTIES CALCULATION
------------------------------------------------------------------------------

Dipole Moment Calculation                       ... on
Quadrupole Moment Calculation                   ... off
Polarizability Calculation                      ... off
GBWName                                         ... /scratch/allen/tmpyp4_amber_gaff2/conf1/conf1/Conf273.orca.gbw
Electron density                                ... /scratch/allen/tmpyp4_amber_gaff2/conf1/conf1/Conf273.orca.scfp
The origin for moment calculation is the CENTER OF MASS  = ( 0.000199, -0.003908 -0.001601)

-------------
DIPOLE MOMENT
-------------
                                X             Y             Z
Electronic contribution:     -4.75214       5.48718      -0.06278
Nuclear contribution   :      0.05533       0.22369       0.08930
                        -----------------------------------------
Total Dipole Moment    :     -4.69681       5.71086       0.02652
                        -----------------------------------------
Magnitude (a.u.)       :      7.39423
Magnitude (Debye)      :     18.79464



--------------------
Rotational spectrum 
--------------------
 
Rotational constants in cm-1:     0.001498     0.001472     0.000763 
Rotational constants in MHz :    44.914780    44.124770    22.868417 

 Dipole components along the rotational axes: 
x,y,z [a.u.] :    -6.519937     3.487724     0.028664 
x,y,z [Debye]:   -16.572364     8.865090     0.072858 

 

Timings for individual modules:

Sum of individual times         ...     5091.750 sec (=  84.862 min)
GTO integral calculation        ...        3.489 sec (=   0.058 min)   0.1 %
SCF iterations                  ...     1891.136 sec (=  31.519 min)  37.1 %
MP2 module                      ...     3197.125 sec (=  53.285 min)  62.8 %
                             ****ORCA TERMINATED NORMALLY****
TOTAL RUN TIME: 0 days 1 hours 24 minutes 55 seconds 290 msec
# of primitive gaussian functions

