
                                 *****************
                                 * O   R   C   A *
                                 *****************

                                            #,                                       
                                            ###                                      
                                            ####                                     
                                            #####                                    
                                            ######                                   
                                           ########,                                 
                                     ,,################,,,,,                         
                               ,,#################################,,                 
                          ,,##########################################,,             
                       ,#########################################, ''#####,          
                    ,#############################################,,   '####,        
                  ,##################################################,,,,####,       
                ,###########''''           ''''###############################       
              ,#####''   ,,,,##########,,,,          '''####'''          '####       
            ,##' ,,,,###########################,,,                        '##       
           ' ,,###''''                  '''############,,,                           
         ,,##''                                '''############,,,,        ,,,,,,###''
      ,#''                                            '''#######################'''  
     '                                                          ''''####''''         
             ,#######,   #######,   ,#######,      ##                                
            ,#'     '#,  ##    ##  ,#'     '#,    #''#        ######   ,####,        
            ##       ##  ##   ,#'  ##            #'  '#       #        #'  '#        
            ##       ##  #######   ##           ,######,      #####,   #    #        
            '#,     ,#'  ##    ##  '#,     ,#' ,#      #,         ##   #,  ,#        
             '#######'   ##     ##  '#######'  #'      '#     #####' # '####'        



                  #######################################################
                  #                        -***-                        #
                  #          Department of theory and spectroscopy      #
                  #    Directorship and core code : Frank Neese         #
                  #        Max Planck Institute fuer Kohlenforschung    #
                  #                Kaiser Wilhelm Platz 1               #
                  #                 D-45470 Muelheim/Ruhr               #
                  #                      Germany                        #
                  #                                                     #
                  #                  All rights reserved                #
                  #                        -***-                        #
                  #######################################################


                         Program Version 5.0.4 -  RELEASE  -


 With contributions from (in alphabetic order):
   Daniel Aravena         : Magnetic Suceptibility
   Michael Atanasov       : Ab Initio Ligand Field Theory (pilot matlab implementation)
   Alexander A. Auer      : GIAO ZORA, VPT2 properties, NMR spectrum
   Ute Becker             : Parallelization
   Giovanni Bistoni       : ED, misc. LED, open-shell LED, HFLD
   Martin Brehm           : Molecular dynamics
   Dmytro Bykov           : SCF Hessian
   Vijay G. Chilkuri      : MRCI spin determinant printing, contributions to CSF-ICE
   Dipayan Datta          : RHF DLPNO-CCSD density
   Achintya Kumar Dutta   : EOM-CC, STEOM-CC
   Dmitry Ganyushin       : Spin-Orbit,Spin-Spin,Magnetic field MRCI
   Miquel Garcia          : C-PCM and meta-GGA Hessian, CC/C-PCM, Gaussian charge scheme
   Yang Guo               : DLPNO-NEVPT2, F12-NEVPT2, CIM, IAO-localization
   Andreas Hansen         : Spin unrestricted coupled pair/coupled cluster methods
   Benjamin Helmich-Paris : MC-RPA, TRAH-SCF, COSX integrals
   Lee Huntington         : MR-EOM, pCC
   Robert Izsak           : Overlap fitted RIJCOSX, COSX-SCS-MP3, EOM
   Marcus Kettner         : VPT2
   Christian Kollmar      : KDIIS, OOCD, Brueckner-CCSD(T), CCSD density, CASPT2, CASPT2-K
   Simone Kossmann        : Meta GGA functionals, TD-DFT gradient, OOMP2, MP2 Hessian
   Martin Krupicka        : Initial AUTO-CI
   Lucas Lang             : DCDCAS
   Marvin Lechner         : AUTO-CI (C++ implementation), FIC-MRCC
   Dagmar Lenk            : GEPOL surface, SMD
   Dimitrios Liakos       : Extrapolation schemes; Compound Job, initial MDCI parallelization
   Dimitrios Manganas     : Further ROCIS development; embedding schemes
   Dimitrios Pantazis     : SARC Basis sets
   Anastasios Papadopoulos: AUTO-CI, single reference methods and gradients
   Taras Petrenko         : DFT Hessian,TD-DFT gradient, ASA, ECA, R-Raman, ABS, FL, XAS/XES, NRVS
   Peter Pinski           : DLPNO-MP2, DLPNO-MP2 Gradient
   Christoph Reimann      : Effective Core Potentials
   Marius Retegan         : Local ZFS, SOC
   Christoph Riplinger    : Optimizer, TS searches, QM/MM, DLPNO-CCSD(T), (RO)-DLPNO pert. Triples
   Tobias Risthaus        : Range-separated hybrids, TD-DFT gradient, RPA, STAB
   Michael Roemelt        : Original ROCIS implementation
   Masaaki Saitow         : Open-shell DLPNO-CCSD energy and density
   Barbara Sandhoefer     : DKH picture change effects
   Avijit Sen             : IP-ROCIS
   Kantharuban Sivalingam : CASSCF convergence, NEVPT2, FIC-MRCI
   Bernardo de Souza      : ESD, SOC TD-DFT
   Georgi Stoychev        : AutoAux, RI-MP2 NMR, DLPNO-MP2 response
   Willem Van den Heuvel  : Paramagnetic NMR
   Boris Wezisla          : Elementary symmetry handling
   Frank Wennmohs         : Technical directorship


 We gratefully acknowledge several colleagues who have allowed us to
 interface, adapt or use parts of their codes:
   Stefan Grimme, W. Hujo, H. Kruse, P. Pracht,  : VdW corrections, initial TS optimization,
                  C. Bannwarth, S. Ehlert          DFT functionals, gCP, sTDA/sTD-DF
   Ed Valeev, F. Pavosevic, A. Kumar             : LibInt (2-el integral package), F12 methods
   Garnet Chan, S. Sharma, J. Yang, R. Olivares  : DMRG
   Ulf Ekstrom                                   : XCFun DFT Library
   Mihaly Kallay                                 : mrcc  (arbitrary order and MRCC methods)
   Jiri Pittner, Ondrej Demel                    : Mk-CCSD
   Frank Weinhold                                : gennbo (NPA and NBO analysis)
   Christopher J. Cramer and Donald G. Truhlar   : smd solvation model
   Lars Goerigk                                  : TD-DFT with DH, B97 family of functionals
   V. Asgeirsson, H. Jonsson                     : NEB implementation
   FAccTs GmbH                                   : IRC, NEB, NEB-TS, DLPNO-Multilevel, CI-OPT
                                                   MM, QMMM, 2- and 3-layer-ONIOM, Crystal-QMMM,
                                                   LR-CPCM, SF, NACMEs, symmetry and pop. for TD-DFT,
                                                   nearIR, NL-DFT gradient (VV10), updates on ESD,
                                                   ML-optimized integration grids
   S Lehtola, MJT Oliveira, MAL Marques          : LibXC Library
   Liviu Ungur et al                             : ANISO software


 Your calculation uses the libint2 library for the computation of 2-el integrals
 For citations please refer to: http://libint.valeyev.net

 Your ORCA version has been built with support for libXC version: 5.1.0
 For citations please refer to: https://tddft.org/programs/libxc/

 This ORCA versions uses:
   CBLAS   interface :  Fast vector & matrix operations
   LAPACKE interface :  Fast linear algebra routines
   SCALAPACK package :  Parallel linear algebra routines
   Shared memory     :  Shared parallel matrices
   BLAS/LAPACK       :  OpenBLAS 0.3.15  USE64BITINT DYNAMIC_ARCH NO_AFFINITY Sandybridge SINGLE_THREADED
        Core in use  :  Sandybridge
   Copyright (c) 2011-2014, The OpenBLAS Project


================================================================================

----- Orbital basis set information -----
Your calculation utilizes the basis: cc-pVDZ 
       H, B-Ne : Obtained from the ccRepo (grant-hill.group.shef.ac.uk/ccrepo) Feb. 2017
                 T. H. Dunning, Jr., J. Chem. Phys. 90, 1007 (1989)
            He : Obtained from the ccRepo (grant-hill.group.shef.ac.uk/ccrepo) Feb. 2017
                 D. E. Woon, T. H. Dunning, Jr., J. Chem. Phys. 100, 2975 (1994)
  Li-Be, Na-Mg : Obtained from the ccRepo (grant-hill.group.shef.ac.uk/ccrepo) Feb. 2017
                 B. P. Prascher, D. E. Woon, K. A. Peterson, T. H. Dunning, Jr., A. K. Wilson, Theor. Chem. Acc. 128, 69 (2011)
         Al-Ar : Obtained from the ccRepo (grant-hill.group.shef.ac.uk/ccrepo) Feb. 2017
                 D. E. Woon, T. H. Dunning, Jr., J. Chem. Phys. 98, 1358 (1993)
            Ca : Obtained from the Peterson Research Group Website (tyr0.chem.wsu.edu/~kipeters) Feb. 2017
                 J. Koput, K. A. Peterson, J. Phys. Chem. 106, 9595 (2002)
         Sc-Zn : Obtained from the ccRepo (grant-hill.group.shef.ac.uk/ccrepo) Feb. 2017
                 N. B. Balabanov, K. A. Peterson, J. Chem. Phys. 123, 064107 (2005)
                 N. B. Balabanov, K. A. Peterson, J. Chem. Phys. 125, 074110 (2006)
         Ga-Kr : Obtained from the ccRepo (grant-hill.group.shef.ac.uk/ccrepo) Feb. 2017
                 A. K. Wilson, D. E. Woon, K. A. Peterson, T. H. Dunning, Jr., J. Chem. Phys. 110, 7667 (1999)

================================================================================
                                        WARNINGS
                       Please study these warnings very carefully!
================================================================================


WARNING: No MP2 level density has been requested!
         To caclulate MP2 level properties use
         %mp2 Density relaxed end
         or
         %mp2 Density unrelaxed end

WARNING: Post HF methods need fully converged wavefunctions
  ===> : Setting SCFConvForced true
         You can overwrite this default with %scf ConvForced false 


INFO   : the flag for use of the SHARK integral package has been found!

================================================================================
                                       INPUT FILE
================================================================================
NAME = /scratch/allen/tmpyp4_amber_gaff2/2.Mdgx/conf11/conf11/Conf222.orca
|  1> ! PAL2
|  2> ! mp2 cc-pvdz TightSCF  NoKeepInts
|  3> 
|  4> %scf
|  5>   MaxCore 2000
|  6> end
|  7> %mp2
|  8>   MaxCore 2000
|  9> end
| 10> * xyz 0 1
| 11>    C       -4.73100         5.32000         0.82200
| 12>    C        1.47400         4.04100         0.05700
| 13>    C       -2.80200         4.09300         0.04900
| 14>    C       -2.45600         5.21800        -0.71500
| 15>    C       -3.24900         6.34800        -0.68400
| 16>    C       -5.17800         7.62600         0.11500
| 17>    C        0.13200         4.30700         0.06100
| 18>    C       -0.56900         3.05600         0.04700
| 19>    C        1.64900         2.61800         0.02300
| 20>    C       -3.96600         4.16900         0.82900
| 21>    N       -4.37000         6.38700         0.07400
| 22>    N        0.38800         2.06700         0.02500
| 23>    N       -2.01000         0.39500        -0.07500
| 24>    N       -0.38800        -2.07400        -0.02700
| 25>    N        2.01000        -0.40100         0.06500
| 26>    C       -1.96000         2.86100         0.02400
| 27>    C       -2.62300         1.61500        -0.01800
| 28>    C       -5.57300        -4.32900         1.06600
| 29>    C       -4.07300         1.47100         0.05600
| 30>    C       -4.10600        -2.75600        -0.02600
| 31>    C       -4.99500        -2.75700        -1.11100
| 32>    C       -6.13200        -3.54200        -1.07600
| 33>    C       -7.65100        -5.11300         0.04000
| 34>    C       -4.32400         0.14100         0.03700
| 35>    C       -3.02500        -0.52000        -0.04800
| 36>    C       -4.42200        -3.56600         1.07500
| 37>    N       -6.40700        -4.31300         0.00100
| 38>    C       -2.86700        -1.92200        -0.04000
| 39>    C       -1.65000        -2.62400        -0.02700
| 40>    C        3.56800        -6.14200        -1.04000
| 41>    C       -1.47600        -4.04900        -0.03400
| 42>    C        2.80300        -4.09900        -0.00800
| 43>    C        3.65700        -4.38400         1.06900
| 44>    C        4.42700        -5.53000         1.05900
| 45>    C        5.24500        -7.58800         0.01400
| 46>    C       -0.13400        -4.31500        -0.02200
| 47>    C        0.56800        -3.06400        -0.02700
| 48>    C        2.77500        -5.01200        -1.07400
| 49>    N        4.37600        -6.39100         0.01700
| 50>    C        1.95900        -2.86900        -0.00900
| 51>    C        2.62100        -1.62200         0.00900
| 52>    C        5.54300         4.33900        -1.13000
| 53>    C        4.07000        -1.47900        -0.09400
| 54>    C        4.10400         2.75100        -0.02100
| 55>    C        5.02700         2.72900         1.03600
| 56>    C        6.16600         3.50900         0.97800
| 57>    C        7.61900         5.15300        -0.11500
| 58>    C        4.32100        -0.14800        -0.09200
| 59>    C        3.02500         0.51400         0.01500
| 60>    C        4.38700         3.58200        -1.11500
| 61>    C        2.86600         1.91600         0.01300
| 62>    N        6.41300         4.29600        -0.09500
| 63>    H       -5.64300         5.41900         1.39800
| 64>    H        2.27400         4.76600         0.08100
| 65>    H       -1.56400         5.22400        -1.33000
| 66>    H       -3.01900         7.24200        -1.24900
| 67>    H       -4.76600         8.29400         0.87500
| 68>    H       -5.13900         8.10300        -0.86400
| 69>    H       -6.20600         7.36600         0.36300
| 70>    H       -0.33200         5.28200         0.06900
| 71>    H       -4.29400         3.32900         1.43000
| 72>    H        0.18200         1.07200         0.00500
| 73>    H       -0.18300        -1.08000        -0.02100
| 74>    H       -5.86400        -4.96200         1.89500
| 75>    H       -4.79400         2.27200         0.13900
| 76>    H       -4.80000        -2.16000        -1.99400
| 77>    H       -6.84100        -3.58200        -1.89300
| 78>    H       -8.42800        -4.53600         0.54600
| 79>    H       -7.95600        -5.33700        -0.98100
| 80>    H       -7.45600        -6.03700         0.58400
| 81>    H       -5.28700        -0.34400         0.10000
| 82>    H       -3.78000        -3.60100         1.94700
| 83>    H        3.58700        -6.86800        -1.84300
| 84>    H       -2.27600        -4.77400        -0.05000
| 85>    H        3.71400        -3.72400         1.92600
| 86>    H        5.09200        -5.79500         1.87100
| 87>    H        6.20500        -7.32900        -0.43900
| 88>    H        5.39300        -7.91700         1.04200
| 89>    H        4.75900        -8.37300        -0.56400
| 90>    H        0.32900        -5.29000        -0.00800
| 91>    H        2.14600        -4.84200        -1.94000
| 92>    H        5.80800         4.98600        -1.95600
| 93>    H        4.78800        -2.28100        -0.18500
| 94>    H        4.86000         2.11400         1.91200
| 95>    H        6.90100         3.53100         1.77200
| 96>    H        7.38300         6.10900         0.35600
| 97>    H        8.41400         4.65200         0.43500
| 98>    H        7.92100         5.31000        -1.15000
| 99>    H        5.28300         0.33600        -0.17900
|100>    H        3.72000         3.63200        -1.96700
|101> *
|102> 
|103>                          ****END OF INPUT****
================================================================================

                       ****************************
                       * Single Point Calculation *
                       ****************************

---------------------------------
CARTESIAN COORDINATES (ANGSTROEM)
---------------------------------
  C     -4.731000    5.320000    0.822000
  C      1.474000    4.041000    0.057000
  C     -2.802000    4.093000    0.049000
  C     -2.456000    5.218000   -0.715000
  C     -3.249000    6.348000   -0.684000
  C     -5.178000    7.626000    0.115000
  C      0.132000    4.307000    0.061000
  C     -0.569000    3.056000    0.047000
  C      1.649000    2.618000    0.023000
  C     -3.966000    4.169000    0.829000
  N     -4.370000    6.387000    0.074000
  N      0.388000    2.067000    0.025000
  N     -2.010000    0.395000   -0.075000
  N     -0.388000   -2.074000   -0.027000
  N      2.010000   -0.401000    0.065000
  C     -1.960000    2.861000    0.024000
  C     -2.623000    1.615000   -0.018000
  C     -5.573000   -4.329000    1.066000
  C     -4.073000    1.471000    0.056000
  C     -4.106000   -2.756000   -0.026000
  C     -4.995000   -2.757000   -1.111000
  C     -6.132000   -3.542000   -1.076000
  C     -7.651000   -5.113000    0.040000
  C     -4.324000    0.141000    0.037000
  C     -3.025000   -0.520000   -0.048000
  C     -4.422000   -3.566000    1.075000
  N     -6.407000   -4.313000    0.001000
  C     -2.867000   -1.922000   -0.040000
  C     -1.650000   -2.624000   -0.027000
  C      3.568000   -6.142000   -1.040000
  C     -1.476000   -4.049000   -0.034000
  C      2.803000   -4.099000   -0.008000
  C      3.657000   -4.384000    1.069000
  C      4.427000   -5.530000    1.059000
  C      5.245000   -7.588000    0.014000
  C     -0.134000   -4.315000   -0.022000
  C      0.568000   -3.064000   -0.027000
  C      2.775000   -5.012000   -1.074000
  N      4.376000   -6.391000    0.017000
  C      1.959000   -2.869000   -0.009000
  C      2.621000   -1.622000    0.009000
  C      5.543000    4.339000   -1.130000
  C      4.070000   -1.479000   -0.094000
  C      4.104000    2.751000   -0.021000
  C      5.027000    2.729000    1.036000
  C      6.166000    3.509000    0.978000
  C      7.619000    5.153000   -0.115000
  C      4.321000   -0.148000   -0.092000
  C      3.025000    0.514000    0.015000
  C      4.387000    3.582000   -1.115000
  C      2.866000    1.916000    0.013000
  N      6.413000    4.296000   -0.095000
  H     -5.643000    5.419000    1.398000
  H      2.274000    4.766000    0.081000
  H     -1.564000    5.224000   -1.330000
  H     -3.019000    7.242000   -1.249000
  H     -4.766000    8.294000    0.875000
  H     -5.139000    8.103000   -0.864000
  H     -6.206000    7.366000    0.363000
  H     -0.332000    5.282000    0.069000
  H     -4.294000    3.329000    1.430000
  H      0.182000    1.072000    0.005000
  H     -0.183000   -1.080000   -0.021000
  H     -5.864000   -4.962000    1.895000
  H     -4.794000    2.272000    0.139000
  H     -4.800000   -2.160000   -1.994000
  H     -6.841000   -3.582000   -1.893000
  H     -8.428000   -4.536000    0.546000
  H     -7.956000   -5.337000   -0.981000
  H     -7.456000   -6.037000    0.584000
  H     -5.287000   -0.344000    0.100000
  H     -3.780000   -3.601000    1.947000
  H      3.587000   -6.868000   -1.843000
  H     -2.276000   -4.774000   -0.050000
  H      3.714000   -3.724000    1.926000
  H      5.092000   -5.795000    1.871000
  H      6.205000   -7.329000   -0.439000
  H      5.393000   -7.917000    1.042000
  H      4.759000   -8.373000   -0.564000
  H      0.329000   -5.290000   -0.008000
  H      2.146000   -4.842000   -1.940000
  H      5.808000    4.986000   -1.956000
  H      4.788000   -2.281000   -0.185000
  H      4.860000    2.114000    1.912000
  H      6.901000    3.531000    1.772000
  H      7.383000    6.109000    0.356000
  H      8.414000    4.652000    0.435000
  H      7.921000    5.310000   -1.150000
  H      5.283000    0.336000   -0.179000
  H      3.720000    3.632000   -1.967000

----------------------------
CARTESIAN COORDINATES (A.U.)
----------------------------
  NO LB      ZA    FRAG     MASS         X           Y           Z
   0 C     6.0000    0    12.011   -8.940294   10.053343    1.553355
   1 C     6.0000    0    12.011    2.785456    7.636383    0.107714
   2 C     6.0000    0    12.011   -5.295013    7.734649    0.092597
   3 C     6.0000    0    12.011   -4.641167    9.860591   -1.351154
   4 C     6.0000    0    12.011   -6.139720   11.995981   -1.292573
   5 C     6.0000    0    12.011   -9.785002   14.411051    0.217319
   6 C     6.0000    0    12.011    0.249444    8.139050    0.115273
   7 C     6.0000    0    12.011   -1.075254    5.775003    0.088817
   8 C     6.0000    0    12.011    3.116158    4.947303    0.043464
   9 C     6.0000    0    12.011   -7.494654    7.878268    1.566583
  10 N     7.0000    0    14.007   -8.258103   12.069681    0.139840
  11 N     7.0000    0    14.007    0.733214    3.906064    0.047243
  12 N     7.0000    0    14.007   -3.798350    0.746442   -0.141729
  13 N     7.0000    0    14.007   -0.733214   -3.919292   -0.051023
  14 N     7.0000    0    14.007    3.798350   -0.757780    0.122832
  15 C     6.0000    0    12.011   -3.703863    5.406506    0.045353
  16 C     6.0000    0    12.011   -4.956752    3.051908   -0.034015
  17 C     6.0000    0    12.011  -10.531444   -8.180624    2.014448
  18 C     6.0000    0    12.011   -7.696855    2.779787    0.105825
  19 C     6.0000    0    12.011   -7.759216   -5.208085   -0.049133
  20 C     6.0000    0    12.011   -9.439182   -5.209975   -2.099486
  21 C     6.0000    0    12.011  -11.587801   -6.693410   -2.033345
  22 C     6.0000    0    12.011  -14.458295   -9.662170    0.075589
  23 C     6.0000    0    12.011   -8.171176    0.266451    0.069920
  24 C     6.0000    0    12.011   -5.716422   -0.982658   -0.090707
  25 C     6.0000    0    12.011   -8.356369   -6.738763    2.031456
  26 N     7.0000    0    14.007  -12.107475   -8.150389    0.001890
  27 C     6.0000    0    12.011   -5.417845   -3.632054   -0.075589
  28 C     6.0000    0    12.011   -3.118048   -4.958641   -0.051023
  29 C     6.0000    0    12.011    6.742543  -11.606698   -1.965315
  30 C     6.0000    0    12.011   -2.789236   -7.651501   -0.064251
  31 C     6.0000    0    12.011    5.296902   -7.745987   -0.015118
  32 C     6.0000    0    12.011    6.910728   -8.284559    2.020117
  33 C     6.0000    0    12.011    8.365818  -10.450186    2.001220
  34 C     6.0000    0    12.011    9.911614  -14.339242    0.026456
  35 C     6.0000    0    12.011   -0.253223   -8.154168   -0.041574
  36 C     6.0000    0    12.011    1.073364   -5.790121   -0.051023
  37 C     6.0000    0    12.011    5.243990   -9.471307   -2.029566
  38 N     7.0000    0    14.007    8.269442  -12.077240    0.032125
  39 C     6.0000    0    12.011    3.701973   -5.421624   -0.017008
  40 C     6.0000    0    12.011    4.952972   -3.065136    0.017008
  41 C     6.0000    0    12.011   10.474752    8.199522   -2.135391
  42 C     6.0000    0    12.011    7.691185   -2.794905   -0.177634
  43 C     6.0000    0    12.011    7.755436    5.198637   -0.039684
  44 C     6.0000    0    12.011    9.499653    5.157063    1.957756
  45 C     6.0000    0    12.011   11.652051    6.631049    1.848152
  46 C     6.0000    0    12.011   14.397823    9.737759   -0.217319
  47 C     6.0000    0    12.011    8.165507   -0.279679   -0.173855
  48 C     6.0000    0    12.011    5.716422    0.971319    0.028346
  49 C     6.0000    0    12.011    8.290229    6.768999   -2.107045
  50 C     6.0000    0    12.011    5.415955    3.620715    0.024566
  51 N     7.0000    0    14.007   12.118814    8.118263   -0.179524
  52 H     1.0000    0     1.008  -10.663725   10.240426    2.641837
  53 H     1.0000    0     1.008    4.297237    9.006435    0.153068
  54 H     1.0000    0     1.008   -2.955532    9.871929   -2.513336
  55 H     1.0000    0     1.008   -5.705083   13.685397   -2.360268
  56 H     1.0000    0     1.008   -9.006435   15.673389    1.653510
  57 H     1.0000    0     1.008   -9.711303   15.312451   -1.632723
  58 H     1.0000    0     1.008  -11.727640   13.919723    0.685971
  59 H     1.0000    0     1.008   -0.627389    9.981533    0.130391
  60 H     1.0000    0     1.008   -8.114484    6.290898    2.702308
  61 H     1.0000    0     1.008    0.343930    2.025786    0.009449
  62 H     1.0000    0     1.008   -0.345820   -2.040904   -0.039684
  63 H     1.0000    0     1.008  -11.081354   -9.376821    3.581031
  64 H     1.0000    0     1.008   -9.059347    4.293458    0.262672
  65 H     1.0000    0     1.008   -9.070685   -4.081808   -3.768114
  66 H     1.0000    0     1.008  -12.927616   -6.768999   -3.577252
  67 H     1.0000    0     1.008  -15.926612   -8.571798    1.031790
  68 H     1.0000    0     1.008  -15.034661  -10.085468   -1.853821
  69 H     1.0000    0     1.008  -14.089798  -11.408277    1.103600
  70 H     1.0000    0     1.008   -9.990982   -0.650066    0.188973
  71 H     1.0000    0     1.008   -7.143165   -6.804904    3.679297
  72 H     1.0000    0     1.008    6.778448  -12.978639   -3.482765
  73 H     1.0000    0     1.008   -4.301017   -9.021553   -0.094486
  74 H     1.0000    0     1.008    7.018443   -7.037340    3.639613
  75 H     1.0000    0     1.008    9.622485  -10.950963    3.535678
  76 H     1.0000    0     1.008   11.725751  -13.849803   -0.829590
  77 H     1.0000    0     1.008   10.191293  -14.960962    1.969095
  78 H     1.0000    0     1.008    8.993207  -15.822677   -1.065806
  79 H     1.0000    0     1.008    0.621720   -9.996651   -0.015118
  80 H     1.0000    0     1.008    4.055352   -9.150054   -3.666069
  81 H     1.0000    0     1.008   10.975529    9.422175   -3.696304
  82 H     1.0000    0     1.008    9.048009   -4.310465   -0.349599
  83 H     1.0000    0     1.008    9.184069    3.994881    3.613156
  84 H     1.0000    0     1.008   13.041000    6.672623    3.348595
  85 H     1.0000    0     1.008   13.951848   11.544337    0.672743
  86 H     1.0000    0     1.008   15.900156    8.791006    0.822031
  87 H     1.0000    0     1.008   14.968521   10.034446   -2.173185
  88 H     1.0000    0     1.008    9.983423    0.634948   -0.338261
  89 H     1.0000    0     1.008    7.029781    6.863485   -3.717091

--------------------------------
INTERNAL COORDINATES (ANGSTROEM)
--------------------------------
 C      0   0   0     0.000000000000     0.00000000     0.00000000
 C      1   0   0     6.381464643795     0.00000000     0.00000000
 C      1   2   0     2.413317011915    23.43514662     0.00000000
 C      3   1   2     1.403223788282    87.92915645   296.52467205
 C      4   3   1     1.380836702873   120.14954849     0.14970856
 C      5   4   3     2.448004493460   152.50911237     1.60873753
 C      2   1   3     1.368114030335     6.73160446    54.09651034
 C      7   2   4     1.434084376876   108.05010202   115.83228186
 C      2   1   3     1.434123425651   108.68488795   326.91934899
 C      1   2   7     1.382054629890    45.20865583    93.58158696
 N      1   2   7     1.352151618717    80.34252861   299.28407777
 N      9   2   1     1.376127174356   106.58526707     6.31762848
 N     12   9   2     2.925062050624   168.53581413   171.12065651
 N     13  12   9     2.954513327098    91.55032014    11.12112580
 N     14  13  12     2.925371258490    88.43092389   359.84326247
 C      8   7   2     1.404790019896   127.24786865   181.11170171
 C     13  12   9     1.366535034311    81.72106996   188.00453233
 C     14  13  12     5.758810554272    80.56209567   166.76250791
 C     17  13  12     1.459010623676   111.08861209   183.82872609
 C     18  14  13     2.412235892279    27.27532823    36.33507194
 C     20  18  14     1.402692767501    87.95206320   148.94598259
 C     21  20  18     1.382106725257   120.14573887   359.70382047
 C     18  14  13     2.446510985056   144.15733107    82.80075377
 C     19  17  13     1.353610726908   106.29293361   359.75308708
 C     13  12   9     1.366813447402   172.21332906    33.46711076
 C     18  14  13     1.380960173213    15.08449437   309.23336894
 N     22  21  20     1.352773077792   120.73759875     0.27865223
 C     25  13  17     1.410897586645   125.60330303   182.37774668
 C     14  13  12     1.376642291955    80.24689249   177.85461986
 C     14  13  12     5.764089607215   164.51507311   312.20821879
 C     29  14  13     1.435600919476   106.58649366   178.76395472
 C     30  14  13     2.413316804732    27.10625047    82.12560436
 C     32  30  14     1.403734305344    87.90059683   149.76154742
 C     33  32  30     1.380694028378   120.14881443   359.74174632
 C     34  33  32     2.448777858443   152.49203239     2.45173620
 C     31  29  14     1.368160809262   108.16950133     0.70383075
 C     14  13  12     1.376239804685   169.26375223   353.09862627
 C     30  14  13     1.380907310430    14.68948582   353.70041132
 N     34  33  32     1.352658863128   120.85575621     0.19603406
 C     37  14  29     1.404717053360   126.01551127   180.90772073
 C     15  14  13     1.366491126938    81.61824056   183.09049352
 C      2   1   3     4.249062720177   161.91083422   115.36417927
 C     41  15  14     1.459677704153   111.05201287   175.08990246
 C     42   2   1     2.412953791518    41.78584867   186.12172073
 C     44  42   2     1.403446472082    87.95153797   233.97558675
 C     45  44  42     1.381696421071   120.11137308     0.19721020
 C     42   2   1     2.450019795838   135.97209175    96.43656984
 C     43  41  15     1.354461516618   106.26758155     0.30894352
 C     15  14  13     1.367461151185   171.87382904   332.35056460
 C     42   2   1     1.381886391857    32.59078432   234.97699993
 C      9   2   1     1.404988612053   126.98745415   187.32196601
 N     42   2   1     1.352765315936   113.57249190   124.17315903
 H      1   2   7     1.083199427622   154.25449401   165.60725934
 H      2   1   3     1.079907866440   125.66880760   154.37352434
 H      4   3   1     1.083478195443   121.09666222   179.57282618
 H      5   4   3     1.082294322262   122.83409555   179.48583402
 H      6   5   4     1.092505377561   104.42400670   100.10571528
 H      6   5   4     1.089720606394    84.66905795   209.52998780
 H      6   5   4     1.088984848379   133.91150896   322.37250165
 H      7   2  54     1.079807853278   126.66122480     1.30600390
 H     10   1   2     1.083690453958   118.73868996   150.98758796
 H     12   9   2     1.016297692608   125.29023241   180.00180175
 H     14  13  12     1.014936943854    44.97226959   359.42596618
 H     18  14  13     1.082871645210   128.03556573   234.20482432
 H     19  17  13     1.080893611786   126.41830519   178.11313280
 H     21  20  18     1.083569563987   121.05669627   180.67006309
 H     22  21  20     1.082483256222   122.73097286   180.59748951
 H     23  18  14     1.092105306278   103.92715769   234.93429879
 H     23  18  14     1.088871893291   134.19244188    12.25587044
 H     23  18  14     1.089833473518    84.85857450   125.45241208
 H     24  19  17     1.080075460327   127.28078426   178.44613241
 H     26  18  14     1.083408048706   118.76995697   244.94906660
 H     30  14  13     1.082703098730   127.99711412   279.66882698
 H     31  29  14     1.079759695488   125.22293469   180.92530585
 H     33  32  30     1.083188810873   121.01964473   180.74284758
 H     34  33  32     1.082494341787   122.70821597   180.59516895
 H     35  34  33     1.092652735319   105.73575241    97.19771933
 H     35  34  33     1.089462711615    84.05943581   206.43036958
 H     35  34  33     1.089268102902   133.08365142   318.50306270
 H     36  31  29     1.079439669458   126.61599965   178.98859863
 H     38  30  73     1.083742127999   118.77264435   359.90091293
 H     42   2   1     1.082178358682   119.31790784   340.80468948
 H     43  41  15     1.080281907652   126.36969097   182.06329380
 H     45  44  42     1.083277434455   121.10105945   179.58025624
 H     46  45  44     1.082194529648   122.72144639   179.46906377
 H     47  42   2     1.091546151109   106.65128841   315.16475048
 H     47  42   2     1.088818625851   132.46019523    94.52397119
 H     47  42   2     1.089531091801    83.63838232   206.04504406
 H     48  43  41     1.080402239909   127.23657387   181.62955349
 H     50  42   2     1.083186502870   118.77001737    94.71359229

---------------------------
INTERNAL COORDINATES (A.U.)
---------------------------
 C      0   0   0     0.000000000000     0.00000000     0.00000000
 C      1   0   0    12.059220510073     0.00000000     0.00000000
 C      1   2   0     4.560508226853    23.43514662     0.00000000
 C      3   1   2     2.651708664456    87.92915645   296.52467205
 C      4   3   1     2.609403204096   120.14954849     0.14970856
 C      5   4   3     4.626058067248   152.50911237     1.60873753
 C      2   1   3     2.585360837309     6.73160446    54.09651034
 C      7   2   4     2.710026725231   108.05010202   115.83228186
 C      2   1   3     2.710100516721   108.68488795   326.91934899
 C      1   2   7     2.611704752610    45.20865583    93.58158696
 N      1   2   7     2.555196250914    80.34252861   299.28407777
 N      9   2   1     2.600503484979   106.58526707     6.31762848
 N     12   9   2     5.527566200405   168.53581413   171.12065651
 N     13  12   9     5.583221047236    91.55032014    11.12112580
 N     14  13  12     5.528150518591    88.43092389   359.84326247
 C      8   7   2     2.654668413270   127.24786865   181.11170171
 C     13  12   9     2.582376967257    81.72106996   188.00453233
 C     14  13  12    10.882574804710    80.56209567   166.76250791
 C     17  13  12     2.757130505230   111.08861209   183.82872609
 C     18  14  13     4.558465206823    27.27532823    36.33507194
 C     20  18  14     2.650705180609    87.95206320   148.94598259
 C     21  20  18     2.611803198586   120.14573887   359.70382047
 C     18  14  13     4.623235745386   144.15733107    82.80075377
 C     19  17  13     2.557953565794   106.29293361   359.75308708
 C     13  12   9     2.582903091751   172.21332906    33.46711076
 C     18  14  13     2.609636529225    15.08449437   309.23336894
 N     22  21  20     2.556370638369   120.73759875     0.27865223
 C     25  13  17     2.666210041769   125.60330303   182.37774668
 C     14  13  12     2.601476916169    80.24689249   177.85461986
 C     14  13  12    10.892550769017   164.51507311   312.20821879
 C     29  14  13     2.712892575415   106.58649366   178.76395472
 C     30  14  13     4.560507835333    27.10625047    82.12560436
 C     32  30  14     2.652673401891    87.90059683   149.76154742
 C     33  32  30     2.609133588376   120.14881443   359.74174632
 C     34  33  32     4.627519515267   152.49203239     2.45173620
 C     31  29  14     2.585449236669   108.16950133     0.70383075
 C     14  13  12     2.600716325456   169.26375223   353.09862627
 C     30  14  13     2.609536633043    14.68948582   353.70041132
 N     34  33  32     2.556154803934   120.85575621     0.19603406
 C     37  14  29     2.654530526499   126.01551127   180.90772073
 C     15  14  13     2.582293994346    81.61824056   183.09049352
 C      2   1   3     8.029564866989   161.91083422   115.36417927
 C     41  15  14     2.758391104639   111.05201287   175.08990246
 C     42   2   1     4.559821839776    41.78584867   186.12172073
 C     44  42   2     2.652129475853    87.95153797   233.97558675
 C     45  44  42     2.611027836043   120.11137308     0.19721020
 C     42   2   1     4.629866436820   135.97209175    96.43656984
 C     43  41  15     2.559561325344   106.26758155     0.30894352
 C     15  14  13     2.584127074516   171.87382904   332.35056460
 C     42   2   1     2.611386828803    32.59078432   234.97699993
 C      9   2   1     2.655043698059   126.98745415   187.32196601
 N     42   2   1     2.556355970587   113.57249190   124.17315903
 H      1   2   7     2.046950266625   154.25449401   165.60725934
 H      2   1   3     2.040730117440   125.66880760   154.37352434
 H      4   3   1     2.047477061462   121.09666222   179.57282618
 H      5   4   3     2.045239865373   122.83409555   179.48583402
 H      6   5   4     2.064535963427   104.42400670   100.10571528
 H      6   5   4     2.059273508576    84.66905795   209.52998780
 H      6   5   4     2.057883127427   133.91150896   322.37250165
 H      7   2  54     2.040541119952   126.66122480     1.30600390
 H     10   1   2     2.047878171926   118.73868996   150.98758796
 H     12   9   2     1.920524309565   125.29023241   180.00180175
 H     14  13  12     1.917952867083    44.97226959   359.42596618
 H     18  14  13     2.046330847636   128.03556573   234.20482432
 H     19  17  13     2.042592906181   126.41830519   178.11313280
 H     21  20  18     2.047649722989   121.05669627   180.67006309
 H     22  21  20     2.045596898814   122.73097286   180.59748951
 H     23  18  14     2.063779938267   103.92715769   234.93429879
 H     23  18  14     2.057669673245   134.19244188    12.25587044
 H     23  18  14     2.059486796529    84.85857450   125.45241208
 H     24  19  17     2.041046823986   127.28078426   178.44613241
 H     26  18  14     2.047344503340   118.76995697   244.94906660
 H     30  14  13     2.046012340948   127.99711412   279.66882698
 H     31  29  14     2.040450114918   125.22293469   180.92530585
 H     33  32  30     2.046930203877   121.01964473   180.74284758
 H     34  33  32     2.045617847496   122.70821597   180.59516895
 H     35  34  33     2.064814429233   105.73575241    97.19771933
 H     35  34  33     2.058786158072    84.05943581   206.43036958
 H     35  34  33     2.058418400901   133.08365142   318.50306270
 H     36  31  29     2.039845353366   126.61599965   178.98859863
 H     38  30  73     2.047975821711   118.77264435   359.90091293
 H     42   2   1     2.045020725966   119.31790784   340.80468948
 H     43  41  15     2.041436952892   126.36969097   182.06329380
 H     45  44  42     2.047097678177   121.10105945   179.58025624
 H     46  45  44     2.045051284662   122.72144639   179.46906377
 H     47  42   2     2.062723288131   106.65128841   315.16475048
 H     47  42   2     2.057569012371   132.46019523    94.52397119
 H     47  42   2     2.058915377895    83.63838232   206.04504406
 H     48  43  41     2.041664347903   127.23657387   181.62955349
 H     50  42   2     2.046925842384   118.77001737    94.71359229

---------------------
BASIS SET INFORMATION
---------------------
There are 3 groups of distinct atoms

 Group   1 Type C   : 17s4p1d contracted to 3s2p1d pattern {881/31/1}
 Group   2 Type N   : 17s4p1d contracted to 3s2p1d pattern {881/31/1}
 Group   3 Type H   : 4s1p contracted to 2s1p pattern {31/1}

Atom   0C    basis set group =>   1
Atom   1N    basis set group =>   2
Atom   2C    basis set group =>   1
Atom   3N    basis set group =>   2
Atom   4C    basis set group =>   1
Atom   5N    basis set group =>   2
Atom   6C    basis set group =>   1
Atom   7N    basis set group =>   2
Atom   8C    basis set group =>   1
Atom   9N    basis set group =>   2
Atom  10C    basis set group =>   1
Atom  11N    basis set group =>   2
Atom  12C    basis set group =>   1
Atom  13N    basis set group =>   2
Atom  14C    basis set group =>   1
Atom  15N    basis set group =>   2
Atom  16C    basis set group =>   1
Atom  17C    basis set group =>   1
Atom  18C    basis set group =>   1
Atom  19C    basis set group =>   1
Atom  20C    basis set group =>   1
Atom  21C    basis set group =>   1
Atom  22C    basis set group =>   1
Atom  23C    basis set group =>   1
Atom  24C    basis set group =>   1
Atom  25C    basis set group =>   1
Atom  26C    basis set group =>   1
Atom  27C    basis set group =>   1
Atom  28C    basis set group =>   1
Atom  29C    basis set group =>   1
Atom  30C    basis set group =>   1
Atom  31C    basis set group =>   1
Atom  32C    basis set group =>   1
Atom  33C    basis set group =>   1
Atom  34C    basis set group =>   1
Atom  35C    basis set group =>   1
Atom  36C    basis set group =>   1
Atom  37C    basis set group =>   1
Atom  38C    basis set group =>   1
Atom  39C    basis set group =>   1
Atom  40C    basis set group =>   1
Atom  41C    basis set group =>   1
Atom  42C    basis set group =>   1
Atom  43C    basis set group =>   1
Atom  44C    basis set group =>   1
Atom  45C    basis set group =>   1
Atom  46C    basis set group =>   1
Atom  47C    basis set group =>   1
Atom  48C    basis set group =>   1
Atom  49C    basis set group =>   1
Atom  50C    basis set group =>   1
Atom  51C    basis set group =>   1
Atom  52H    basis set group =>   3
Atom  53H    basis set group =>   3
Atom  54H    basis set group =>   3
Atom  55H    basis set group =>   3
Atom  56H    basis set group =>   3
Atom  57H    basis set group =>   3
Atom  58H    basis set group =>   3
Atom  59H    basis set group =>   3
Atom  60H    basis set group =>   3
Atom  61H    basis set group =>   3
Atom  62H    basis set group =>   3
Atom  63H    basis set group =>   3
Atom  64H    basis set group =>   3
Atom  65H    basis set group =>   3
Atom  66H    basis set group =>   3
Atom  67H    basis set group =>   3
Atom  68H    basis set group =>   3
Atom  69H    basis set group =>   3
Atom  70H    basis set group =>   3
Atom  71H    basis set group =>   3
Atom  72H    basis set group =>   3
Atom  73H    basis set group =>   3
Atom  74H    basis set group =>   3
Atom  75H    basis set group =>   3
Atom  76H    basis set group =>   3
Atom  77H    basis set group =>   3
Atom  78H    basis set group =>   3
Atom  79H    basis set group =>   3
Atom  80H    basis set group =>   3
Atom  81H    basis set group =>   3
Atom  82H    basis set group =>   3
Atom  83H    basis set group =>   3
Atom  84H    basis set group =>   3
Atom  85H    basis set group =>   3
Atom  86H    basis set group =>   3
Atom  87H    basis set group =>   3
Atom  88H    basis set group =>   3
Atom  89H    basis set group =>   3


           ************************************************************
           *        Program running with 16 parallel MPI-processes    *
           *              working on a common directory               *
           ************************************************************
------------------------------------------------------------------------------
                           ORCA GTO INTEGRAL CALCULATION
------------------------------------------------------------------------------
------------------------------------------------------------------------------
                   ___                                                        
                  /   \      - P O W E R E D   B Y -                         
                 /     \                                                     
                 |  |  |   _    _      __       _____    __    __             
                 |  |  |  | |  | |    /  \     |  _  \  |  |  /  |          
                  \  \/   | |  | |   /    \    | | | |  |  | /  /          
                 / \  \   | |__| |  /  /\  \   | |_| |  |  |/  /          
                |  |  |   |  __  | /  /__\  \  |    /   |      \           
                |  |  |   | |  | | |   __   |  |    \   |  |\   \          
                \     /   | |  | | |  |  |  |  | |\  \  |  | \   \       
                 \___/    |_|  |_| |__|  |__|  |_| \__\ |__|  \__/        
                                                                              
                      - O R C A' S   B I G   F R I E N D -                    
                                      &                                       
                       - I N T E G R A L  F E E D E R -                       
                                                                              
 v1 FN, 2020, v2 2021                                                         
------------------------------------------------------------------------------


Reading SHARK input file /scratch/allen/tmpyp4_amber_gaff2/conf1/conf1/Conf222.orca.SHARKINP.tmp ... ok
----------------------
SHARK INTEGRAL PACKAGE
----------------------

Number of atoms                             ...     90
Number of basis functions                   ...   1230
Number of shells                            ...    738
Maximum angular momentum                    ...      2
Integral batch strategy                     ... SHARK/LIBINT Hybrid
RI-J (if used) integral strategy            ... SPLIT-RIJ (Revised 2003 algorithm where possible)
Printlevel                                  ...      1
Contraction scheme used                     ... PARTIAL GENERAL contraction
Coulomb Range Separation                    ... NOT USED
Exchange Range Separation                   ... NOT USED
Finite Nucleus Model                        ... NOT USED
Auxiliary Coulomb fitting basis             ... NOT available
Auxiliary J/K fitting basis                 ... NOT available
Auxiliary Correlation fitting basis         ... NOT available
Auxiliary 'external' fitting basis          ... NOT available
Integral threshold                          ...     2.500000e-11
Primitive cut-off                           ...     2.500000e-12
Primitive pair pre-selection threshold      ...     2.500000e-12

Calculating pre-screening integrals         ... done (  0.1 sec) Dimension = 738
Calculating pre-screening integrals (ORCA)  ... done (  0.3 sec) Dimension = 426
Organizing shell pair data                  ... done (  0.7 sec)
Shell pair information
Total number of shell pairs                 ...    272691
Shell pairs after pre-screening             ...     71641
Total number of primitive shell pairs       ...    422091
Primitive shell pairs kept                  ...     92443
          la=0 lb=0:  29416 shell pairs
          la=1 lb=0:  25988 shell pairs
          la=1 lb=1:   4705 shell pairs
          la=2 lb=0:   7880 shell pairs
          la=2 lb=1:   3122 shell pairs
          la=2 lb=2:    530 shell pairs

Calculating one electron integrals          ... done (  0.2 sec)
Calculating Nuclear repulsion               ... done (  0.0 sec) ENN=   6229.104547647689 Eh

SHARK setup successfully completed in   2.2 seconds

Maximum memory used throughout the entire GTOINT-calculation: 99.0 MB


           ************************************************************
           *        Program running with 16 parallel MPI-processes    *
           *              working on a common directory               *
           ************************************************************
-------------------------------------------------------------------------------
                                 ORCA SCF
-------------------------------------------------------------------------------

------------
SCF SETTINGS
------------
Hamiltonian:
 Ab initio Hamiltonian  Method          .... Hartree-Fock(GTOs)


General Settings:
 Integral files         IntName         .... /scratch/allen/tmpyp4_amber_gaff2/conf1/conf1/Conf222.orca
 Hartree-Fock type      HFTyp           .... RHF
 Total Charge           Charge          ....    0
 Multiplicity           Mult            ....    1
 Number of Electrons    NEL             ....  358
 Basis Dimension        Dim             ....  918
 Nuclear Repulsion      ENuc            ....   6229.1045476477 Eh

Convergence Acceleration:
 DIIS                   CNVDIIS         .... on
   Start iteration      DIISMaxIt       ....    12
   Startup error        DIISStart       ....  0.200000
   # of expansion vecs  DIISMaxEq       ....     5
   Bias factor          DIISBfac        ....   1.050
   Max. coefficient     DIISMaxC        ....  10.000
 Trust-Rad. Augm. Hess. CNVTRAH         .... auto
   Auto Start mean grad. ratio tolernc. ....  1.125000
   Auto Start start iteration           ....    20
   Auto Start num. interpolation iter.  ....    10
   Max. Number of Micro iterations      ....    16
   Max. Number of Macro iterations      .... Maxiter - #DIIS iter
   Number of Davidson start vectors     ....     2
   Converg. threshold I  (grad. norm)   ....   1.000e-05
   Converg. threshold II (energy diff.) ....   1.000e-08
   Grad. Scal. Fac. for Micro threshold ....   0.100
   Minimum threshold for Micro iter.    ....   0.010
   NR start threshold (gradient norm)   ....   0.001
   Initial trust radius                 ....   0.400
   Minimum AH scaling param. (alpha)    ....   1.000
   Maximum AH scaling param. (alpha)    .... 1000.000
   Orbital update algorithm             .... Taylor
   White noise on init. David. guess    .... on
   Maximum white noise                  ....   0.010
   Quad. conv. algorithm                .... NR
 SOSCF                  CNVSOSCF        .... on
   Start iteration      SOSCFMaxIt      ....   150
   Startup grad/error   SOSCFStart      ....  0.003300
 Level Shifting         CNVShift        .... on
   Level shift para.    LevelShift      ....    0.2500
   Turn off err/grad.   ShiftErr        ....    0.0010
 Zerner damping         CNVZerner       .... off
 Static damping         CNVDamp         .... on
   Fraction old density DampFac         ....    0.7000
   Max. Damping (<1)    DampMax         ....    0.9800
   Min. Damping (>=0)   DampMin         ....    0.0000
   Turn off err/grad.   DampErr         ....    0.1000
 Fernandez-Rico         CNVRico         .... off

SCF Procedure:
 Maximum # iterations   MaxIter         ....   125
 SCF integral mode      SCFMode         .... Direct
   Integral package                     .... SHARK and LIBINT hybrid scheme
 Reset frequency        DirectResetFreq ....    20
 Integral Threshold     Thresh          ....  2.500e-11 Eh
 Primitive CutOff       TCut            ....  2.500e-12 Eh

Convergence Tolerance:
 Convergence Check Mode ConvCheckMode   .... Total+1el-Energy
 Convergence forced     ConvForced      .... 1
 Energy Change          TolE            ....  1.000e-08 Eh
 1-El. energy change                    ....  1.000e-05 Eh
 Orbital Gradient       TolG            ....  1.000e-05
 Orbital Rotation angle TolX            ....  1.000e-05
 DIIS Error             TolErr          ....  5.000e-07


Diagonalization of the overlap matrix:
Smallest eigenvalue                        ... 2.221e-04
Time for diagonalization                   ...    0.445 sec
Threshold for overlap eigenvalues          ... 1.000e-08
Number of eigenvalues below threshold      ... 0
Time for construction of square roots      ...    0.267 sec
Total time needed                          ...    0.720 sec

Time for model grid setup =    1.297 sec

------------------------------
INITIAL GUESS: MODEL POTENTIAL
------------------------------
Loading Hartree-Fock densities                     ... done
Calculating cut-offs                               ... done
Initializing the effective Hamiltonian             ... done
Setting up the integral package (SHARK)            ... done
Starting the Coulomb interaction                   ... done (   1.5 sec)
Reading the grid                                   ... done
Mapping shells                                     ... done
Starting the XC term evaluation                    ... done (   0.2 sec)
Transforming the Hamiltonian                       ... done (   0.3 sec)
Diagonalizing the Hamiltonian                      ... done (   0.4 sec)
Back transforming the eigenvectors                 ... done (   0.1 sec)
Now organizing SCF variables                       ... done
                      ------------------
                      INITIAL GUESS DONE (   3.8 sec)
                      ------------------
--------------
SCF ITERATIONS
--------------
ITER       Energy         Delta-E        Max-DP      RMS-DP      [F,P]     Damp
               ***  Starting incremental Fock matrix formation  ***
  0  -2121.6864824534   0.000000000000 0.06866478  0.00121306  0.2324827 0.7000
  1  -2122.3451059044  -0.658623451045 0.05204938  0.00098627  0.1439410 0.7000
                               ***Turning on DIIS***
  2  -2122.7543107097  -0.409204805312 0.11763619  0.00223652  0.0802317 0.0000
  3  -2117.8538636088   4.900447100943 0.03241837  0.00067799  0.0440389 0.0000
  4  -2123.4230392559  -5.569175647141 0.01038140  0.00022708  0.0072412 0.0000
  5  -2123.5898319282  -0.166792672295 0.00529370  0.00013369  0.0049661 0.0000
  6  -2123.5733027335   0.016529194772 0.00351986  0.00008600  0.0019866 0.0000
  7  -2123.6738219221  -0.100519188669 0.00297764  0.00006754  0.0015471 0.0000
  8  -2123.6872952070  -0.013473284867 0.00308301  0.00006336  0.0014421 0.0000
  9  -2123.6549514527   0.032343754312 0.00246268  0.00004365  0.0011494 0.0000
 10  -2123.6658568687  -0.010905416035 0.00497619  0.00008854  0.0008851 0.0000
                      *** Initiating the SOSCF procedure ***
                           *** Shutting down DIIS ***
                      *** Re-Reading the Fockian *** 
                      *** Removing any level shift *** 
ITER      Energy       Delta-E        Grad      Rot      Max-DP    RMS-DP
 11  -2123.55424567   0.1116112014  0.000229  0.000229  0.000247  0.000005
               *** Restarting incremental Fock matrix formation ***
 12  -2123.62003719  -0.0657915256  0.000888  0.005975  0.001216  0.000031
 13  -2123.62012443  -0.0000872326  0.001041  0.028524  0.005801  0.000120
 14  -2123.62026872  -0.0001442983  0.000379  0.001724  0.000540  0.000012
 15  -2123.62028436  -0.0000156410  0.000176  0.003591  0.000980  0.000019
 16  -2123.62029454  -0.0000101712  0.000169  0.003851  0.000616  0.000013
 17  -2123.62029863  -0.0000040989  0.000157  0.002524  0.000379  0.000009
 18  -2123.62030082  -0.0000021865  0.000080  0.001191  0.000318  0.000005
 19  -2123.62030186  -0.0000010410  0.000053  0.000655  0.000164  0.000003
 20  -2123.62030219  -0.0000003265  0.000026  0.000433  0.000110  0.000002
 21  -2123.62030237  -0.0000001821  0.000027  0.000440  0.000102  0.000002
 22  -2123.62030248  -0.0000001137  0.000019  0.000503  0.000111  0.000002
 23  -2123.62030255  -0.0000000694  0.000010  0.000281  0.000054  0.000001
 24  -2123.62030259  -0.0000000308  0.000006  0.000214  0.000041  0.000001
 25  -2123.62030261  -0.0000000217  0.000006  0.000142  0.000023  0.000001
 26  -2123.62030262  -0.0000000106  0.000004  0.000152  0.000024  0.000001
 27  -2123.62030263  -0.0000000079  0.000003  0.000150  0.000022  0.000001
                  ***Gradient check signals convergence***
              ***Rediagonalizing the Fockian in SOSCF/NRSCF***

               *****************************************************
               *                     SUCCESS                       *
               *           SCF CONVERGED AFTER  28 CYCLES          *
               *****************************************************


----------------
TOTAL SCF ENERGY
----------------

Total Energy       :        -2123.62030263 Eh          -57786.64625 eV

Components:
Nuclear Repulsion  :         6229.10454765 Eh          169502.55208 eV
Electronic Energy  :        -8352.72485028 Eh         -227289.19834 eV
One Electron Energy:       -15299.09038722 Eh         -416309.41420 eV
Two Electron Energy:         6946.36553695 Eh          189020.21586 eV

Virial components:
Potential Energy   :        -4245.71131967 Eh         -115531.67853 eV
Kinetic Energy     :         2122.09101704 Eh           57745.03227 eV
Virial Ratio       :            2.00072065


---------------
SCF CONVERGENCE
---------------

  Last Energy change         ...   -3.7180e-09  Tolerance :   1.0000e-08
  Last MAX-Density change    ...    1.5179e-05  Tolerance :   1.0000e-07
  Last RMS-Density change    ...    3.7895e-07  Tolerance :   5.0000e-09
  Last Orbital Gradient      ...    2.4722e-06  Tolerance :   1.0000e-05
  Last Orbital Rotation      ...    1.1461e-04  Tolerance :   1.0000e-05

             **** THE GBW FILE WAS UPDATED (/scratch/allen/tmpyp4_amber_gaff2/conf1/conf1/Conf222.orca.gbw) ****
             **** DENSITY /scratch/allen/tmpyp4_amber_gaff2/conf1/conf1/Conf222.orca.scfp WAS UPDATED ****
             **** ENERGY FILE WAS UPDATED (/scratch/allen/tmpyp4_amber_gaff2/conf1/conf1/Conf222.orca.en.tmp) ****
             **** THE GBW FILE WAS UPDATED (/scratch/allen/tmpyp4_amber_gaff2/conf1/conf1/Conf222.orca.gbw) ****
             **** DENSITY /scratch/allen/tmpyp4_amber_gaff2/conf1/conf1/Conf222.orca.scfp WAS UPDATED ****
----------------
ORBITAL ENERGIES
----------------

  NO   OCC          E(Eh)            E(eV) 
   0   2.0000     -15.663614      -426.2286 
   1   2.0000     -15.636380      -425.4875 
   2   2.0000     -15.629967      -425.3130 
   3   2.0000     -15.599382      -424.4808 
   4   2.0000     -15.523302      -422.4105 
   5   2.0000     -15.516365      -422.2218 
   6   2.0000     -15.450135      -420.4195 
   7   2.0000     -15.442547      -420.2131 
   8   2.0000     -11.317929      -307.9765 
   9   2.0000     -11.316257      -307.9310 
  10   2.0000     -11.314394      -307.8803 
  11   2.0000     -11.300804      -307.5105 
  12   2.0000     -11.297069      -307.4089 
  13   2.0000     -11.294128      -307.3288 
  14   2.0000     -11.289514      -307.2033 
  15   2.0000     -11.288586      -307.1780 
  16   2.0000     -11.285701      -307.0996 
  17   2.0000     -11.278576      -306.9057 
  18   2.0000     -11.266831      -306.5861 
  19   2.0000     -11.263257      -306.4888 
  20   2.0000     -11.262634      -306.4719 
  21   2.0000     -11.251967      -306.1816 
  22   2.0000     -11.251039      -306.1563 
  23   2.0000     -11.239884      -305.8528 
  24   2.0000     -11.234672      -305.7110 
  25   2.0000     -11.232864      -305.6618 
  26   2.0000     -11.232073      -305.6403 
  27   2.0000     -11.228221      -305.5354 
  28   2.0000     -11.228112      -305.5325 
  29   2.0000     -11.208662      -305.0032 
  30   2.0000     -11.207260      -304.9651 
  31   2.0000     -11.206247      -304.9375 
  32   2.0000     -11.203983      -304.8759 
  33   2.0000     -11.201857      -304.8180 
  34   2.0000     -11.191199      -304.5280 
  35   2.0000     -11.190565      -304.5107 
  36   2.0000     -11.184111      -304.3351 
  37   2.0000     -11.181759      -304.2711 
  38   2.0000     -11.180969      -304.2496 
  39   2.0000     -11.172852      -304.0288 
  40   2.0000     -11.169165      -303.9284 
  41   2.0000     -11.168817      -303.9190 
  42   2.0000     -11.165147      -303.8191 
  43   2.0000     -11.164137      -303.7916 
  44   2.0000     -11.162423      -303.7450 
  45   2.0000     -11.160791      -303.7006 
  46   2.0000     -11.154578      -303.5315 
  47   2.0000     -11.150714      -303.4264 
  48   2.0000     -11.149690      -303.3985 
  49   2.0000     -11.144312      -303.2522 
  50   2.0000     -11.135999      -303.0259 
  51   2.0000     -11.129177      -302.8403 
  52   2.0000      -1.346610       -36.6431 
  53   2.0000      -1.323273       -36.0081 
  54   2.0000      -1.317918       -35.8624 
  55   2.0000      -1.292390       -35.1677 
  56   2.0000      -1.223226       -33.2857 
  57   2.0000      -1.211308       -32.9614 
  58   2.0000      -1.168253       -31.7898 
  59   2.0000      -1.154222       -31.4080 
  60   2.0000      -1.132015       -30.8037 
  61   2.0000      -1.111800       -30.2536 
  62   2.0000      -1.107448       -30.1352 
  63   2.0000      -1.086981       -29.5783 
  64   2.0000      -1.069278       -29.0965 
  65   2.0000      -1.047317       -28.4989 
  66   2.0000      -1.042639       -28.3716 
  67   2.0000      -1.033703       -28.1285 
  68   2.0000      -1.019928       -27.7537 
  69   2.0000      -1.013450       -27.5774 
  70   2.0000      -1.009772       -27.4773 
  71   2.0000      -0.992799       -27.0154 
  72   2.0000      -0.987189       -26.8628 
  73   2.0000      -0.976613       -26.5750 
  74   2.0000      -0.973104       -26.4795 
  75   2.0000      -0.959668       -26.1139 
  76   2.0000      -0.951053       -25.8795 
  77   2.0000      -0.948108       -25.7993 
  78   2.0000      -0.936413       -25.4811 
  79   2.0000      -0.921451       -25.0740 
  80   2.0000      -0.900029       -24.4910 
  81   2.0000      -0.890683       -24.2367 
  82   2.0000      -0.874734       -23.8027 
  83   2.0000      -0.870567       -23.6893 
  84   2.0000      -0.865537       -23.5525 
  85   2.0000      -0.855714       -23.2852 
  86   2.0000      -0.844944       -22.9921 
  87   2.0000      -0.838187       -22.8082 
  88   2.0000      -0.822734       -22.3877 
  89   2.0000      -0.798595       -21.7309 
  90   2.0000      -0.794672       -21.6241 
  91   2.0000      -0.744937       -20.2708 
  92   2.0000      -0.737843       -20.0777 
  93   2.0000      -0.731546       -19.9064 
  94   2.0000      -0.722727       -19.6664 
  95   2.0000      -0.720769       -19.6131 
  96   2.0000      -0.713926       -19.4269 
  97   2.0000      -0.706942       -19.2369 
  98   2.0000      -0.702880       -19.1263 
  99   2.0000      -0.695852       -18.9351 
 100   2.0000      -0.693934       -18.8829 
 101   2.0000      -0.682001       -18.5582 
 102   2.0000      -0.678786       -18.4707 
 103   2.0000      -0.675843       -18.3906 
 104   2.0000      -0.673752       -18.3337 
 105   2.0000      -0.671710       -18.2782 
 106   2.0000      -0.664954       -18.0943 
 107   2.0000      -0.662605       -18.0304 
 108   2.0000      -0.655336       -17.8326 
 109   2.0000      -0.654164       -17.8007 
 110   2.0000      -0.650147       -17.6914 
 111   2.0000      -0.646919       -17.6036 
 112   2.0000      -0.642732       -17.4896 
 113   2.0000      -0.637701       -17.3527 
 114   2.0000      -0.634342       -17.2613 
 115   2.0000      -0.630493       -17.1566 
 116   2.0000      -0.625453       -17.0194 
 117   2.0000      -0.615823       -16.7574 
 118   2.0000      -0.614136       -16.7115 
 119   2.0000      -0.611525       -16.6404 
 120   2.0000      -0.609877       -16.5956 
 121   2.0000      -0.601961       -16.3802 
 122   2.0000      -0.600452       -16.3391 
 123   2.0000      -0.589133       -16.0311 
 124   2.0000      -0.585848       -15.9417 
 125   2.0000      -0.582640       -15.8544 
 126   2.0000      -0.579342       -15.7647 
 127   2.0000      -0.576861       -15.6972 
 128   2.0000      -0.563691       -15.3388 
 129   2.0000      -0.558529       -15.1983 
 130   2.0000      -0.554311       -15.0836 
 131   2.0000      -0.548885       -14.9359 
 132   2.0000      -0.541627       -14.7384 
 133   2.0000      -0.538061       -14.6414 
 134   2.0000      -0.535156       -14.5623 
 135   2.0000      -0.534761       -14.5516 
 136   2.0000      -0.526188       -14.3183 
 137   2.0000      -0.524589       -14.2748 
 138   2.0000      -0.516679       -14.0596 
 139   2.0000      -0.515612       -14.0305 
 140   2.0000      -0.511075       -13.9070 
 141   2.0000      -0.510109       -13.8808 
 142   2.0000      -0.508323       -13.8322 
 143   2.0000      -0.502480       -13.6732 
 144   2.0000      -0.501378       -13.6432 
 145   2.0000      -0.497991       -13.5510 
 146   2.0000      -0.494293       -13.4504 
 147   2.0000      -0.486532       -13.2392 
 148   2.0000      -0.484435       -13.1821 
 149   2.0000      -0.468606       -12.7514 
 150   2.0000      -0.463930       -12.6242 
 151   2.0000      -0.456041       -12.4095 
 152   2.0000      -0.448733       -12.2107 
 153   2.0000      -0.446326       -12.1452 
 154   2.0000      -0.444553       -12.0969 
 155   2.0000      -0.440716       -11.9925 
 156   2.0000      -0.431895       -11.7525 
 157   2.0000      -0.426048       -11.5934 
 158   2.0000      -0.400051       -10.8859 
 159   2.0000      -0.387415       -10.5421 
 160   2.0000      -0.378470       -10.2987 
 161   2.0000      -0.376508       -10.2453 
 162   2.0000      -0.370478       -10.0812 
 163   2.0000      -0.358150        -9.7458 
 164   2.0000      -0.354384        -9.6433 
 165   2.0000      -0.338094        -9.2000 
 166   2.0000      -0.336956        -9.1690 
 167   2.0000      -0.332010        -9.0345 
 168   2.0000      -0.327493        -8.9115 
 169   2.0000      -0.301679        -8.2091 
 170   2.0000      -0.299859        -8.1596 
 171   2.0000      -0.287230        -7.8159 
 172   2.0000      -0.284579        -7.7438 
 173   2.0000      -0.260253        -7.0818 
 174   2.0000      -0.245337        -6.6760 
 175   2.0000      -0.189442        -5.1550 
 176   2.0000      -0.179649        -4.8885 
 177   2.0000      -0.072201        -1.9647 
 178   2.0000      -0.056984        -1.5506 
 179   0.0000       0.029171         0.7938 
 180   0.0000       0.068114         1.8535 
 181   0.0000       0.092099         2.5061 
 182   0.0000       0.105069         2.8591 
 183   0.0000       0.117004         3.1839 
 184   0.0000       0.135696         3.6925 
 185   0.0000       0.140480         3.8226 
 186   0.0000       0.149375         4.0647 
 187   0.0000       0.161872         4.4048 
 188   0.0000       0.163125         4.4388 
 189   0.0000       0.163930         4.4608 
 190   0.0000       0.166799         4.5388 
 191   0.0000       0.182148         4.9565 
 192   0.0000       0.188935         5.1412 
 193   0.0000       0.192334         5.2337 
 194   0.0000       0.203688         5.5426 
 195   0.0000       0.206722         5.6252 
 196   0.0000       0.207027         5.6335 
 197   0.0000       0.209774         5.7082 
 198   0.0000       0.222223         6.0470 
 199   0.0000       0.224427         6.1070 
 200   0.0000       0.225990         6.1495 
 201   0.0000       0.238068         6.4782 
 202   0.0000       0.240842         6.5536 
 203   0.0000       0.242105         6.5880 
 204   0.0000       0.251518         6.8441 
 205   0.0000       0.255156         6.9431 
 206   0.0000       0.257150         6.9974 
 207   0.0000       0.259078         7.0499 
 208   0.0000       0.261345         7.1116 
 209   0.0000       0.261650         7.1199 
 210   0.0000       0.264950         7.2097 
 211   0.0000       0.269819         7.3421 
 212   0.0000       0.272284         7.4092 
 213   0.0000       0.272512         7.4154 
 214   0.0000       0.275482         7.4962 
 215   0.0000       0.277972         7.5640 
 216   0.0000       0.279015         7.5924 
 217   0.0000       0.280540         7.6339 
 218   0.0000       0.284582         7.7439 
 219   0.0000       0.289110         7.8671 
 220   0.0000       0.289726         7.8839 
 221   0.0000       0.292938         7.9712 
 222   0.0000       0.294186         8.0052 
 223   0.0000       0.295653         8.0451 
 224   0.0000       0.298408         8.1201 
 225   0.0000       0.298986         8.1358 
 226   0.0000       0.305521         8.3136 
 227   0.0000       0.309054         8.4098 
 228   0.0000       0.310297         8.4436 
 229   0.0000       0.320158         8.7119 
 230   0.0000       0.323694         8.8082 
 231   0.0000       0.324783         8.8378 
 232   0.0000       0.328963         8.9515 
 233   0.0000       0.333638         9.0787 
 234   0.0000       0.345379         9.3983 
 235   0.0000       0.346634         9.4324 
 236   0.0000       0.358294         9.7497 
 237   0.0000       0.381514        10.3815 
 238   0.0000       0.394865        10.7448 
 239   0.0000       0.398049        10.8315 
 240   0.0000       0.401828        10.9343 
 241   0.0000       0.414843        11.2884 
 242   0.0000       0.418830        11.3969 
 243   0.0000       0.421816        11.4782 
 244   0.0000       0.429475        11.6866 
 245   0.0000       0.431819        11.7504 
 246   0.0000       0.435134        11.8406 
 247   0.0000       0.440081        11.9752 
 248   0.0000       0.442438        12.0394 
 249   0.0000       0.444315        12.0904 
 250   0.0000       0.450949        12.2710 
 251   0.0000       0.458252        12.4697 
 252   0.0000       0.461053        12.5459 
 253   0.0000       0.466461        12.6931 
 254   0.0000       0.470982        12.8161 
 255   0.0000       0.473491        12.8843 
 256   0.0000       0.481829        13.1112 
 257   0.0000       0.482741        13.1361 
 258   0.0000       0.488355        13.2888 
 259   0.0000       0.499191        13.5837 
 260   0.0000       0.502148        13.6641 
 261   0.0000       0.504978        13.7412 
 262   0.0000       0.506896        13.7934 
 263   0.0000       0.508116        13.8266 
 264   0.0000       0.513792        13.9810 
 265   0.0000       0.519582        14.1385 
 266   0.0000       0.519831        14.1453 
 267   0.0000       0.524765        14.2796 
 268   0.0000       0.534348        14.5403 
 269   0.0000       0.537967        14.6388 
 270   0.0000       0.540840        14.7170 
 271   0.0000       0.546694        14.8763 
 272   0.0000       0.548556        14.9270 
 273   0.0000       0.556569        15.1450 
 274   0.0000       0.560076        15.2405 
 275   0.0000       0.565732        15.3944 
 276   0.0000       0.569810        15.5053 
 277   0.0000       0.574167        15.6239 
 278   0.0000       0.579926        15.7806 
 279   0.0000       0.585632        15.9359 
 280   0.0000       0.588307        16.0087 
 281   0.0000       0.592344        16.1185 
 282   0.0000       0.593523        16.1506 
 283   0.0000       0.597336        16.2543 
 284   0.0000       0.598337        16.2816 
 285   0.0000       0.600497        16.3404 
 286   0.0000       0.607393        16.5280 
 287   0.0000       0.611491        16.6395 
 288   0.0000       0.612571        16.6689 
 289   0.0000       0.620014        16.8714 
 290   0.0000       0.628013        17.0891 
 291   0.0000       0.628511        17.1027 
 292   0.0000       0.633282        17.2325 
 293   0.0000       0.635932        17.3046 
 294   0.0000       0.645678        17.5698 
 295   0.0000       0.649903        17.6847 
 296   0.0000       0.653999        17.7962 
 297   0.0000       0.657315        17.8865 
 298   0.0000       0.664994        18.0954 
 299   0.0000       0.666522        18.1370 
 300   0.0000       0.670014        18.2320 
 301   0.0000       0.670214        18.2375 
 302   0.0000       0.678618        18.4661 
 303   0.0000       0.681350        18.5405 
 304   0.0000       0.682936        18.5836 
 305   0.0000       0.687481        18.7073 
 306   0.0000       0.690309        18.7843 
 307   0.0000       0.692738        18.8504 
 308   0.0000       0.696472        18.9520 
 309   0.0000       0.698042        18.9947 
 310   0.0000       0.700036        19.0489 
 311   0.0000       0.703921        19.1547 
 312   0.0000       0.705538        19.1987 
 313   0.0000       0.710084        19.3224 
 314   0.0000       0.711713        19.3667 
 315   0.0000       0.714214        19.4348 
 316   0.0000       0.717284        19.5183 
 317   0.0000       0.719050        19.5664 
 318   0.0000       0.721327        19.6283 
 319   0.0000       0.724102        19.7038 
 320   0.0000       0.725746        19.7486 
 321   0.0000       0.728769        19.8308 
 322   0.0000       0.733160        19.9503 
 323   0.0000       0.737382        20.0652 
 324   0.0000       0.738469        20.0948 
 325   0.0000       0.738900        20.1065 
 326   0.0000       0.742590        20.2069 
 327   0.0000       0.745161        20.2768 
 328   0.0000       0.748746        20.3744 
 329   0.0000       0.749799        20.4031 
 330   0.0000       0.751962        20.4619 
 331   0.0000       0.756174        20.5765 
 332   0.0000       0.757347        20.6085 
 333   0.0000       0.761955        20.7339 
 334   0.0000       0.768522        20.9126 
 335   0.0000       0.771087        20.9823 
 336   0.0000       0.775918        21.1138 
 337   0.0000       0.784765        21.3545 
 338   0.0000       0.786455        21.4005 
 339   0.0000       0.787331        21.4244 
 340   0.0000       0.790732        21.5169 
 341   0.0000       0.794430        21.6175 
 342   0.0000       0.798045        21.7159 
 343   0.0000       0.802552        21.8386 
 344   0.0000       0.805339        21.9144 
 345   0.0000       0.807452        21.9719 
 346   0.0000       0.809149        22.0181 
 347   0.0000       0.811324        22.0773 
 348   0.0000       0.812156        22.0999 
 349   0.0000       0.818465        22.2716 
 350   0.0000       0.821804        22.3624 
 351   0.0000       0.822577        22.3835 
 352   0.0000       0.824253        22.4291 
 353   0.0000       0.827283        22.5115 
 354   0.0000       0.828766        22.5519 
 355   0.0000       0.831446        22.6248 
 356   0.0000       0.832600        22.6562 
 357   0.0000       0.835631        22.7387 
 358   0.0000       0.836921        22.7738 
 359   0.0000       0.838339        22.8124 
 360   0.0000       0.839819        22.8526 
 361   0.0000       0.842430        22.9237 
 362   0.0000       0.843398        22.9500 
 363   0.0000       0.845273        23.0011 
 364   0.0000       0.847027        23.0488 
 365   0.0000       0.851774        23.1780 
 366   0.0000       0.855831        23.2883 
 367   0.0000       0.858642        23.3648 
 368   0.0000       0.861861        23.4524 
 369   0.0000       0.864888        23.5348 
 370   0.0000       0.868953        23.6454 
 371   0.0000       0.873310        23.7640 
 372   0.0000       0.875238        23.8164 
 373   0.0000       0.877532        23.8789 
 374   0.0000       0.878653        23.9094 
 375   0.0000       0.882837        24.0232 
 376   0.0000       0.884185        24.0599 
 377   0.0000       0.888661        24.1817 
 378   0.0000       0.889893        24.2152 
 379   0.0000       0.895071        24.3561 
 380   0.0000       0.895642        24.3717 
 381   0.0000       0.898960        24.4619 
 382   0.0000       0.901776        24.5386 
 383   0.0000       0.902645        24.5622 
 384   0.0000       0.904682        24.6176 
 385   0.0000       0.905464        24.6389 
 386   0.0000       0.907577        24.6964 
 387   0.0000       0.909518        24.7492 
 388   0.0000       0.910325        24.7712 
 389   0.0000       0.916138        24.9294 
 390   0.0000       0.917696        24.9718 
 391   0.0000       0.921163        25.0661 
 392   0.0000       0.923488        25.1294 
 393   0.0000       0.926780        25.2190 
 394   0.0000       0.928835        25.2749 
 395   0.0000       0.930436        25.3184 
 396   0.0000       0.931770        25.3547 
 397   0.0000       0.933767        25.4091 
 398   0.0000       0.940145        25.5826 
 399   0.0000       0.941640        25.6233 
 400   0.0000       0.944547        25.7024 
 401   0.0000       0.946771        25.7629 
 402   0.0000       0.952165        25.9097 
 403   0.0000       0.956325        26.0229 
 404   0.0000       0.958355        26.0782 
 405   0.0000       0.960369        26.1330 
 406   0.0000       0.961421        26.1616 
 407   0.0000       0.966097        26.2888 
 408   0.0000       0.968727        26.3604 
 409   0.0000       0.975391        26.5417 
 410   0.0000       0.980133        26.6708 
 411   0.0000       0.985678        26.8217 
 412   0.0000       0.987207        26.8633 
 413   0.0000       0.989544        26.9269 
 414   0.0000       0.992156        26.9979 
 415   0.0000       0.994427        27.0597 
 416   0.0000       1.002468        27.2785 
 417   0.0000       1.007800        27.4236 
 418   0.0000       1.012341        27.5472 
 419   0.0000       1.017957        27.7000 
 420   0.0000       1.026596        27.9351 
 421   0.0000       1.029820        28.0228 
 422   0.0000       1.031717        28.0745 
 423   0.0000       1.041304        28.3353 
 424   0.0000       1.045702        28.4550 
 425   0.0000       1.047356        28.5000 
 426   0.0000       1.058427        28.8013 
 427   0.0000       1.063620        28.9426 
 428   0.0000       1.066332        29.0164 
 429   0.0000       1.075576        29.2679 
 430   0.0000       1.078206        29.3395 
 431   0.0000       1.082144        29.4466 
 432   0.0000       1.084616        29.5139 
 433   0.0000       1.090889        29.6846 
 434   0.0000       1.098751        29.8985 
 435   0.0000       1.101962        29.9859 
 436   0.0000       1.104801        30.0632 
 437   0.0000       1.111717        30.2514 
 438   0.0000       1.114411        30.3247 
 439   0.0000       1.118091        30.4248 
 440   0.0000       1.119972        30.4760 
 441   0.0000       1.123154        30.5626 
 442   0.0000       1.125367        30.6228 
 443   0.0000       1.128810        30.7165 
 444   0.0000       1.132779        30.8245 
 445   0.0000       1.135849        30.9080 
 446   0.0000       1.141141        31.0520 
 447   0.0000       1.143203        31.1081 
 448   0.0000       1.144494        31.1433 
 449   0.0000       1.149365        31.2758 
 450   0.0000       1.150579        31.3089 
 451   0.0000       1.152141        31.3514 
 452   0.0000       1.157464        31.4962 
 453   0.0000       1.159850        31.5611 
 454   0.0000       1.164459        31.6865 
 455   0.0000       1.169625        31.8271 
 456   0.0000       1.173325        31.9278 
 457   0.0000       1.175088        31.9758 
 458   0.0000       1.178774        32.0761 
 459   0.0000       1.184061        32.2199 
 460   0.0000       1.186977        32.2993 
 461   0.0000       1.196066        32.5466 
 462   0.0000       1.202385        32.7185 
 463   0.0000       1.204691        32.7813 
 464   0.0000       1.208051        32.8727 
 465   0.0000       1.210216        32.9317 
 466   0.0000       1.214678        33.0531 
 467   0.0000       1.218020        33.1440 
 468   0.0000       1.222788        33.2738 
 469   0.0000       1.226270        33.3685 
 470   0.0000       1.230072        33.4720 
 471   0.0000       1.232480        33.5375 
 472   0.0000       1.234548        33.5938 
 473   0.0000       1.235945        33.6318 
 474   0.0000       1.242862        33.8200 
 475   0.0000       1.245832        33.9008 
 476   0.0000       1.249243        33.9936 
 477   0.0000       1.250472        34.0271 
 478   0.0000       1.251313        34.0500 
 479   0.0000       1.254019        34.1236 
 480   0.0000       1.260192        34.2916 
 481   0.0000       1.265090        34.4249 
 482   0.0000       1.265643        34.4399 
 483   0.0000       1.269756        34.5518 
 484   0.0000       1.271973        34.6122 
 485   0.0000       1.277685        34.7676 
 486   0.0000       1.280092        34.8331 
 487   0.0000       1.282694        34.9039 
 488   0.0000       1.287556        35.0362 
 489   0.0000       1.290739        35.1228 
 490   0.0000       1.292310        35.1656 
 491   0.0000       1.298349        35.3299 
 492   0.0000       1.298511        35.3343 
 493   0.0000       1.309683        35.6383 
 494   0.0000       1.310822        35.6693 
 495   0.0000       1.313166        35.7331 
 496   0.0000       1.319777        35.9129 
 497   0.0000       1.323574        36.0163 
 498   0.0000       1.326851        36.1055 
 499   0.0000       1.329119        36.1672 
 500   0.0000       1.332697        36.2645 
 501   0.0000       1.336052        36.3558 
 502   0.0000       1.337072        36.3836 
 503   0.0000       1.343902        36.5694 
 504   0.0000       1.346713        36.6459 
 505   0.0000       1.350765        36.7562 
 506   0.0000       1.353115        36.8201 
 507   0.0000       1.358485        36.9663 
 508   0.0000       1.360413        37.0187 
 509   0.0000       1.361983        37.0614 
[...]
      pz      :     0.022059  p :     0.079697
      px      :     0.043490
      py      :     0.014148
 77 H s       :     0.886346  s :     0.886346
      pz      :     0.047839  p :     0.079131
      px      :     0.015018
      py      :     0.016273
 78 H s       :     0.886723  s :     0.886723
      pz      :     0.025811  p :     0.079085
      px      :     0.020495
      py      :     0.032779
 79 H s       :     0.910015  s :     0.910015
      pz      :     0.021935  p :     0.086481
      px      :     0.021702
      py      :     0.042844
 80 H s       :     0.866963  s :     0.866963
      pz      :     0.039183  p :     0.084540
      px      :     0.030137
      py      :     0.015220
 81 H s       :     0.887138  s :     0.887138
      pz      :     0.037782  p :     0.084033
      px      :     0.016179
      py      :     0.030071
 82 H s       :     0.915654  s :     0.915654
      pz      :     0.022008  p :     0.086775
      px      :     0.031540
      py      :     0.033228
 83 H s       :     0.873159  s :     0.873159
      pz      :     0.039267  p :     0.084041
      px      :     0.015268
      py      :     0.029507
 84 H s       :     0.886891  s :     0.886891
      pz      :     0.035777  p :     0.083552
      px      :     0.031704
      py      :     0.016070
 85 H s       :     0.893214  s :     0.893214
      pz      :     0.022493  p :     0.079770
      px      :     0.014080
      py      :     0.043197
 86 H s       :     0.890945  s :     0.890945
      pz      :     0.024727  p :     0.078837
      px      :     0.032982
      py      :     0.021128
 87 H s       :     0.890077  s :     0.890077
      pz      :     0.047986  p :     0.078719
      px      :     0.015596
      py      :     0.015137
 88 H s       :     0.911733  s :     0.911733
      pz      :     0.021770  p :     0.086988
      px      :     0.042789
      py      :     0.022429
 89 H s       :     0.872026  s :     0.872026
      pz      :     0.037908  p :     0.083824
      px      :     0.030461
      py      :     0.015455


                      *****************************
                      * MAYER POPULATION ANALYSIS *
                      *****************************

  NA   - Mulliken gross atomic population
  ZA   - Total nuclear charge
  QA   - Mulliken gross atomic charge
  VA   - Mayer's total valence
  BVA  - Mayer's bonded valence
  FA   - Mayer's free valence

  ATOM       NA         ZA         QA         VA         BVA        FA
  0 C      5.7919     6.0000     0.2081     3.8366     3.8366     0.0000
  1 N      7.4522     7.0000    -0.4522     3.3374     3.3374     0.0000
  2 C      6.0628     6.0000    -0.0628     3.9202     3.9202    -0.0000
  3 N      7.3360     7.0000    -0.3360     3.4550     3.4550     0.0000
  4 C      6.0495     6.0000    -0.0495     3.9991     3.9991     0.0000
  5 N      7.5630     7.0000    -0.5630     3.0918     3.0918     0.0000
  6 C      6.1038     6.0000    -0.1038     4.0079     4.0079     0.0000
  7 N      7.3394     7.0000    -0.3394     3.4367     3.4367     0.0000
  8 C      5.7961     6.0000     0.2039     3.8387     3.8387     0.0000
  9 N      7.5627     7.0000    -0.5627     3.0796     3.0796    -0.0000
 10 C      5.8817     6.0000     0.1183     3.9055     3.9055     0.0000
 11 N      7.4379     7.0000    -0.4379     3.3808     3.3808    -0.0000
 12 C      6.0834     6.0000    -0.0834     3.9130     3.9130    -0.0000
 13 N      7.4333     7.0000    -0.4333     3.4105     3.4105    -0.0000
 14 C      5.7594     6.0000     0.2406     3.7802     3.7802     0.0000
 15 N      7.4411     7.0000    -0.4411     3.3711     3.3711     0.0000
 16 C      5.7716     6.0000     0.2284     3.7837     3.7837     0.0000
 17 C      6.1057     6.0000    -0.1057     4.0045     4.0045     0.0000
 18 C      6.2074     6.0000    -0.2074     3.7712     3.7712     0.0000
 19 C      5.7656     6.0000     0.2344     3.8592     3.8592    -0.0000
 20 C      5.7880     6.0000     0.2120     3.8279     3.8279    -0.0000
 21 C      6.0953     6.0000    -0.0953     3.9005     3.9005    -0.0000
 22 C      6.0900     6.0000    -0.0900     3.9828     3.9828     0.0000
 23 C      6.0424     6.0000    -0.0424     3.9920     3.9920     0.0000
 24 C      5.8023     6.0000     0.1977     3.8219     3.8219     0.0000
 25 C      5.8857     6.0000     0.1143     3.8907     3.8907     0.0000
 26 C      6.0747     6.0000    -0.0747     3.9096     3.9096    -0.0000
 27 C      5.7855     6.0000     0.2145     3.8698     3.8698     0.0000
 28 C      6.0587     6.0000    -0.0587     3.9883     3.9883     0.0000
 29 C      6.1808     6.0000    -0.1808     3.7424     3.7424     0.0000
 30 C      5.7577     6.0000     0.2423     3.7980     3.7980     0.0000
 31 C      5.7764     6.0000     0.2236     3.8212     3.8212     0.0000
 32 C      6.0629     6.0000    -0.0629     3.9214     3.9214    -0.0000
 33 C      6.0680     6.0000    -0.0680     3.9773     3.9773     0.0000
 34 C      6.0504     6.0000    -0.0504     3.9868     3.9868    -0.0000
 35 C      5.7807     6.0000     0.2193     3.8199     3.8199    -0.0000
 36 C      5.8896     6.0000     0.1104     3.8809     3.8809     0.0000
 37 C      6.0653     6.0000    -0.0653     3.9175     3.9175     0.0000
 38 C      5.7664     6.0000     0.2336     3.8000     3.8000    -0.0000
 39 C      6.0592     6.0000    -0.0592     3.9860     3.9860     0.0000
 40 C      6.1840     6.0000    -0.1840     3.7324     3.7324     0.0000
 41 C      5.7759     6.0000     0.2241     3.8845     3.8845    -0.0000
 42 C      5.8010     6.0000     0.1990     3.8266     3.8266    -0.0000
 43 C      6.0727     6.0000    -0.0727     3.9010     3.9010     0.0000
 44 C      6.0898     6.0000    -0.0898     3.9850     3.9850    -0.0000
 45 C      6.0583     6.0000    -0.0583     3.9926     3.9926    -0.0000
 46 C      5.7915     6.0000     0.2085     3.8277     3.8277     0.0000
 47 C      5.8845     6.0000     0.1155     3.8934     3.8934     0.0000
 48 C      6.0695     6.0000    -0.0695     3.9078     3.9078     0.0000
 49 C      5.7655     6.0000     0.2345     3.8904     3.8904    -0.0000
 50 C      6.0488     6.0000    -0.0488     3.9906     3.9906    -0.0000
 51 C      6.1906     6.0000    -0.1906     3.7358     3.7358     0.0000
 52 H      0.9559     1.0000     0.0441     0.9858     0.9858    -0.0000
 53 H      1.0156     1.0000    -0.0156     0.9983     0.9983    -0.0000
 54 H      0.9512     1.0000     0.0488     1.0105     1.0105     0.0000
 55 H      0.9580     1.0000     0.0420     0.9866     0.9866    -0.0000
 56 H      0.9485     1.0000     0.0515     0.9701     0.9701    -0.0000
 57 H      0.9501     1.0000     0.0499     0.9832     0.9832    -0.0000
 58 H      0.9502     1.0000     0.0498     0.9850     0.9850     0.0000
 59 H      1.0009     1.0000    -0.0009     1.0028     1.0028     0.0000
 60 H      0.9484     1.0000     0.0516     1.0122     1.0122    -0.0000
 61 H      0.8284     1.0000     0.1716     1.0421     1.0421    -0.0000
 62 H      0.8254     1.0000     0.1746     1.0435     1.0435     0.0000
 63 H      0.9441     1.0000     0.0559     0.9853     0.9853    -0.0000
 64 H      1.0090     1.0000    -0.0090     0.9983     0.9983     0.0000
 65 H      0.9524     1.0000     0.0476     1.0093     1.0093     0.0000
 66 H      0.9433     1.0000     0.0567     0.9853     0.9853     0.0000
 67 H      0.9374     1.0000     0.0626     0.9720     0.9720     0.0000
 68 H      0.9422     1.0000     0.0578     0.9868     0.9868     0.0000
 69 H      0.9427     1.0000     0.0573     0.9829     0.9829    -0.0000
 70 H      1.0277     1.0000    -0.0277     0.9935     0.9935    -0.0000
 71 H      0.9541     1.0000     0.0459     1.0062     1.0062     0.0000
 72 H      0.9339     1.0000     0.0661     0.9841     0.9841     0.0000
 73 H      1.0100     1.0000    -0.0100     1.0001     1.0001    -0.0000
 74 H      0.9445     1.0000     0.0555     1.0100     1.0100    -0.0000
 75 H      0.9347     1.0000     0.0653     0.9845     0.9845    -0.0000
 76 H      0.9297     1.0000     0.0703     0.9720     0.9720     0.0000
 77 H      0.9355     1.0000     0.0645     0.9854     0.9854    -0.0000
 78 H      0.9363     1.0000     0.0637     0.9852     0.9852     0.0000
 79 H      1.0155     1.0000    -0.0155     0.9982     0.9982     0.0000
 80 H      0.9438     1.0000     0.0562     1.0072     1.0072     0.0000
 81 H      0.9464     1.0000     0.0536     0.9856     0.9856     0.0000
 82 H      1.0244     1.0000    -0.0244     0.9937     0.9937     0.0000
 83 H      0.9578     1.0000     0.0422     1.0086     1.0086     0.0000
 84 H      0.9463     1.0000     0.0537     0.9853     0.9853     0.0000
 85 H      0.9399     1.0000     0.0601     0.9716     0.9716    -0.0000
 86 H      0.9443     1.0000     0.0557     0.9839     0.9839    -0.0000
 87 H      0.9432     1.0000     0.0568     0.9856     0.9856     0.0000
 88 H      1.0168     1.0000    -0.0168     0.9960     0.9960     0.0000
 89 H      0.9549     1.0000     0.0451     1.0074     1.0074    -0.0000

  Mayer bond orders larger than 0.100000
B(  0-C ,  1-N ) :   1.0964 B(  0-C , 17-C ) :   1.6877 B(  0-C , 52-H ) :   0.9681 
B(  1-N ,  8-C ) :   1.0921 B(  1-N , 10-C ) :   0.9740 B(  2-C , 12-C ) :   1.5172 
B(  2-C , 16-C ) :   1.3468 B(  2-C , 53-H ) :   0.9763 B(  3-N , 14-C ) :   1.2149 
B(  3-N , 16-C ) :   1.1926 B(  3-N , 61-H ) :   0.8990 B(  4-C ,  6-C ) :   1.2235 
B(  4-C , 17-C ) :   1.2233 B(  4-C , 18-C ) :   1.3933 B(  5-N , 19-C ) :   1.4447 
B(  5-N , 27-C ) :   1.3851 B(  6-C ,  8-C ) :   1.6874 B(  6-C , 54-H ) :   0.9652 
B(  7-N , 30-C ) :   1.1951 B(  7-N , 38-C ) :   1.1945 B(  7-N , 62-H ) :   0.8973 
B(  8-C , 55-H ) :   0.9688 B(  9-N , 41-C ) :   1.3981 B(  9-N , 49-C ) :   1.4228 
B( 10-C , 56-H ) :   0.9767 B( 10-C , 57-H ) :   0.9821 B( 10-C , 58-H ) :   0.9842 
B( 11-N , 20-C ) :   1.1296 B( 11-N , 24-C ) :   1.1124 B( 11-N , 25-C ) :   0.9593 
B( 12-C , 14-C ) :   1.3478 B( 12-C , 59-H ) :   0.9743 B( 13-N , 31-C ) :   1.1479 
B( 13-N , 35-C ) :   1.1436 B( 13-N , 36-C ) :   0.9480 B( 14-C , 18-C ) :   1.1477 
B( 15-N , 42-C ) :   1.1097 B( 15-N , 46-C ) :   1.1200 B( 15-N , 47-C ) :   0.9619 
B( 16-C , 51-C ) :   1.1789 B( 17-C , 60-H ) :   0.9646 B( 18-C , 19-C ) :   1.1557 
B( 19-C , 21-C ) :   1.2340 B( 20-C , 28-C ) :   1.6262 B( 20-C , 63-H ) :   0.9702 
B( 21-C , 26-C ) :   1.6228 B( 21-C , 64-H ) :   0.9699 B( 22-C , 23-C ) :   1.2887 
B( 22-C , 28-C ) :   1.2678 B( 22-C , 29-C ) :   1.2226 B( 23-C , 24-C ) :   1.6185 
B( 23-C , 65-H ) :   0.9705 B( 24-C , 66-H ) :   0.9694 B( 25-C , 67-H ) :   0.9761 
B( 25-C , 68-H ) :   0.9828 B( 25-C , 69-H ) :   0.9822 B( 26-C , 27-C ) :   1.2300 
B( 26-C , 70-H ) :   0.9717 B( 27-C , 29-C ) :   1.2212 B( 28-C , 71-H ) :   0.9718 
B( 29-C , 30-C ) :   1.2313 B( 30-C , 32-C ) :   1.2923 B( 31-C , 39-C ) :   1.6035 
B( 31-C , 72-H ) :   0.9687 B( 32-C , 37-C ) :   1.5665 B( 32-C , 73-H ) :   0.9783 
B( 33-C , 34-C ) :   1.2961 B( 33-C , 39-C ) :   1.2906 B( 33-C , 40-C ) :   1.2018 
B( 34-C , 35-C ) :   1.6004 B( 34-C , 74-H ) :   0.9699 B( 35-C , 75-H ) :   0.9687 
B( 36-C , 76-H ) :   0.9766 B( 36-C , 77-H ) :   0.9818 B( 36-C , 78-H ) :   0.9826 
B( 37-C , 38-C ) :   1.2958 B( 37-C , 79-H ) :   0.9770 B( 38-C , 40-C ) :   1.2236 
B( 39-C , 80-H ) :   0.9709 B( 40-C , 41-C ) :   1.2400 B( 41-C , 43-C ) :   1.1948 
B( 42-C , 50-C ) :   1.6340 B( 42-C , 81-H ) :   0.9697 B( 43-C , 48-C ) :   1.6574 
B( 43-C , 82-H ) :   0.9727 B( 44-C , 45-C ) :   1.2654 B( 44-C , 50-C ) :   1.2699 
B( 44-C , 51-C ) :   1.2600 B( 45-C , 46-C ) :   1.6348 B( 45-C , 83-H ) :   0.9716 
B( 46-C , 84-H ) :   0.9701 B( 47-C , 85-H ) :   0.9761 B( 47-C , 86-H ) :   0.9829 
B( 47-C , 87-H ) :   0.9825 B( 48-C , 49-C ) :   1.1973 B( 48-C , 88-H ) :   0.9745 
B( 49-C , 51-C ) :   1.2342 B( 50-C , 89-H ) :   0.9711 

-------
TIMINGS
-------

Total SCF time: 0 days 0 hours 28 min 28 sec 

Total time                  ....    1708.470 sec
Sum of individual times     ....    1703.689 sec  ( 99.7%)

Fock matrix formation       ....    1676.046 sec  ( 98.1%)
Diagonalization             ....       8.743 sec  (  0.5%)
Density matrix formation    ....       0.535 sec  (  0.0%)
Population analysis         ....       0.635 sec  (  0.0%)
Initial guess               ....       2.525 sec  (  0.1%)
Orbital Transformation      ....       0.000 sec  (  0.0%)
Orbital Orthonormalization  ....       0.000 sec  (  0.0%)
DIIS solution               ....       3.956 sec  (  0.2%)
SOSCF solution              ....       9.950 sec  (  0.6%)

Maximum memory used throughout the entire SCF-calculation: 302.6 MB


           ************************************************************
           *        Program running with 16 parallel MPI-processes    *
           *              working on a common directory               *
           ************************************************************

------------------------------------------------------------------------------
                                ORCA  MP2 
------------------------------------------------------------------------------

Freezing NCore=104 chemical core electrons

----------
MP2 ENERGY (disk based algorithm)
----------

Dimension of the basis                    ...  918
Memory devoted to MP2                     ... 2000 MB   
Data format for buffers                   ... DOUBLE
Compression type for matrix containers    ... UNCOMPRESSED

-------------------------------
PARTIAL EXCHANGE TRANSFORMATION
-------------------------------

Transformation type                        ... one-operator
Generation of integrals (i,mue|j,nue)      ... ON
Generation of integrals (mue,kappa|nue,tau)... OFF
Generation of integrals (i,mue|a,nue)      ... OFF
Dimension of the basis                     ...  918
Number of internal MOs                     ...  127 (  52- 178)
Pair cutoff                                ... 2.500e-12 Eh
Number of AO pairs in the trafo            ... 421821
Total Number of distinct AO pairs          ... 421821
Memory devoted for trafo                   ... 2000.0 MB 
Max. Number of MO pairs treated together   ...  311      
Number Format for Storage                  ... Double (8 Byte)
Integral package used                      ... LIBINT

Starting integral evaluation:
    ... done with AO integral generation
Closing buffer AOK     (38.24 GB; CompressionRatio= 1.33)
Collecting buffer AOK 
Number of MO pairs included in the trafo   ... 8128
------------------------
SORTING OF (i,mue|j,nue)
------------------------

IBATCH = 1 of  2
IBATCH = 2 of  2
Closing buffer KAO     (51.03 GB; CompressionRatio= 1.00)
Collecting buffer KAO 
N(AO-Batches) Done                         ...  85753791 
N(AO-Batches) Skipped                      ...  82376986 
N(IJ)-pairs Skipped                        ...         0 
TOTAL TIME for half transformation         ...  2877.949 sec
AO-integral generation                     ...   209.834 sec
Half transformation                        ...   423.316 sec
K-integral sorting                         ...  2022.953 sec
Process 10:   Internal MO 132
Process 13:   Internal MO 156
Process  4:   Internal MO  84
Process  1:   Internal MO  60

Finished integral transformation - now doing MP2 part

Process  7:   Internal MO 108
OPERATOR COMBINATION   0   0: ij=( 52..178, 52..178)
Process  0:   Internal MO  54
Process  2:   Internal MO  69
Process  0:   Internal MO  57
Process  1:   Internal MO  63
Process  5:   Internal MO  93
Process  3:   Internal MO  78
Process  8:   Internal MO 117
Process  1:   Internal MO  66
Process  2:   Internal MO  72
Process 11:   Internal MO 141
Process  6:   Internal MO 102
Process 14:   Internal MO 165
Process  4:   Internal MO  87
Process  2:   Internal MO  75
Process  5:   Internal MO  96
Process  7:   Internal MO 111
Process 12:   Internal MO 150
Process  3:   Internal MO  81
Process  9:   Internal MO 126
Process  4:   Internal MO  90
Process  6:   Internal MO 105
Process 10:   Internal MO 135
Process 15:   Internal MO 174
Process  8:   Internal MO 120
Process  5:   Internal MO  99
Process  7:   Internal MO 114
Process 11:   Internal MO 144
Process 14:   Internal MO 168
Process  9:   Internal MO 129
Process 13:   Internal MO 159
Process 12:   Internal MO 153
Process  8:   Internal MO 123
Process 10:   Internal MO 138
Process 15:   Internal MO 177
Process 11:   Internal MO 147
Process 13:   Internal MO 162
Process 14:   Internal MO 171
-----------------------------------------------
 MP2 CORRELATION ENERGY   :     -7.285068695 Eh
-----------------------------------------------


-------
TIMINGS
-------
Total time                : 3170.339 sec
Integral trafo            : 2880.474 sec ( 90.9%)
K(i,j)                    :    6.102 sec (  0.2%)
T(i,j)                    :    0.099 sec (  0.0%)

---------------------------------------
MP2 TOTAL ENERGY:    -2130.905371323 Eh
---------------------------------------

Maximum memory used throughout the entire MP2-calculation: 2275.3 MB

-------------------------   --------------------
FINAL SINGLE POINT ENERGY     -2130.905371323471
-------------------------   --------------------


                            ***************************************
                            *     ORCA property calculations      *
                            ***************************************


  WARNING: The energy has been calculated at the MP2 level but the densities
           used in the property calculations are still SCF densities
           MP2 response densities have not been calculated 
           use %mp2 Density relaxed end
           or  %mp2 Density unrelaxed end

                                    ---------------------
                                    Active property flags
                                    ---------------------
   (+) Dipole Moment


------------------------------------------------------------------------------
                       ORCA ELECTRIC PROPERTIES CALCULATION
------------------------------------------------------------------------------

Dipole Moment Calculation                       ... on
Quadrupole Moment Calculation                   ... off
Polarizability Calculation                      ... off
GBWName                                         ... /scratch/allen/tmpyp4_amber_gaff2/conf1/conf1/Conf222.orca.gbw
Electron density                                ... /scratch/allen/tmpyp4_amber_gaff2/conf1/conf1/Conf222.orca.scfp
The origin for moment calculation is the CENTER OF MASS  = ( 0.002307, -0.002517 -0.001282)

-------------
DIPOLE MOMENT
-------------
                                X             Y             Z
Electronic contribution:      1.59183      -3.17203      -0.14482
Nuclear contribution   :      0.07940       0.24156       0.14890
                        -----------------------------------------
Total Dipole Moment    :      1.67123      -2.93047       0.00408
                        -----------------------------------------
Magnitude (a.u.)       :      3.37352
Magnitude (Debye)      :      8.57481



--------------------
Rotational spectrum 
--------------------
 
Rotational constants in cm-1:     0.001500     0.001477     0.000761 
Rotational constants in MHz :    44.958380    44.278981    22.816205 

 Dipole components along the rotational axes: 
x,y,z [a.u.] :     2.397204    -2.373619     0.002368 
x,y,z [Debye]:     6.093207    -6.033260     0.006019 

 

Timings for individual modules:

Sum of individual times         ...     4903.234 sec (=  81.721 min)
GTO integral calculation        ...        3.570 sec (=   0.059 min)   0.1 %
SCF iterations                  ...     1709.737 sec (=  28.496 min)  34.9 %
MP2 module                      ...     3189.927 sec (=  53.165 min)  65.1 %
                             ****ORCA TERMINATED NORMALLY****
TOTAL RUN TIME: 0 days 1 hours 21 minutes 46 seconds 744 msec
# of primitive gaussian functions

