
                                 *****************
                                 * O   R   C   A *
                                 *****************

                                            #,                                       
                                            ###                                      
                                            ####                                     
                                            #####                                    
                                            ######                                   
                                           ########,                                 
                                     ,,################,,,,,                         
                               ,,#################################,,                 
                          ,,##########################################,,             
                       ,#########################################, ''#####,          
                    ,#############################################,,   '####,        
                  ,##################################################,,,,####,       
                ,###########''''           ''''###############################       
              ,#####''   ,,,,##########,,,,          '''####'''          '####       
            ,##' ,,,,###########################,,,                        '##       
           ' ,,###''''                  '''############,,,                           
         ,,##''                                '''############,,,,        ,,,,,,###''
      ,#''                                            '''#######################'''  
     '                                                          ''''####''''         
             ,#######,   #######,   ,#######,      ##                                
            ,#'     '#,  ##    ##  ,#'     '#,    #''#        ######   ,####,        
            ##       ##  ##   ,#'  ##            #'  '#       #        #'  '#        
            ##       ##  #######   ##           ,######,      #####,   #    #        
            '#,     ,#'  ##    ##  '#,     ,#' ,#      #,         ##   #,  ,#        
             '#######'   ##     ##  '#######'  #'      '#     #####' # '####'        



                  #######################################################
                  #                        -***-                        #
                  #          Department of theory and spectroscopy      #
                  #    Directorship and core code : Frank Neese         #
                  #        Max Planck Institute fuer Kohlenforschung    #
                  #                Kaiser Wilhelm Platz 1               #
                  #                 D-45470 Muelheim/Ruhr               #
                  #                      Germany                        #
                  #                                                     #
                  #                  All rights reserved                #
                  #                        -***-                        #
                  #######################################################


                         Program Version 5.0.4 -  RELEASE  -


 With contributions from (in alphabetic order):
   Daniel Aravena         : Magnetic Suceptibility
   Michael Atanasov       : Ab Initio Ligand Field Theory (pilot matlab implementation)
   Alexander A. Auer      : GIAO ZORA, VPT2 properties, NMR spectrum
   Ute Becker             : Parallelization
   Giovanni Bistoni       : ED, misc. LED, open-shell LED, HFLD
   Martin Brehm           : Molecular dynamics
   Dmytro Bykov           : SCF Hessian
   Vijay G. Chilkuri      : MRCI spin determinant printing, contributions to CSF-ICE
   Dipayan Datta          : RHF DLPNO-CCSD density
   Achintya Kumar Dutta   : EOM-CC, STEOM-CC
   Dmitry Ganyushin       : Spin-Orbit,Spin-Spin,Magnetic field MRCI
   Miquel Garcia          : C-PCM and meta-GGA Hessian, CC/C-PCM, Gaussian charge scheme
   Yang Guo               : DLPNO-NEVPT2, F12-NEVPT2, CIM, IAO-localization
   Andreas Hansen         : Spin unrestricted coupled pair/coupled cluster methods
   Benjamin Helmich-Paris : MC-RPA, TRAH-SCF, COSX integrals
   Lee Huntington         : MR-EOM, pCC
   Robert Izsak           : Overlap fitted RIJCOSX, COSX-SCS-MP3, EOM
   Marcus Kettner         : VPT2
   Christian Kollmar      : KDIIS, OOCD, Brueckner-CCSD(T), CCSD density, CASPT2, CASPT2-K
   Simone Kossmann        : Meta GGA functionals, TD-DFT gradient, OOMP2, MP2 Hessian
   Martin Krupicka        : Initial AUTO-CI
   Lucas Lang             : DCDCAS
   Marvin Lechner         : AUTO-CI (C++ implementation), FIC-MRCC
   Dagmar Lenk            : GEPOL surface, SMD
   Dimitrios Liakos       : Extrapolation schemes; Compound Job, initial MDCI parallelization
   Dimitrios Manganas     : Further ROCIS development; embedding schemes
   Dimitrios Pantazis     : SARC Basis sets
   Anastasios Papadopoulos: AUTO-CI, single reference methods and gradients
   Taras Petrenko         : DFT Hessian,TD-DFT gradient, ASA, ECA, R-Raman, ABS, FL, XAS/XES, NRVS
   Peter Pinski           : DLPNO-MP2, DLPNO-MP2 Gradient
   Christoph Reimann      : Effective Core Potentials
   Marius Retegan         : Local ZFS, SOC
   Christoph Riplinger    : Optimizer, TS searches, QM/MM, DLPNO-CCSD(T), (RO)-DLPNO pert. Triples
   Tobias Risthaus        : Range-separated hybrids, TD-DFT gradient, RPA, STAB
   Michael Roemelt        : Original ROCIS implementation
   Masaaki Saitow         : Open-shell DLPNO-CCSD energy and density
   Barbara Sandhoefer     : DKH picture change effects
   Avijit Sen             : IP-ROCIS
   Kantharuban Sivalingam : CASSCF convergence, NEVPT2, FIC-MRCI
   Bernardo de Souza      : ESD, SOC TD-DFT
   Georgi Stoychev        : AutoAux, RI-MP2 NMR, DLPNO-MP2 response
   Willem Van den Heuvel  : Paramagnetic NMR
   Boris Wezisla          : Elementary symmetry handling
   Frank Wennmohs         : Technical directorship


 We gratefully acknowledge several colleagues who have allowed us to
 interface, adapt or use parts of their codes:
   Stefan Grimme, W. Hujo, H. Kruse, P. Pracht,  : VdW corrections, initial TS optimization,
                  C. Bannwarth, S. Ehlert          DFT functionals, gCP, sTDA/sTD-DF
   Ed Valeev, F. Pavosevic, A. Kumar             : LibInt (2-el integral package), F12 methods
   Garnet Chan, S. Sharma, J. Yang, R. Olivares  : DMRG
   Ulf Ekstrom                                   : XCFun DFT Library
   Mihaly Kallay                                 : mrcc  (arbitrary order and MRCC methods)
   Jiri Pittner, Ondrej Demel                    : Mk-CCSD
   Frank Weinhold                                : gennbo (NPA and NBO analysis)
   Christopher J. Cramer and Donald G. Truhlar   : smd solvation model
   Lars Goerigk                                  : TD-DFT with DH, B97 family of functionals
   V. Asgeirsson, H. Jonsson                     : NEB implementation
   FAccTs GmbH                                   : IRC, NEB, NEB-TS, DLPNO-Multilevel, CI-OPT
                                                   MM, QMMM, 2- and 3-layer-ONIOM, Crystal-QMMM,
                                                   LR-CPCM, SF, NACMEs, symmetry and pop. for TD-DFT,
                                                   nearIR, NL-DFT gradient (VV10), updates on ESD,
                                                   ML-optimized integration grids
   S Lehtola, MJT Oliveira, MAL Marques          : LibXC Library
   Liviu Ungur et al                             : ANISO software


 Your calculation uses the libint2 library for the computation of 2-el integrals
 For citations please refer to: http://libint.valeyev.net

 Your ORCA version has been built with support for libXC version: 5.1.0
 For citations please refer to: https://tddft.org/programs/libxc/

 This ORCA versions uses:
   CBLAS   interface :  Fast vector & matrix operations
   LAPACKE interface :  Fast linear algebra routines
   SCALAPACK package :  Parallel linear algebra routines
   Shared memory     :  Shared parallel matrices
   BLAS/LAPACK       :  OpenBLAS 0.3.15  USE64BITINT DYNAMIC_ARCH NO_AFFINITY Sandybridge SINGLE_THREADED
        Core in use  :  Sandybridge
   Copyright (c) 2011-2014, The OpenBLAS Project


================================================================================

----- Orbital basis set information -----
Your calculation utilizes the basis: cc-pVDZ 
       H, B-Ne : Obtained from the ccRepo (grant-hill.group.shef.ac.uk/ccrepo) Feb. 2017
                 T. H. Dunning, Jr., J. Chem. Phys. 90, 1007 (1989)
            He : Obtained from the ccRepo (grant-hill.group.shef.ac.uk/ccrepo) Feb. 2017
                 D. E. Woon, T. H. Dunning, Jr., J. Chem. Phys. 100, 2975 (1994)
  Li-Be, Na-Mg : Obtained from the ccRepo (grant-hill.group.shef.ac.uk/ccrepo) Feb. 2017
                 B. P. Prascher, D. E. Woon, K. A. Peterson, T. H. Dunning, Jr., A. K. Wilson, Theor. Chem. Acc. 128, 69 (2011)
         Al-Ar : Obtained from the ccRepo (grant-hill.group.shef.ac.uk/ccrepo) Feb. 2017
                 D. E. Woon, T. H. Dunning, Jr., J. Chem. Phys. 98, 1358 (1993)
            Ca : Obtained from the Peterson Research Group Website (tyr0.chem.wsu.edu/~kipeters) Feb. 2017
                 J. Koput, K. A. Peterson, J. Phys. Chem. 106, 9595 (2002)
         Sc-Zn : Obtained from the ccRepo (grant-hill.group.shef.ac.uk/ccrepo) Feb. 2017
                 N. B. Balabanov, K. A. Peterson, J. Chem. Phys. 123, 064107 (2005)
                 N. B. Balabanov, K. A. Peterson, J. Chem. Phys. 125, 074110 (2006)
         Ga-Kr : Obtained from the ccRepo (grant-hill.group.shef.ac.uk/ccrepo) Feb. 2017
                 A. K. Wilson, D. E. Woon, K. A. Peterson, T. H. Dunning, Jr., J. Chem. Phys. 110, 7667 (1999)

================================================================================
                                        WARNINGS
                       Please study these warnings very carefully!
================================================================================


WARNING: No MP2 level density has been requested!
         To caclulate MP2 level properties use
         %mp2 Density relaxed end
         or
         %mp2 Density unrelaxed end

WARNING: Post HF methods need fully converged wavefunctions
  ===> : Setting SCFConvForced true
         You can overwrite this default with %scf ConvForced false 


INFO   : the flag for use of the SHARK integral package has been found!

================================================================================
                                       INPUT FILE
================================================================================
NAME = /scratch/allen/tmpyp4_amber_gaff2/2.Mdgx/conf11/conf11/Conf128.orca
|  1> ! PAL2
|  2> ! mp2 cc-pvdz TightSCF  NoKeepInts
|  3> 
|  4> %scf
|  5>   MaxCore 2000
|  6> end
|  7> %mp2
|  8>   MaxCore 2000
|  9> end
| 10> * xyz 0 1
| 11>    C       -4.55500         5.47500        -0.86900
| 12>    C        1.47400         4.04100         0.05700
| 13>    C       -2.80200         4.09300         0.04900
| 14>    C       -2.61800         5.07200         1.03700
| 15>    C       -3.40200         6.20800         1.04300
| 16>    C       -5.20100         7.60900         0.15300
| 17>    C        0.13200         4.30700         0.06100
| 18>    C       -0.56900         3.05600         0.04700
| 19>    C        1.64900         2.61800         0.02300
| 20>    C       -3.79900         4.31900        -0.91200
| 21>    N       -4.35200         6.39900         0.09700
| 22>    N        0.38800         2.06700         0.02500
| 23>    N       -2.01000         0.39500        -0.07500
| 24>    N       -0.38800        -2.07400        -0.02700
| 25>    N        2.01000        -0.40100         0.06500
| 26>    C       -1.96000         2.86100         0.02400
| 27>    C       -2.62300         1.61500        -0.01800
| 28>    C       -5.57300        -4.32900         1.06600
| 29>    C       -4.07300         1.47100         0.05600
| 30>    C       -4.10600        -2.75600        -0.02600
| 31>    C       -4.99500        -2.75700        -1.11100
| 32>    C       -6.13200        -3.54200        -1.07600
| 33>    C       -7.65100        -5.11300         0.04000
| 34>    C       -4.32400         0.14100         0.03700
| 35>    C       -3.02500        -0.52000        -0.04800
| 36>    C       -4.42200        -3.56600         1.07500
| 37>    N       -6.40700        -4.31300         0.00100
| 38>    C       -2.86700        -1.92200        -0.04000
| 39>    C       -1.65000        -2.62400        -0.02700
| 40>    C        3.56800        -6.14200        -1.04000
| 41>    C       -1.47600        -4.04900        -0.03400
| 42>    C        2.80300        -4.09900        -0.00800
| 43>    C        3.65700        -4.38400         1.06900
| 44>    C        4.42700        -5.53000         1.05900
| 45>    C        5.24500        -7.58800         0.01400
| 46>    C       -0.13400        -4.31500        -0.02200
| 47>    C        0.56800        -3.06400        -0.02700
| 48>    C        2.77500        -5.01200        -1.07400
| 49>    N        4.37600        -6.39100         0.01700
| 50>    C        1.95900        -2.86900        -0.00900
| 51>    C        2.62100        -1.62200         0.00900
| 52>    C        5.54300         4.33900        -1.13000
| 53>    C        4.07000        -1.47900        -0.09400
| 54>    C        4.10400         2.75100        -0.02100
| 55>    C        5.02700         2.72900         1.03600
| 56>    C        6.16600         3.50900         0.97800
| 57>    C        7.61900         5.15300        -0.11500
| 58>    C        4.32100        -0.14800        -0.09200
| 59>    C        3.02500         0.51400         0.01500
| 60>    C        4.38700         3.58200        -1.11500
| 61>    C        2.86600         1.91600         0.01300
| 62>    N        6.41300         4.29600        -0.09500
| 63>    H       -5.32600         5.69600        -1.59600
| 64>    H        2.27400         4.76600         0.08100
| 65>    H       -1.87100         4.95100         1.81200
| 66>    H       -3.30300         6.98600         1.78900
| 67>    H       -6.04800         7.41900         0.81600
| 68>    H       -4.60600         8.43900         0.53300
| 69>    H       -5.55700         7.83400        -0.85300
| 70>    H       -0.33200         5.28200         0.06900
| 71>    H       -3.98000         3.60700        -1.70900
| 72>    H        0.18200         1.07200         0.00500
| 73>    H       -0.18300        -1.08000        -0.02100
| 74>    H       -5.86400        -4.96200         1.89500
| 75>    H       -4.79400         2.27200         0.13900
| 76>    H       -4.80000        -2.16000        -1.99400
| 77>    H       -6.84100        -3.58200        -1.89300
| 78>    H       -8.42800        -4.53600         0.54600
| 79>    H       -7.95600        -5.33700        -0.98100
| 80>    H       -7.45600        -6.03700         0.58400
| 81>    H       -5.28700        -0.34400         0.10000
| 82>    H       -3.78000        -3.60100         1.94700
| 83>    H        3.58700        -6.86800        -1.84300
| 84>    H       -2.27600        -4.77400        -0.05000
| 85>    H        3.71400        -3.72400         1.92600
| 86>    H        5.09200        -5.79500         1.87100
| 87>    H        6.20500        -7.32900        -0.43900
| 88>    H        5.39300        -7.91700         1.04200
| 89>    H        4.75900        -8.37300        -0.56400
| 90>    H        0.32900        -5.29000        -0.00800
| 91>    H        2.14600        -4.84200        -1.94000
| 92>    H        5.80800         4.98600        -1.95600
| 93>    H        4.78800        -2.28100        -0.18500
| 94>    H        4.86000         2.11400         1.91200
| 95>    H        6.90100         3.53100         1.77200
| 96>    H        7.38300         6.10900         0.35600
| 97>    H        8.41400         4.65200         0.43500
| 98>    H        7.92100         5.31000        -1.15000
| 99>    H        5.28300         0.33600        -0.17900
|100>    H        3.72000         3.63200        -1.96700
|101> *
|102> 
|103>                          ****END OF INPUT****
================================================================================

                       ****************************
                       * Single Point Calculation *
                       ****************************

---------------------------------
CARTESIAN COORDINATES (ANGSTROEM)
---------------------------------
  C     -4.555000    5.475000   -0.869000
  C      1.474000    4.041000    0.057000
  C     -2.802000    4.093000    0.049000
  C     -2.618000    5.072000    1.037000
  C     -3.402000    6.208000    1.043000
  C     -5.201000    7.609000    0.153000
  C      0.132000    4.307000    0.061000
  C     -0.569000    3.056000    0.047000
  C      1.649000    2.618000    0.023000
  C     -3.799000    4.319000   -0.912000
  N     -4.352000    6.399000    0.097000
  N      0.388000    2.067000    0.025000
  N     -2.010000    0.395000   -0.075000
  N     -0.388000   -2.074000   -0.027000
  N      2.010000   -0.401000    0.065000
  C     -1.960000    2.861000    0.024000
  C     -2.623000    1.615000   -0.018000
  C     -5.573000   -4.329000    1.066000
  C     -4.073000    1.471000    0.056000
  C     -4.106000   -2.756000   -0.026000
  C     -4.995000   -2.757000   -1.111000
  C     -6.132000   -3.542000   -1.076000
  C     -7.651000   -5.113000    0.040000
  C     -4.324000    0.141000    0.037000
  C     -3.025000   -0.520000   -0.048000
  C     -4.422000   -3.566000    1.075000
  N     -6.407000   -4.313000    0.001000
  C     -2.867000   -1.922000   -0.040000
  C     -1.650000   -2.624000   -0.027000
  C      3.568000   -6.142000   -1.040000
  C     -1.476000   -4.049000   -0.034000
  C      2.803000   -4.099000   -0.008000
  C      3.657000   -4.384000    1.069000
  C      4.427000   -5.530000    1.059000
  C      5.245000   -7.588000    0.014000
  C     -0.134000   -4.315000   -0.022000
  C      0.568000   -3.064000   -0.027000
  C      2.775000   -5.012000   -1.074000
  N      4.376000   -6.391000    0.017000
  C      1.959000   -2.869000   -0.009000
  C      2.621000   -1.622000    0.009000
  C      5.543000    4.339000   -1.130000
  C      4.070000   -1.479000   -0.094000
  C      4.104000    2.751000   -0.021000
  C      5.027000    2.729000    1.036000
  C      6.166000    3.509000    0.978000
  C      7.619000    5.153000   -0.115000
  C      4.321000   -0.148000   -0.092000
  C      3.025000    0.514000    0.015000
  C      4.387000    3.582000   -1.115000
  C      2.866000    1.916000    0.013000
  N      6.413000    4.296000   -0.095000
  H     -5.326000    5.696000   -1.596000
  H      2.274000    4.766000    0.081000
  H     -1.871000    4.951000    1.812000
  H     -3.303000    6.986000    1.789000
  H     -6.048000    7.419000    0.816000
  H     -4.606000    8.439000    0.533000
  H     -5.557000    7.834000   -0.853000
  H     -0.332000    5.282000    0.069000
  H     -3.980000    3.607000   -1.709000
  H      0.182000    1.072000    0.005000
  H     -0.183000   -1.080000   -0.021000
  H     -5.864000   -4.962000    1.895000
  H     -4.794000    2.272000    0.139000
  H     -4.800000   -2.160000   -1.994000
  H     -6.841000   -3.582000   -1.893000
  H     -8.428000   -4.536000    0.546000
  H     -7.956000   -5.337000   -0.981000
  H     -7.456000   -6.037000    0.584000
  H     -5.287000   -0.344000    0.100000
  H     -3.780000   -3.601000    1.947000
  H      3.587000   -6.868000   -1.843000
  H     -2.276000   -4.774000   -0.050000
  H      3.714000   -3.724000    1.926000
  H      5.092000   -5.795000    1.871000
  H      6.205000   -7.329000   -0.439000
  H      5.393000   -7.917000    1.042000
  H      4.759000   -8.373000   -0.564000
  H      0.329000   -5.290000   -0.008000
  H      2.146000   -4.842000   -1.940000
  H      5.808000    4.986000   -1.956000
  H      4.788000   -2.281000   -0.185000
  H      4.860000    2.114000    1.912000
  H      6.901000    3.531000    1.772000
  H      7.383000    6.109000    0.356000
  H      8.414000    4.652000    0.435000
  H      7.921000    5.310000   -1.150000
  H      5.283000    0.336000   -0.179000
  H      3.720000    3.632000   -1.967000

----------------------------
CARTESIAN COORDINATES (A.U.)
----------------------------
  NO LB      ZA    FRAG     MASS         X           Y           Z
   0 C     6.0000    0    12.011   -8.607703   10.346251   -1.642172
   1 C     6.0000    0    12.011    2.785456    7.636383    0.107714
   2 C     6.0000    0    12.011   -5.295013    7.734649    0.092597
   3 C     6.0000    0    12.011   -4.947303    9.584691    1.959646
   4 C     6.0000    0    12.011   -6.428848   11.731420    1.970984
   5 C     6.0000    0    12.011   -9.828466   14.378926    0.289128
   6 C     6.0000    0    12.011    0.249444    8.139050    0.115273
   7 C     6.0000    0    12.011   -1.075254    5.775003    0.088817
   8 C     6.0000    0    12.011    3.116158    4.947303    0.043464
   9 C     6.0000    0    12.011   -7.179070    8.161727   -1.723430
  10 N     7.0000    0    14.007   -8.224088   12.092358    0.183303
  11 N     7.0000    0    14.007    0.733214    3.906064    0.047243
  12 N     7.0000    0    14.007   -3.798350    0.746442   -0.141729
  13 N     7.0000    0    14.007   -0.733214   -3.919292   -0.051023
  14 N     7.0000    0    14.007    3.798350   -0.757780    0.122832
  15 C     6.0000    0    12.011   -3.703863    5.406506    0.045353
  16 C     6.0000    0    12.011   -4.956752    3.051908   -0.034015
  17 C     6.0000    0    12.011  -10.531444   -8.180624    2.014448
  18 C     6.0000    0    12.011   -7.696855    2.779787    0.105825
  19 C     6.0000    0    12.011   -7.759216   -5.208085   -0.049133
  20 C     6.0000    0    12.011   -9.439182   -5.209975   -2.099486
  21 C     6.0000    0    12.011  -11.587801   -6.693410   -2.033345
  22 C     6.0000    0    12.011  -14.458295   -9.662170    0.075589
  23 C     6.0000    0    12.011   -8.171176    0.266451    0.069920
  24 C     6.0000    0    12.011   -5.716422   -0.982658   -0.090707
  25 C     6.0000    0    12.011   -8.356369   -6.738763    2.031456
  26 N     7.0000    0    14.007  -12.107475   -8.150389    0.001890
  27 C     6.0000    0    12.011   -5.417845   -3.632054   -0.075589
  28 C     6.0000    0    12.011   -3.118048   -4.958641   -0.051023
  29 C     6.0000    0    12.011    6.742543  -11.606698   -1.965315
  30 C     6.0000    0    12.011   -2.789236   -7.651501   -0.064251
  31 C     6.0000    0    12.011    5.296902   -7.745987   -0.015118
  32 C     6.0000    0    12.011    6.910728   -8.284559    2.020117
  33 C     6.0000    0    12.011    8.365818  -10.450186    2.001220
  34 C     6.0000    0    12.011    9.911614  -14.339242    0.026456
  35 C     6.0000    0    12.011   -0.253223   -8.154168   -0.041574
  36 C     6.0000    0    12.011    1.073364   -5.790121   -0.051023
  37 C     6.0000    0    12.011    5.243990   -9.471307   -2.029566
  38 N     7.0000    0    14.007    8.269442  -12.077240    0.032125
  39 C     6.0000    0    12.011    3.701973   -5.421624   -0.017008
  40 C     6.0000    0    12.011    4.952972   -3.065136    0.017008
  41 C     6.0000    0    12.011   10.474752    8.199522   -2.135391
  42 C     6.0000    0    12.011    7.691185   -2.794905   -0.177634
  43 C     6.0000    0    12.011    7.755436    5.198637   -0.039684
  44 C     6.0000    0    12.011    9.499653    5.157063    1.957756
  45 C     6.0000    0    12.011   11.652051    6.631049    1.848152
  46 C     6.0000    0    12.011   14.397823    9.737759   -0.217319
  47 C     6.0000    0    12.011    8.165507   -0.279679   -0.173855
  48 C     6.0000    0    12.011    5.716422    0.971319    0.028346
  49 C     6.0000    0    12.011    8.290229    6.768999   -2.107045
  50 C     6.0000    0    12.011    5.415955    3.620715    0.024566
  51 N     7.0000    0    14.007   12.118814    8.118263   -0.179524
  52 H     1.0000    0     1.008  -10.064681   10.763880   -3.016003
  53 H     1.0000    0     1.008    4.297237    9.006435    0.153068
  54 H     1.0000    0     1.008   -3.535678    9.356034    3.424184
  55 H     1.0000    0     1.008   -6.241765   13.201627    3.380720
  56 H     1.0000    0     1.008  -11.429064   14.019878    1.542017
  57 H     1.0000    0     1.008   -8.704079   15.947399    1.007224
  58 H     1.0000    0     1.008  -10.501208   14.804115   -1.611936
  59 H     1.0000    0     1.008   -0.627389    9.981533    0.130391
  60 H     1.0000    0     1.008   -7.521110    6.816242   -3.229542
  61 H     1.0000    0     1.008    0.343930    2.025786    0.009449
  62 H     1.0000    0     1.008   -0.345820   -2.040904   -0.039684
  63 H     1.0000    0     1.008  -11.081354   -9.376821    3.581031
  64 H     1.0000    0     1.008   -9.059347    4.293458    0.262672
  65 H     1.0000    0     1.008   -9.070685   -4.081808   -3.768114
  66 H     1.0000    0     1.008  -12.927616   -6.768999   -3.577252
  67 H     1.0000    0     1.008  -15.926612   -8.571798    1.031790
  68 H     1.0000    0     1.008  -15.034661  -10.085468   -1.853821
  69 H     1.0000    0     1.008  -14.089798  -11.408277    1.103600
  70 H     1.0000    0     1.008   -9.990982   -0.650066    0.188973
  71 H     1.0000    0     1.008   -7.143165   -6.804904    3.679297
  72 H     1.0000    0     1.008    6.778448  -12.978639   -3.482765
  73 H     1.0000    0     1.008   -4.301017   -9.021553   -0.094486
  74 H     1.0000    0     1.008    7.018443   -7.037340    3.639613
  75 H     1.0000    0     1.008    9.622485  -10.950963    3.535678
  76 H     1.0000    0     1.008   11.725751  -13.849803   -0.829590
  77 H     1.0000    0     1.008   10.191293  -14.960962    1.969095
  78 H     1.0000    0     1.008    8.993207  -15.822677   -1.065806
  79 H     1.0000    0     1.008    0.621720   -9.996651   -0.015118
  80 H     1.0000    0     1.008    4.055352   -9.150054   -3.666069
  81 H     1.0000    0     1.008   10.975529    9.422175   -3.696304
  82 H     1.0000    0     1.008    9.048009   -4.310465   -0.349599
  83 H     1.0000    0     1.008    9.184069    3.994881    3.613156
  84 H     1.0000    0     1.008   13.041000    6.672623    3.348595
  85 H     1.0000    0     1.008   13.951848   11.544337    0.672743
  86 H     1.0000    0     1.008   15.900156    8.791006    0.822031
  87 H     1.0000    0     1.008   14.968521   10.034446   -2.173185
  88 H     1.0000    0     1.008    9.983423    0.634948   -0.338261
  89 H     1.0000    0     1.008    7.029781    6.863485   -3.717091

--------------------------------
INTERNAL COORDINATES (ANGSTROEM)
--------------------------------
 C      0   0   0     0.000000000000     0.00000000     0.00000000
 C      1   0   0     6.265993376951     0.00000000     0.00000000
 C      1   2   0     2.413639782569    27.61731249     0.00000000
 C      3   1   2     1.403011404088    87.91095328    77.17097776
 C      4   3   1     1.380285477718   120.18937374     0.16007318
 C      5   4   3     2.447713627041   152.49292169     1.59536893
 C      2   1   3     1.368114030335     8.93106272   317.05658135
 C      7   2   3     1.434084376876   108.05010202     0.84668783
 C      2   1   3     1.434123425651   109.93697090    37.52529412
 C      1   2   3     1.381926553765    44.50309041   315.68896987
 N      1   2   3     1.352087645088    84.62659279   101.68751798
 N      9   2   1     1.376127174356   106.58526707   349.96182725
 N     12   9   2     2.925062050624   168.53581413   171.12065651
 N     13  12   9     2.954513327098    91.55032014    11.12112580
 N     14  13  12     2.925371258490    88.43092389   359.84326247
 C      8   7   2     1.404790019896   127.24786865   181.11170171
 C     13  12   9     1.366535034311    81.72106996   188.00453233
 C     14  13  12     5.758810554272    80.56209567   166.76250791
 C     17  13  12     1.459010623676   111.08861209   183.82872609
 C     18  14  13     2.412235892279    27.27532823    36.33507194
 C     20  18  14     1.402692767501    87.95206320   148.94598259
 C     21  20  18     1.382106725257   120.14573887   359.70382047
 C     18  14  13     2.446510985056   144.15733107    82.80075377
 C     19  17  13     1.353610726908   106.29293361   359.75308708
 C     13  12   9     1.366813447402   172.21332906    33.46711076
 C     18  14  13     1.380960173213    15.08449437   309.23336894
 N     22  21  20     1.352773077792   120.73759875     0.27865223
 C     25  13  17     1.410897586645   125.60330303   182.37774668
 C     14  13  12     1.376642291955    80.24689249   177.85461986
 C     14  13  12     5.764089607215   164.51507311   312.20821879
 C     29  14  13     1.435600919476   106.58649366   178.76395472
 C     30  14  13     2.413316804732    27.10625047    82.12560436
 C     32  30  14     1.403734305344    87.90059683   149.76154742
 C     33  32  30     1.380694028378   120.14881443   359.74174632
 C     34  33  32     2.448777858443   152.49203239     2.45173620
 C     31  29  14     1.368160809262   108.16950133     0.70383075
 C     14  13  12     1.376239804685   169.26375223   353.09862627
 C     30  14  13     1.380907310430    14.68948582   353.70041132
 N     34  33  32     1.352658863128   120.85575621     0.19603406
 C     37  14  29     1.404717053360   126.01551127   180.90772073
 C     15  14  13     1.366491126938    81.61824056   183.09049352
 C      2   1   3     4.249062720177   149.77663713   158.10655289
 C     41  15  14     1.459677704153   111.05201287   175.08990246
 C     42   2   1     2.412953791518    41.78584867   210.49958995
 C     44  42   2     1.403446472082    87.95153797   233.97558675
 C     45  44  42     1.381696421071   120.11137308     0.19721020
 C     42   2   1     2.450019795838   135.97209175   120.81443906
 C     43  41  15     1.354461516618   106.26758155     0.30894352
 C     15  14  13     1.367461151185   171.87382904   332.35056460
 C     42   2   1     1.381886391857    32.59078432   259.35486915
 C      9   2   1     1.404988612053   126.98745415   170.96616478
 N     42   2   1     1.352765315936   113.57249190   148.55102825
 H      1   2   3     1.082502193993   146.22958433   233.55912082
 H      2   1   3     1.079907866440   124.22382539   208.68376090
 H      4   3   1     1.083178194020   121.08711904   179.54485813
 H      5   4   3     1.082405192153   122.86118780   179.45450976
 H      6   5   4     1.092281099351   104.45748635   100.10751853
 H      6   5   4     1.089644437420    84.71273006   209.56858725
 H      6   5   4     1.090594791845   133.89993943   322.44221151
 H      7   2  54     1.079807853278   126.66122480     1.30600390
 H     10   1   2     1.083934499866   118.75110506   221.24542415
 H     12   9   2     1.016297692608   125.29023241   180.00180175
 H     14  13  12     1.014936943854    44.97226959   359.42596618
 H     18  14  13     1.082871645210   128.03556573   234.20482432
 H     19  17  13     1.080893611786   126.41830519   178.11313280
 H     21  20  18     1.083569563987   121.05669627   180.67006309
 H     22  21  20     1.082483256222   122.73097286   180.59748951
 H     23  18  14     1.092105306278   103.92715769   234.93429879
 H     23  18  14     1.088871893291   134.19244188    12.25587044
 H     23  18  14     1.089833473518    84.85857450   125.45241208
 H     24  19  17     1.080075460327   127.28078426   178.44613241
 H     26  18  14     1.083408048706   118.76995697   244.94906660
 H     30  14  13     1.082703098730   127.99711412   279.66882698
 H     31  29  14     1.079759695488   125.22293469   180.92530585
 H     33  32  30     1.083188810873   121.01964473   180.74284758
 H     34  33  32     1.082494341787   122.70821597   180.59516895
 H     35  34  33     1.092652735319   105.73575241    97.19771933
 H     35  34  33     1.089462711615    84.05943581   206.43036958
 H     35  34  33     1.089268102902   133.08365142   318.50306270
 H     36  31  29     1.079439669458   126.61599965   178.98859863
 H     38  30  73     1.083742127999   118.77264435   359.90091293
 H     42   2   1     1.082178358682   119.31790784     5.18255870
 H     43  41  15     1.080281907652   126.36969097   182.06329380
 H     45  44  42     1.083277434455   121.10105945   179.58025624
 H     46  45  44     1.082194529648   122.72144639   179.46906377
 H     47  42   2     1.091546151109   106.65128841   315.16475048
 H     47  42   2     1.088818625851   132.46019523    94.52397119
 H     47  42   2     1.089531091801    83.63838232   206.04504406
 H     48  43  41     1.080402239909   127.23657387   181.62955349
 H     50  42   2     1.083186502870   118.77001737    94.71359229

---------------------------
INTERNAL COORDINATES (A.U.)
---------------------------
 C      0   0   0     0.000000000000     0.00000000     0.00000000
 C      1   0   0    11.841011439403     0.00000000     0.00000000
 C      1   2   0     4.561118174993    27.61731249     0.00000000
 C      3   1   2     2.651307316494    87.91095328    77.17097776
 C      4   3   1     2.608361539516   120.18937374     0.16007318
 C      5   4   3     4.625508409374   152.49292169     1.59536893
 C      2   1   3     2.585360837309     8.93106272   317.05658135
 C      7   2   3     2.710026725231   108.05010202     0.84668783
 C      2   1   3     2.710100516721   109.93697090    37.52529412
 C      1   2   3     2.611462723809    44.50309041   315.68896987
 N      1   2   3     2.555075358275    84.62659279   101.68751798
 N      9   2   1     2.600503484979   106.58526707   349.96182725
 N     12   9   2     5.527566200405   168.53581413   171.12065651
 N     13  12   9     5.583221047236    91.55032014    11.12112580
 N     14  13  12     5.528150518591    88.43092389   359.84326247
 C      8   7   2     2.654668413270   127.24786865   181.11170171
 C     13  12   9     2.582376967257    81.72106996   188.00453233
 C     14  13  12    10.882574804710    80.56209567   166.76250791
 C     17  13  12     2.757130505230   111.08861209   183.82872609
 C     18  14  13     4.558465206823    27.27532823    36.33507194
 C     20  18  14     2.650705180609    87.95206320   148.94598259
 C     21  20  18     2.611803198586   120.14573887   359.70382047
 C     18  14  13     4.623235745386   144.15733107    82.80075377
 C     19  17  13     2.557953565794   106.29293361   359.75308708
 C     13  12   9     2.582903091751   172.21332906    33.46711076
 C     18  14  13     2.609636529225    15.08449437   309.23336894
 N     22  21  20     2.556370638369   120.73759875     0.27865223
 C     25  13  17     2.666210041769   125.60330303   182.37774668
 C     14  13  12     2.601476916169    80.24689249   177.85461986
 C     14  13  12    10.892550769017   164.51507311   312.20821879
 C     29  14  13     2.712892575415   106.58649366   178.76395472
 C     30  14  13     4.560507835333    27.10625047    82.12560436
 C     32  30  14     2.652673401891    87.90059683   149.76154742
 C     33  32  30     2.609133588376   120.14881443   359.74174632
 C     34  33  32     4.627519515267   152.49203239     2.45173620
 C     31  29  14     2.585449236669   108.16950133     0.70383075
 C     14  13  12     2.600716325456   169.26375223   353.09862627
 C     30  14  13     2.609536633043    14.68948582   353.70041132
 N     34  33  32     2.556154803934   120.85575621     0.19603406
 C     37  14  29     2.654530526499   126.01551127   180.90772073
 C     15  14  13     2.582293994346    81.61824056   183.09049352
 C      2   1   3     8.029564866989   149.77663713   158.10655289
 C     41  15  14     2.758391104639   111.05201287   175.08990246
 C     42   2   1     4.559821839776    41.78584867   210.49958995
 C     44  42   2     2.652129475853    87.95153797   233.97558675
 C     45  44  42     2.611027836043   120.11137308     0.19721020
 C     42   2   1     4.629866436820   135.97209175   120.81443906
 C     43  41  15     2.559561325344   106.26758155     0.30894352
 C     15  14  13     2.584127074516   171.87382904   332.35056460
 C     42   2   1     2.611386828803    32.59078432   259.35486915
 C      9   2   1     2.655043698059   126.98745415   170.96616478
 N     42   2   1     2.556355970587   113.57249190   148.55102825
 H      1   2   3     2.045632686016   146.22958433   233.55912082
 H      2   1   3     2.040730117440   124.22382539   208.68376090
 H      4   3   1     2.046910140933   121.08711904   179.54485813
 H      5   4   3     2.045449379104   122.86118780   179.45450976
 H      6   5   4     2.064112139032   104.45748635   100.10751853
 H      6   5   4     2.059129570074    84.71273006   209.56858725
 H      6   5   4     2.060925479668   133.89993943   322.44221151
 H      7   2  54     2.040541119952   126.66122480     1.30600390
 H     10   1   2     2.048339351856   118.75110506   221.24542415
 H     12   9   2     1.920524309565   125.29023241   180.00180175
 H     14  13  12     1.917952867083    44.97226959   359.42596618
 H     18  14  13     2.046330847636   128.03556573   234.20482432
 H     19  17  13     2.042592906181   126.41830519   178.11313280
 H     21  20  18     2.047649722989   121.05669627   180.67006309
 H     22  21  20     2.045596898814   122.73097286   180.59748951
 H     23  18  14     2.063779938267   103.92715769   234.93429879
 H     23  18  14     2.057669673245   134.19244188    12.25587044
 H     23  18  14     2.059486796529    84.85857450   125.45241208
 H     24  19  17     2.041046823986   127.28078426   178.44613241
 H     26  18  14     2.047344503340   118.76995697   244.94906660
 H     30  14  13     2.046012340948   127.99711412   279.66882698
 H     31  29  14     2.040450114918   125.22293469   180.92530585
 H     33  32  30     2.046930203877   121.01964473   180.74284758
 H     34  33  32     2.045617847496   122.70821597   180.59516895
 H     35  34  33     2.064814429233   105.73575241    97.19771933
 H     35  34  33     2.058786158072    84.05943581   206.43036958
 H     35  34  33     2.058418400901   133.08365142   318.50306270
 H     36  31  29     2.039845353366   126.61599965   178.98859863
 H     38  30  73     2.047975821711   118.77264435   359.90091293
 H     42   2   1     2.045020725966   119.31790784     5.18255870
 H     43  41  15     2.041436952892   126.36969097   182.06329380
 H     45  44  42     2.047097678177   121.10105945   179.58025624
 H     46  45  44     2.045051284662   122.72144639   179.46906377
 H     47  42   2     2.062723288131   106.65128841   315.16475048
 H     47  42   2     2.057569012371   132.46019523    94.52397119
 H     47  42   2     2.058915377895    83.63838232   206.04504406
 H     48  43  41     2.041664347903   127.23657387   181.62955349
 H     50  42   2     2.046925842384   118.77001737    94.71359229

---------------------
BASIS SET INFORMATION
---------------------
There are 3 groups of distinct atoms

 Group   1 Type C   : 17s4p1d contracted to 3s2p1d pattern {881/31/1}
 Group   2 Type N   : 17s4p1d contracted to 3s2p1d pattern {881/31/1}
 Group   3 Type H   : 4s1p contracted to 2s1p pattern {31/1}

Atom   0C    basis set group =>   1
Atom   1N    basis set group =>   2
Atom   2C    basis set group =>   1
Atom   3N    basis set group =>   2
Atom   4C    basis set group =>   1
Atom   5N    basis set group =>   2
Atom   6C    basis set group =>   1
Atom   7N    basis set group =>   2
Atom   8C    basis set group =>   1
Atom   9N    basis set group =>   2
Atom  10C    basis set group =>   1
Atom  11N    basis set group =>   2
Atom  12C    basis set group =>   1
Atom  13N    basis set group =>   2
Atom  14C    basis set group =>   1
Atom  15N    basis set group =>   2
Atom  16C    basis set group =>   1
Atom  17C    basis set group =>   1
Atom  18C    basis set group =>   1
Atom  19C    basis set group =>   1
Atom  20C    basis set group =>   1
Atom  21C    basis set group =>   1
Atom  22C    basis set group =>   1
Atom  23C    basis set group =>   1
Atom  24C    basis set group =>   1
Atom  25C    basis set group =>   1
Atom  26C    basis set group =>   1
Atom  27C    basis set group =>   1
Atom  28C    basis set group =>   1
Atom  29C    basis set group =>   1
Atom  30C    basis set group =>   1
Atom  31C    basis set group =>   1
Atom  32C    basis set group =>   1
Atom  33C    basis set group =>   1
Atom  34C    basis set group =>   1
Atom  35C    basis set group =>   1
Atom  36C    basis set group =>   1
Atom  37C    basis set group =>   1
Atom  38C    basis set group =>   1
Atom  39C    basis set group =>   1
Atom  40C    basis set group =>   1
Atom  41C    basis set group =>   1
Atom  42C    basis set group =>   1
Atom  43C    basis set group =>   1
Atom  44C    basis set group =>   1
Atom  45C    basis set group =>   1
Atom  46C    basis set group =>   1
Atom  47C    basis set group =>   1
Atom  48C    basis set group =>   1
Atom  49C    basis set group =>   1
Atom  50C    basis set group =>   1
Atom  51C    basis set group =>   1
Atom  52H    basis set group =>   3
Atom  53H    basis set group =>   3
Atom  54H    basis set group =>   3
Atom  55H    basis set group =>   3
Atom  56H    basis set group =>   3
Atom  57H    basis set group =>   3
Atom  58H    basis set group =>   3
Atom  59H    basis set group =>   3
Atom  60H    basis set group =>   3
Atom  61H    basis set group =>   3
Atom  62H    basis set group =>   3
Atom  63H    basis set group =>   3
Atom  64H    basis set group =>   3
Atom  65H    basis set group =>   3
Atom  66H    basis set group =>   3
Atom  67H    basis set group =>   3
Atom  68H    basis set group =>   3
Atom  69H    basis set group =>   3
Atom  70H    basis set group =>   3
Atom  71H    basis set group =>   3
Atom  72H    basis set group =>   3
Atom  73H    basis set group =>   3
Atom  74H    basis set group =>   3
Atom  75H    basis set group =>   3
Atom  76H    basis set group =>   3
Atom  77H    basis set group =>   3
Atom  78H    basis set group =>   3
Atom  79H    basis set group =>   3
Atom  80H    basis set group =>   3
Atom  81H    basis set group =>   3
Atom  82H    basis set group =>   3
Atom  83H    basis set group =>   3
Atom  84H    basis set group =>   3
Atom  85H    basis set group =>   3
Atom  86H    basis set group =>   3
Atom  87H    basis set group =>   3
Atom  88H    basis set group =>   3
Atom  89H    basis set group =>   3


           ************************************************************
           *        Program running with 16 parallel MPI-processes    *
           *              working on a common directory               *
           ************************************************************
------------------------------------------------------------------------------
                           ORCA GTO INTEGRAL CALCULATION
------------------------------------------------------------------------------
------------------------------------------------------------------------------
                   ___                                                        
                  /   \      - P O W E R E D   B Y -                         
                 /     \                                                     
                 |  |  |   _    _      __       _____    __    __             
                 |  |  |  | |  | |    /  \     |  _  \  |  |  /  |          
                  \  \/   | |  | |   /    \    | | | |  |  | /  /          
                 / \  \   | |__| |  /  /\  \   | |_| |  |  |/  /          
                |  |  |   |  __  | /  /__\  \  |    /   |      \           
                |  |  |   | |  | | |   __   |  |    \   |  |\   \          
                \     /   | |  | | |  |  |  |  | |\  \  |  | \   \       
                 \___/    |_|  |_| |__|  |__|  |_| \__\ |__|  \__/        
                                                                              
                      - O R C A' S   B I G   F R I E N D -                    
                                      &                                       
                       - I N T E G R A L  F E E D E R -                       
                                                                              
 v1 FN, 2020, v2 2021                                                         
------------------------------------------------------------------------------


Reading SHARK input file /scratch/allen/tmpyp4_amber_gaff2/conf1/conf1/Conf128.orca.SHARKINP.tmp ... ok
----------------------
SHARK INTEGRAL PACKAGE
----------------------

Number of atoms                             ...     90
Number of basis functions                   ...   1230
Number of shells                            ...    738
Maximum angular momentum                    ...      2
Integral batch strategy                     ... SHARK/LIBINT Hybrid
RI-J (if used) integral strategy            ... SPLIT-RIJ (Revised 2003 algorithm where possible)
Printlevel                                  ...      1
Contraction scheme used                     ... PARTIAL GENERAL contraction
Coulomb Range Separation                    ... NOT USED
Exchange Range Separation                   ... NOT USED
Finite Nucleus Model                        ... NOT USED
Auxiliary Coulomb fitting basis             ... NOT available
Auxiliary J/K fitting basis                 ... NOT available
Auxiliary Correlation fitting basis         ... NOT available
Auxiliary 'external' fitting basis          ... NOT available
Integral threshold                          ...     2.500000e-11
Primitive cut-off                           ...     2.500000e-12
Primitive pair pre-selection threshold      ...     2.500000e-12

Calculating pre-screening integrals         ... done (  0.1 sec) Dimension = 738
Calculating pre-screening integrals (ORCA)  ... done (  0.3 sec) Dimension = 426
Organizing shell pair data                  ... done (  0.8 sec)
Shell pair information
Total number of shell pairs                 ...    272691
Shell pairs after pre-screening             ...     71609
Total number of primitive shell pairs       ...    422091
Primitive shell pairs kept                  ...     92376
          la=0 lb=0:  29416 shell pairs
          la=1 lb=0:  25970 shell pairs
          la=1 lb=1:   4701 shell pairs
          la=2 lb=0:   7867 shell pairs
          la=2 lb=1:   3124 shell pairs
          la=2 lb=2:    531 shell pairs

Calculating one electron integrals          ... done (  0.3 sec)
Calculating Nuclear repulsion               ... done (  0.0 sec) ENN=   6225.884941224364 Eh

SHARK setup successfully completed in   2.2 seconds

Maximum memory used throughout the entire GTOINT-calculation: 98.9 MB


           ************************************************************
           *        Program running with 16 parallel MPI-processes    *
           *              working on a common directory               *
           ************************************************************
-------------------------------------------------------------------------------
                                 ORCA SCF
-------------------------------------------------------------------------------

------------
SCF SETTINGS
------------
Hamiltonian:
 Ab initio Hamiltonian  Method          .... Hartree-Fock(GTOs)


General Settings:
 Integral files         IntName         .... /scratch/allen/tmpyp4_amber_gaff2/conf1/conf1/Conf128.orca
 Hartree-Fock type      HFTyp           .... RHF
 Total Charge           Charge          ....    0
 Multiplicity           Mult            ....    1
 Number of Electrons    NEL             ....  358
 Basis Dimension        Dim             ....  918
 Nuclear Repulsion      ENuc            ....   6225.8849412244 Eh

Convergence Acceleration:
 DIIS                   CNVDIIS         .... on
   Start iteration      DIISMaxIt       ....    12
   Startup error        DIISStart       ....  0.200000
   # of expansion vecs  DIISMaxEq       ....     5
   Bias factor          DIISBfac        ....   1.050
   Max. coefficient     DIISMaxC        ....  10.000
 Trust-Rad. Augm. Hess. CNVTRAH         .... auto
   Auto Start mean grad. ratio tolernc. ....  1.125000
   Auto Start start iteration           ....    20
   Auto Start num. interpolation iter.  ....    10
   Max. Number of Micro iterations      ....    16
   Max. Number of Macro iterations      .... Maxiter - #DIIS iter
   Number of Davidson start vectors     ....     2
   Converg. threshold I  (grad. norm)   ....   1.000e-05
   Converg. threshold II (energy diff.) ....   1.000e-08
   Grad. Scal. Fac. for Micro threshold ....   0.100
   Minimum threshold for Micro iter.    ....   0.010
   NR start threshold (gradient norm)   ....   0.001
   Initial trust radius                 ....   0.400
   Minimum AH scaling param. (alpha)    ....   1.000
   Maximum AH scaling param. (alpha)    .... 1000.000
   Orbital update algorithm             .... Taylor
   White noise on init. David. guess    .... on
   Maximum white noise                  ....   0.010
   Quad. conv. algorithm                .... NR
 SOSCF                  CNVSOSCF        .... on
   Start iteration      SOSCFMaxIt      ....   150
   Startup grad/error   SOSCFStart      ....  0.003300
 Level Shifting         CNVShift        .... on
   Level shift para.    LevelShift      ....    0.2500
   Turn off err/grad.   ShiftErr        ....    0.0010
 Zerner damping         CNVZerner       .... off
 Static damping         CNVDamp         .... on
   Fraction old density DampFac         ....    0.7000
   Max. Damping (<1)    DampMax         ....    0.9800
   Min. Damping (>=0)   DampMin         ....    0.0000
   Turn off err/grad.   DampErr         ....    0.1000
 Fernandez-Rico         CNVRico         .... off

SCF Procedure:
 Maximum # iterations   MaxIter         ....   125
 SCF integral mode      SCFMode         .... Direct
   Integral package                     .... SHARK and LIBINT hybrid scheme
 Reset frequency        DirectResetFreq ....    20
 Integral Threshold     Thresh          ....  2.500e-11 Eh
 Primitive CutOff       TCut            ....  2.500e-12 Eh

Convergence Tolerance:
 Convergence Check Mode ConvCheckMode   .... Total+1el-Energy
 Convergence forced     ConvForced      .... 1
 Energy Change          TolE            ....  1.000e-08 Eh
 1-El. energy change                    ....  1.000e-05 Eh
 Orbital Gradient       TolG            ....  1.000e-05
 Orbital Rotation angle TolX            ....  1.000e-05
 DIIS Error             TolErr          ....  5.000e-07


Diagonalization of the overlap matrix:
Smallest eigenvalue                        ... 2.251e-04
Time for diagonalization                   ...    0.361 sec
Threshold for overlap eigenvalues          ... 1.000e-08
Number of eigenvalues below threshold      ... 0
Time for construction of square roots      ...    0.250 sec
Total time needed                          ...    0.617 sec

Time for model grid setup =    1.050 sec

------------------------------
INITIAL GUESS: MODEL POTENTIAL
------------------------------
Loading Hartree-Fock densities                     ... done
Calculating cut-offs                               ... done
Initializing the effective Hamiltonian             ... done
Setting up the integral package (SHARK)            ... done
Starting the Coulomb interaction                   ... done (   1.2 sec)
Reading the grid                                   ... done
Mapping shells                                     ... done
Starting the XC term evaluation                    ... done (   0.2 sec)
Transforming the Hamiltonian                       ... done (   0.2 sec)
Diagonalizing the Hamiltonian                      ... done (   0.3 sec)
Back transforming the eigenvectors                 ... done (   0.1 sec)
Now organizing SCF variables                       ... done
                      ------------------
                      INITIAL GUESS DONE (   3.1 sec)
                      ------------------
--------------
SCF ITERATIONS
--------------
ITER       Energy         Delta-E        Max-DP      RMS-DP      [F,P]     Damp
               ***  Starting incremental Fock matrix formation  ***
  0  -2121.6824050581   0.000000000000 0.06891383  0.00120779  0.2328182 0.7000
  1  -2122.3457688436  -0.663363785518 0.05227003  0.00098005  0.1440835 0.7000
                               ***Turning on DIIS***
  2  -2122.7576914267  -0.411922583071 0.11604067  0.00222114  0.0802451 0.0000
  3  -2117.7738770192   4.983814407458 0.03017395  0.00067797  0.0442034 0.0000
  4  -2123.4221410965  -5.648264077297 0.00874576  0.00022729  0.0071426 0.0000
  5  -2123.5976817819  -0.175540685330 0.00509111  0.00013420  0.0049540 0.0000
  6  -2123.5801109393   0.017570842532 0.00338551  0.00008692  0.0019290 0.0000
  7  -2123.6834767270  -0.103365787631 0.00286081  0.00006853  0.0015088 0.0000
  8  -2123.7000972234  -0.016620496419 0.00292564  0.00006431  0.0014022 0.0000
  9  -2123.6653955304   0.034701692937 0.00236118  0.00004402  0.0011059 0.0000
 10  -2123.6783282831  -0.012932752657 0.00488051  0.00008693  0.0008431 0.0000
                      *** Initiating the SOSCF procedure ***
                           *** Shutting down DIIS ***
                      *** Re-Reading the Fockian *** 
                      *** Removing any level shift *** 
ITER      Energy       Delta-E        Grad      Rot      Max-DP    RMS-DP
 11  -2123.56406761   0.1142606725  0.000286  0.000286  0.000286  0.000006
               *** Restarting incremental Fock matrix formation ***
 12  -2123.62818162  -0.0641140093  0.000879  0.005932  0.001092  0.000027
 13  -2123.62824811  -0.0000664920  0.000950  0.024949  0.004986  0.000094
 14  -2123.62833692  -0.0000888106  0.000451  0.002126  0.000513  0.000011
 15  -2123.62834948  -0.0000125578  0.000173  0.002745  0.000707  0.000012
 16  -2123.62835569  -0.0000062126  0.000114  0.004068  0.000766  0.000015
 17  -2123.62835967  -0.0000039768  0.000145  0.003398  0.000505  0.000010
 18  -2123.62836157  -0.0000019049  0.000063  0.001603  0.000211  0.000005
 19  -2123.62836262  -0.0000010486  0.000061  0.000648  0.000162  0.000003
 20  -2123.62836297  -0.0000003485  0.000028  0.000530  0.000134  0.000002
 21  -2123.62836309  -0.0000001218  0.000022  0.000172  0.000054  0.000001
 22  -2123.62836318  -0.0000000828  0.000016  0.000391  0.000087  0.000002
 23  -2123.62836324  -0.0000000598  0.000010  0.000184  0.000052  0.000001
 24  -2123.62836325  -0.0000000174  0.000005  0.000095  0.000026  0.000000
 25  -2123.62836326  -0.0000000062  0.000003  0.000026  0.000015  0.000000
                  ***Gradient check signals convergence***
              ***Rediagonalizing the Fockian in SOSCF/NRSCF***

               *****************************************************
               *                     SUCCESS                       *
               *           SCF CONVERGED AFTER  26 CYCLES          *
               *****************************************************


----------------
TOTAL SCF ENERGY
----------------

Total Energy       :        -2123.62836327 Eh          -57786.86559 eV

Components:
Nuclear Repulsion  :         6225.88494122 Eh          169414.94214 eV
Electronic Energy  :        -8349.51330449 Eh         -227201.80773 eV
One Electron Energy:       -15292.85997638 Eh         -416139.87610 eV
Two Electron Energy:         6943.34667189 Eh          188938.06837 eV

Virial components:
Potential Energy   :        -4245.63609725 Eh         -115529.63162 eV
Kinetic Energy     :         2122.00773398 Eh           57742.76603 eV
Virial Ratio       :            2.00076372


---------------
SCF CONVERGENCE
---------------

  Last Energy change         ...   -5.4770e-09  Tolerance :   1.0000e-08
  Last MAX-Density change    ...    7.8921e-06  Tolerance :   1.0000e-07
  Last RMS-Density change    ...    1.0812e-07  Tolerance :   5.0000e-09
  Last Orbital Gradient      ...    1.6711e-06  Tolerance :   1.0000e-05
  Last Orbital Rotation      ...    1.8329e-05  Tolerance :   1.0000e-05

             **** THE GBW FILE WAS UPDATED (/scratch/allen/tmpyp4_amber_gaff2/conf1/conf1/Conf128.orca.gbw) ****
             **** DENSITY /scratch/allen/tmpyp4_amber_gaff2/conf1/conf1/Conf128.orca.scfp WAS UPDATED ****
             **** ENERGY FILE WAS UPDATED (/scratch/allen/tmpyp4_amber_gaff2/conf1/conf1/Conf128.orca.en.tmp) ****
             **** THE GBW FILE WAS UPDATED (/scratch/allen/tmpyp4_amber_gaff2/conf1/conf1/Conf128.orca.gbw) ****
             **** DENSITY /scratch/allen/tmpyp4_amber_gaff2/conf1/conf1/Conf128.orca.scfp WAS UPDATED ****
----------------
ORBITAL ENERGIES
----------------

  NO   OCC          E(Eh)            E(eV) 
   0   2.0000     -15.649269      -425.8383 
   1   2.0000     -15.639633      -425.5760 
   2   2.0000     -15.628481      -425.2726 
   3   2.0000     -15.612718      -424.8437 
   4   2.0000     -15.520947      -422.3464 
   5   2.0000     -15.515573      -422.2002 
   6   2.0000     -15.446221      -420.3130 
   7   2.0000     -15.443884      -420.2495 
   8   2.0000     -11.308998      -307.7335 
   9   2.0000     -11.304483      -307.6106 
  10   2.0000     -11.302758      -307.5637 
  11   2.0000     -11.301885      -307.5399 
  12   2.0000     -11.295946      -307.3783 
  13   2.0000     -11.295782      -307.3739 
  14   2.0000     -11.293442      -307.3102 
  15   2.0000     -11.286909      -307.1324 
  16   2.0000     -11.286368      -307.1177 
  17   2.0000     -11.284817      -307.0755 
  18   2.0000     -11.274029      -306.7819 
  19   2.0000     -11.273503      -306.7676 
  20   2.0000     -11.253190      -306.2149 
  21   2.0000     -11.243038      -305.9386 
  22   2.0000     -11.241677      -305.9016 
  23   2.0000     -11.240788      -305.8774 
  24   2.0000     -11.234932      -305.7180 
  25   2.0000     -11.234323      -305.7015 
  26   2.0000     -11.232952      -305.6642 
  27   2.0000     -11.226645      -305.4926 
  28   2.0000     -11.226485      -305.4882 
  29   2.0000     -11.220672      -305.3300 
  30   2.0000     -11.215352      -305.1852 
  31   2.0000     -11.214703      -305.1676 
  32   2.0000     -11.203773      -304.8702 
  33   2.0000     -11.203013      -304.8495 
  34   2.0000     -11.192500      -304.5634 
  35   2.0000     -11.192074      -304.5518 
  36   2.0000     -11.177054      -304.1431 
  37   2.0000     -11.174896      -304.0844 
  38   2.0000     -11.174725      -304.0797 
  39   2.0000     -11.173265      -304.0400 
  40   2.0000     -11.167869      -303.8932 
  41   2.0000     -11.167269      -303.8769 
  42   2.0000     -11.166973      -303.8688 
  43   2.0000     -11.164127      -303.7913 
  44   2.0000     -11.163927      -303.7859 
  45   2.0000     -11.162294      -303.7415 
  46   2.0000     -11.151023      -303.4348 
  47   2.0000     -11.148523      -303.3667 
  48   2.0000     -11.147215      -303.3311 
  49   2.0000     -11.144394      -303.2544 
  50   2.0000     -11.139840      -303.1304 
  51   2.0000     -11.136238      -303.0324 
  52   2.0000      -1.334337       -36.3092 
  53   2.0000      -1.326031       -36.0831 
  54   2.0000      -1.316463       -35.8228 
  55   2.0000      -1.303754       -35.4770 
  56   2.0000      -1.220291       -33.2058 
  57   2.0000      -1.211724       -32.9727 
  58   2.0000      -1.163265       -31.6540 
  59   2.0000      -1.156599       -31.4727 
  60   2.0000      -1.121582       -30.5198 
  61   2.0000      -1.113961       -30.3124 
  62   2.0000      -1.105735       -30.0886 
  63   2.0000      -1.095730       -29.8163 
  64   2.0000      -1.057819       -28.7847 
  65   2.0000      -1.049873       -28.5685 
  66   2.0000      -1.041099       -28.3298 
  67   2.0000      -1.029850       -28.0236 
  68   2.0000      -1.028686       -27.9920 
  69   2.0000      -1.011612       -27.5274 
  70   2.0000      -1.009292       -27.4642 
  71   2.0000      -0.995783       -27.0966 
  72   2.0000      -0.984684       -26.7946 
  73   2.0000      -0.974571       -26.5194 
  74   2.0000      -0.971631       -26.4394 
  75   2.0000      -0.958921       -26.0936 
  76   2.0000      -0.952015       -25.9057 
  77   2.0000      -0.944751       -25.7080 
  78   2.0000      -0.939048       -25.5528 
  79   2.0000      -0.922938       -25.1144 
  80   2.0000      -0.894534       -24.3415 
  81   2.0000      -0.883367       -24.0376 
  82   2.0000      -0.876554       -23.8523 
  83   2.0000      -0.868679       -23.6380 
  84   2.0000      -0.862172       -23.4609 
  85   2.0000      -0.856081       -23.2952 
  86   2.0000      -0.848709       -23.0945 
  87   2.0000      -0.841970       -22.9112 
  88   2.0000      -0.821739       -22.3607 
  89   2.0000      -0.798704       -21.7338 
  90   2.0000      -0.797114       -21.6906 
  91   2.0000      -0.740310       -20.1449 
  92   2.0000      -0.732561       -19.9340 
  93   2.0000      -0.730096       -19.8669 
  94   2.0000      -0.721862       -19.6429 
  95   2.0000      -0.719544       -19.5798 
  96   2.0000      -0.712502       -19.3882 
  97   2.0000      -0.706922       -19.2363 
  98   2.0000      -0.699560       -19.0360 
  99   2.0000      -0.694226       -18.8909 
 100   2.0000      -0.687746       -18.7145 
 101   2.0000      -0.681201       -18.5364 
 102   2.0000      -0.679105       -18.4794 
 103   2.0000      -0.673223       -18.3193 
 104   2.0000      -0.669432       -18.2162 
 105   2.0000      -0.664990       -18.0953 
 106   2.0000      -0.664319       -18.0770 
 107   2.0000      -0.659797       -17.9540 
 108   2.0000      -0.658049       -17.9064 
 109   2.0000      -0.657533       -17.8924 
 110   2.0000      -0.651767       -17.7355 
 111   2.0000      -0.649444       -17.6723 
 112   2.0000      -0.645498       -17.5649 
 113   2.0000      -0.639784       -17.4094 
 114   2.0000      -0.634901       -17.2765 
 115   2.0000      -0.623851       -16.9758 
 116   2.0000      -0.622766       -16.9463 
 117   2.0000      -0.616613       -16.7789 
 118   2.0000      -0.611502       -16.6398 
 119   2.0000      -0.610035       -16.5999 
 120   2.0000      -0.608282       -16.5522 
 121   2.0000      -0.603323       -16.4173 
 122   2.0000      -0.597487       -16.2585 
 123   2.0000      -0.592061       -16.1108 
 124   2.0000      -0.591727       -16.1017 
 125   2.0000      -0.585255       -15.9256 
 126   2.0000      -0.578226       -15.7343 
 127   2.0000      -0.574014       -15.6197 
 128   2.0000      -0.568263       -15.4632 
 129   2.0000      -0.559562       -15.2264 
 130   2.0000      -0.553861       -15.0713 
 131   2.0000      -0.546972       -14.8839 
 132   2.0000      -0.541887       -14.7455 
 133   2.0000      -0.536312       -14.5938 
 134   2.0000      -0.533959       -14.5298 
 135   2.0000      -0.528703       -14.3867 
 136   2.0000      -0.525311       -14.2944 
 137   2.0000      -0.522274       -14.2118 
 138   2.0000      -0.520048       -14.1512 
 139   2.0000      -0.517293       -14.0763 
 140   2.0000      -0.509462       -13.8632 
 141   2.0000      -0.506513       -13.7829 
 142   2.0000      -0.505674       -13.7601 
 143   2.0000      -0.501136       -13.6366 
 144   2.0000      -0.500124       -13.6091 
 145   2.0000      -0.498496       -13.5648 
 146   2.0000      -0.494912       -13.4672 
 147   2.0000      -0.491929       -13.3861 
 148   2.0000      -0.489685       -13.3250 
 149   2.0000      -0.469281       -12.7698 
 150   2.0000      -0.461297       -12.5525 
 151   2.0000      -0.452622       -12.3165 
 152   2.0000      -0.448466       -12.2034 
 153   2.0000      -0.446257       -12.1433 
 154   2.0000      -0.445911       -12.1338 
 155   2.0000      -0.439087       -11.9482 
 156   2.0000      -0.435434       -11.8488 
 157   2.0000      -0.431146       -11.7321 
 158   2.0000      -0.393650       -10.7118 
 159   2.0000      -0.383201       -10.4274 
 160   2.0000      -0.379593       -10.3292 
 161   2.0000      -0.371924       -10.1206 
 162   2.0000      -0.367016        -9.9870 
 163   2.0000      -0.360193        -9.8014 
 164   2.0000      -0.352861        -9.6018 
 165   2.0000      -0.342719        -9.3258 
 166   2.0000      -0.337223        -9.1763 
 167   2.0000      -0.333699        -9.0804 
 168   2.0000      -0.329300        -8.9607 
 169   2.0000      -0.300136        -8.1671 
 170   2.0000      -0.298209        -8.1147 
 171   2.0000      -0.288118        -7.8401 
 172   2.0000      -0.286695        -7.8014 
 173   2.0000      -0.256054        -6.9676 
 174   2.0000      -0.247640        -6.7386 
 175   2.0000      -0.188547        -5.1306 
 176   2.0000      -0.178516        -4.8577 
 177   2.0000      -0.068107        -1.8533 
 178   2.0000      -0.055535        -1.5112 
 179   0.0000       0.030253         0.8232 
 180   0.0000       0.069967         1.9039 
 181   0.0000       0.092942         2.5291 
 182   0.0000       0.099535         2.7085 
 183   0.0000       0.127037         3.4568 
 184   0.0000       0.133671         3.6374 
 185   0.0000       0.141862         3.8603 
 186   0.0000       0.152649         4.1538 
 187   0.0000       0.156917         4.2699 
 188   0.0000       0.161747         4.4014 
 189   0.0000       0.162386         4.4187 
 190   0.0000       0.167879         4.5682 
 191   0.0000       0.175343         4.7713 
 192   0.0000       0.196640         5.3508 
 193   0.0000       0.200033         5.4432 
 194   0.0000       0.201834         5.4922 
 195   0.0000       0.205503         5.5920 
 196   0.0000       0.208003         5.6600 
 197   0.0000       0.211052         5.7430 
 198   0.0000       0.215113         5.8535 
 199   0.0000       0.219594         5.9755 
 200   0.0000       0.231425         6.2974 
 201   0.0000       0.236998         6.4491 
 202   0.0000       0.241999         6.5851 
 203   0.0000       0.249101         6.7784 
 204   0.0000       0.249294         6.7836 
 205   0.0000       0.253993         6.9115 
 206   0.0000       0.256207         6.9718 
 207   0.0000       0.259776         7.0689 
 208   0.0000       0.263403         7.1676 
 209   0.0000       0.264501         7.1974 
 210   0.0000       0.267517         7.2795 
 211   0.0000       0.268941         7.3183 
 212   0.0000       0.271521         7.3885 
 213   0.0000       0.275048         7.4844 
 214   0.0000       0.278129         7.5683 
 215   0.0000       0.279788         7.6134 
 216   0.0000       0.281092         7.6489 
 217   0.0000       0.282074         7.6756 
 218   0.0000       0.286762         7.8032 
 219   0.0000       0.287636         7.8270 
 220   0.0000       0.290185         7.8963 
 221   0.0000       0.291763         7.9393 
 222   0.0000       0.293398         7.9838 
 223   0.0000       0.295522         8.0416 
 224   0.0000       0.299033         8.1371 
 225   0.0000       0.301237         8.1971 
 226   0.0000       0.304681         8.2908 
 227   0.0000       0.307050         8.3552 
 228   0.0000       0.307828         8.3764 
 229   0.0000       0.310247         8.4423 
 230   0.0000       0.315021         8.5721 
 231   0.0000       0.319068         8.6823 
 232   0.0000       0.325195         8.8490 
 233   0.0000       0.328535         8.9399 
 234   0.0000       0.332330         9.0431 
 235   0.0000       0.338087         9.1998 
 236   0.0000       0.355595         9.6762 
 237   0.0000       0.385662        10.4944 
 238   0.0000       0.395107        10.7514 
 239   0.0000       0.399956        10.8834 
 240   0.0000       0.405643        11.0381 
 241   0.0000       0.412297        11.2192 
 242   0.0000       0.420726        11.4485 
 243   0.0000       0.423527        11.5248 
 244   0.0000       0.430357        11.7106 
 245   0.0000       0.431446        11.7402 
 246   0.0000       0.433761        11.8032 
 247   0.0000       0.437914        11.9162 
 248   0.0000       0.441243        12.0068 
 249   0.0000       0.444154        12.0860 
 250   0.0000       0.447422        12.1750 
 251   0.0000       0.454795        12.3756 
 252   0.0000       0.456023        12.4090 
 253   0.0000       0.464990        12.6530 
 254   0.0000       0.470255        12.7963 
 255   0.0000       0.475023        12.9260 
 256   0.0000       0.482750        13.1363 
 257   0.0000       0.485892        13.2218 
 258   0.0000       0.493192        13.4204 
 259   0.0000       0.495475        13.4826 
 260   0.0000       0.500537        13.6203 
 261   0.0000       0.502529        13.6745 
 262   0.0000       0.507019        13.7967 
 263   0.0000       0.510086        13.8801 
 264   0.0000       0.511137        13.9088 
 265   0.0000       0.515043        14.0150 
 266   0.0000       0.518116        14.0986 
 267   0.0000       0.522612        14.2210 
 268   0.0000       0.535890        14.5823 
 269   0.0000       0.537953        14.6384 
 270   0.0000       0.541736        14.7414 
 271   0.0000       0.545167        14.8348 
 272   0.0000       0.545949        14.8560 
 273   0.0000       0.553616        15.0647 
 274   0.0000       0.559573        15.2268 
 275   0.0000       0.563633        15.3372 
 276   0.0000       0.574464        15.6320 
 277   0.0000       0.577158        15.7053 
 278   0.0000       0.580150        15.7867 
 279   0.0000       0.584751        15.9119 
 280   0.0000       0.586547        15.9608 
 281   0.0000       0.590706        16.0739 
 282   0.0000       0.593907        16.1610 
 283   0.0000       0.597062        16.2469 
 284   0.0000       0.599849        16.3227 
 285   0.0000       0.600836        16.3496 
 286   0.0000       0.608091        16.5470 
 287   0.0000       0.608572        16.5601 
 288   0.0000       0.611753        16.6466 
 289   0.0000       0.616033        16.7631 
 290   0.0000       0.620148        16.8751 
 291   0.0000       0.627639        17.0789 
 292   0.0000       0.638063        17.3626 
 293   0.0000       0.638240        17.3674 
 294   0.0000       0.644715        17.5436 
 295   0.0000       0.650456        17.6998 
 296   0.0000       0.656613        17.8673 
 297   0.0000       0.659167        17.9368 
 298   0.0000       0.661572        18.0023 
 299   0.0000       0.665134        18.0992 
 300   0.0000       0.670186        18.2367 
 301   0.0000       0.672637        18.3034 
 302   0.0000       0.679081        18.4787 
 303   0.0000       0.681804        18.5528 
 304   0.0000       0.683403        18.5963 
 305   0.0000       0.687137        18.6979 
 306   0.0000       0.690304        18.7841 
 307   0.0000       0.691440        18.8150 
 308   0.0000       0.697148        18.9704 
 309   0.0000       0.699923        19.0459 
 310   0.0000       0.703537        19.1442 
 311   0.0000       0.705386        19.1945 
 312   0.0000       0.706082        19.2135 
 313   0.0000       0.709151        19.2970 
 314   0.0000       0.712433        19.3863 
 315   0.0000       0.714018        19.4294 
 316   0.0000       0.715062        19.4578 
 317   0.0000       0.718152        19.5419 
 318   0.0000       0.719395        19.5757 
 319   0.0000       0.723456        19.6862 
 320   0.0000       0.727348        19.7921 
 321   0.0000       0.730901        19.8888 
 322   0.0000       0.731596        19.9077 
 323   0.0000       0.734606        19.9896 
 324   0.0000       0.737695        20.0737 
 325   0.0000       0.741745        20.1839 
 326   0.0000       0.744045        20.2465 
 327   0.0000       0.745824        20.2949 
 328   0.0000       0.745961        20.2986 
 329   0.0000       0.749766        20.4022 
 330   0.0000       0.752344        20.4723 
 331   0.0000       0.753946        20.5159 
 332   0.0000       0.756817        20.5940 
 333   0.0000       0.763468        20.7750 
 334   0.0000       0.767939        20.8967 
 335   0.0000       0.773540        21.0491 
 336   0.0000       0.774824        21.0840 
 337   0.0000       0.780212        21.2306 
 338   0.0000       0.782461        21.2918 
 339   0.0000       0.788119        21.4458 
 340   0.0000       0.791318        21.5328 
 341   0.0000       0.792707        21.5707 
 342   0.0000       0.794887        21.6300 
 343   0.0000       0.800291        21.7770 
 344   0.0000       0.804347        21.8874 
 345   0.0000       0.807154        21.9638 
 346   0.0000       0.808337        21.9960 
 347   0.0000       0.811092        22.0709 
 348   0.0000       0.814788        22.1715 
 349   0.0000       0.816884        22.2285 
 350   0.0000       0.820346        22.3228 
 351   0.0000       0.824652        22.4399 
 352   0.0000       0.826914        22.5015 
 353   0.0000       0.827638        22.5212 
 354   0.0000       0.831022        22.6133 
 355   0.0000       0.831472        22.6255 
 356   0.0000       0.834616        22.7111 
 357   0.0000       0.834963        22.7205 
 358   0.0000       0.835932        22.7469 
 359   0.0000       0.839039        22.8314 
 360   0.0000       0.840274        22.8650 
 361   0.0000       0.841517        22.8988 
 362   0.0000       0.843637        22.9565 
 363   0.0000       0.844530        22.9808 
 364   0.0000       0.846922        23.0459 
 365   0.0000       0.850102        23.1325 
 366   0.0000       0.850915        23.1546 
 367   0.0000       0.854026        23.2392 
 368   0.0000       0.859446        23.3867 
 369   0.0000       0.861924        23.4541 
 370   0.0000       0.865016        23.5383 
 371   0.0000       0.868296        23.6275 
 372   0.0000       0.872515        23.7423 
 373   0.0000       0.875968        23.8363 
 374   0.0000       0.878982        23.9183 
 375   0.0000       0.883018        24.0281 
 376   0.0000       0.885404        24.0931 
 377   0.0000       0.889929        24.2162 
 378   0.0000       0.893924        24.3249 
 379   0.0000       0.894556        24.3421 
 380   0.0000       0.897423        24.4201 
 381   0.0000       0.899989        24.4899 
 382   0.0000       0.902205        24.5503 
 383   0.0000       0.903949        24.5977 
 384   0.0000       0.905240        24.6328 
 385   0.0000       0.906058        24.6551 
 386   0.0000       0.909365        24.7451 
 387   0.0000       0.911173        24.7943 
 388   0.0000       0.911441        24.8016 
 389   0.0000       0.913596        24.8602 
 390   0.0000       0.919210        25.0130 
 391   0.0000       0.920323        25.0433 
 392   0.0000       0.923022        25.1167 
 393   0.0000       0.924348        25.1528 
 394   0.0000       0.926257        25.2047 
 395   0.0000       0.931028        25.3345 
 396   0.0000       0.933940        25.4138 
 397   0.0000       0.936520        25.4840 
 398   0.0000       0.937008        25.4973 
 399   0.0000       0.942147        25.6371 
 400   0.0000       0.942855        25.6564 
 401   0.0000       0.946107        25.7449 
 402   0.0000       0.950071        25.8528 
 403   0.0000       0.952135        25.9089 
 404   0.0000       0.953970        25.9589 
 405   0.0000       0.958464        26.0811 
 406   0.0000       0.961366        26.1601 
 407   0.0000       0.961699        26.1692 
 408   0.0000       0.965607        26.2755 
 409   0.0000       0.971567        26.4377 
 410   0.0000       0.975604        26.5475 
 411   0.0000       0.976063        26.5600 
 412   0.0000       0.981434        26.7062 
 413   0.0000       0.985029        26.8040 
 414   0.0000       0.988500        26.8984 
 415   0.0000       0.990038        26.9403 
 416   0.0000       0.999458        27.1966 
 417   0.0000       1.001198        27.2440 
 418   0.0000       1.006788        27.3961 
 419   0.0000       1.014712        27.6117 
 420   0.0000       1.023041        27.8384 
 421   0.0000       1.025944        27.9173 
 422   0.0000       1.032349        28.0917 
 423   0.0000       1.039927        28.2979 
 424   0.0000       1.046109        28.4661 
 425   0.0000       1.048682        28.5361 
 426   0.0000       1.055018        28.7085 
 427   0.0000       1.062269        28.9058 
 428   0.0000       1.064713        28.9723 
 429   0.0000       1.071577        29.1591 
 430   0.0000       1.076745        29.2997 
 431   0.0000       1.080815        29.4105 
 432   0.0000       1.085429        29.5360 
 433   0.0000       1.089698        29.6522 
 434   0.0000       1.097702        29.8700 
 435   0.0000       1.102930        30.0122 
 436   0.0000       1.107719        30.1426 
 437   0.0000       1.109420        30.1889 
 438   0.0000       1.115793        30.3623 
 439   0.0000       1.117716        30.4146 
 440   0.0000       1.120756        30.4973 
 441   0.0000       1.124803        30.6074 
 442   0.0000       1.129669        30.7399 
 443   0.0000       1.130956        30.7749 
 444   0.0000       1.133613        30.8472 
 445   0.0000       1.134234        30.8641 
 446   0.0000       1.135101        30.8877 
 447   0.0000       1.140739        31.0411 
 448   0.0000       1.144760        31.1505 
 449   0.0000       1.145982        31.1837 
 450   0.0000       1.151636        31.3376 
 451   0.0000       1.153933        31.4001 
 452   0.0000       1.155017        31.4296 
 453   0.0000       1.155309        31.4376 
 454   0.0000       1.159441        31.5500 
 455   0.0000       1.167695        31.7746 
 456   0.0000       1.173982        31.9457 
 457   0.0000       1.177377        32.0380 
 458   0.0000       1.181600        32.1530 
 459   0.0000       1.185531        32.2600 
 460   0.0000       1.188439        32.3391 
 461   0.0000       1.190163        32.3860 
 462   0.0000       1.200414        32.6649 
 463   0.0000       1.203469        32.7481 
 464   0.0000       1.206844        32.8399 
 465   0.0000       1.208786        32.8927 
 466   0.0000       1.214544        33.0494 
 467   0.0000       1.215485        33.0750 
 468   0.0000       1.221555        33.2402 
 469   0.0000       1.228989        33.4425 
 470   0.0000       1.232324        33.5332 
 471   0.0000       1.234173        33.5836 
 472   0.0000       1.235319        33.6147 
 473   0.0000       1.239116        33.7181 
 474   0.0000       1.242073        33.7985 
 475   0.0000       1.247407        33.9437 
 476   0.0000       1.250924        34.0394 
 477   0.0000       1.253319        34.1045 
 478   0.0000       1.254239        34.1296 
 479   0.0000       1.256104        34.1803 
 480   0.0000       1.260823        34.3087 
 481   0.0000       1.264431        34.4069 
 482   0.0000       1.268490        34.5174 
 483   0.0000       1.270412        34.5697 
 484   0.0000       1.275405        34.7055 
 485   0.0000       1.276361        34.7315 
 486   0.0000       1.281476        34.8707 
 487   0.0000       1.284421        34.9509 
 488   0.0000       1.289297        35.0836 
 489   0.0000       1.291064        35.1316 
 490   0.0000       1.293506        35.1981 
 491   0.0000       1.300601        35.3911 
 492   0.0000       1.302604        35.4457 
 493   0.0000       1.310781        35.6682 
 494   0.0000       1.313244        35.7352 
 495   0.0000       1.314708        35.7750 
 496   0.0000       1.316823        35.8326 
 497   0.0000       1.321058        35.9478 
 498   0.0000       1.325264        36.0623 
 499   0.0000       1.330144        36.1950 
 500   0.0000       1.334182        36.3049 
 501   0.0000       1.337331        36.3906 
 502   0.0000       1.341913        36.5153 
 503   0.0000       1.345851        36.6225 
 504   0.0000       1.350584        36.7513 
 505   0.0000       1.352386        36.8003 
 506   0.0000       1.354196        36.8495 
 507   0.0000       1.355798        36.8932 
 508   0.0000       1.359412        36.9915 
 509   0.0000       1.361712        37.0541 
 510   0.0000       1.364647        37.1339 
 511   0.0000       1.367647        37.2156 
 512   0.0000       1.370622        37.2965 
[...]
      pz      :     0.022005  p :     0.079622
      px      :     0.043380
      py      :     0.014238
 77 H s       :     0.888009  s :     0.888009
      pz      :     0.047714  p :     0.078986
      px      :     0.015014
      py      :     0.016257
 78 H s       :     0.888431  s :     0.888431
      pz      :     0.025745  p :     0.078926
      px      :     0.020532
      py      :     0.032649
 79 H s       :     0.909282  s :     0.909282
      pz      :     0.022028  p :     0.086625
      px      :     0.021743
      py      :     0.042854
 80 H s       :     0.869329  s :     0.869329
      pz      :     0.038994  p :     0.084290
      px      :     0.030017
      py      :     0.015280
 81 H s       :     0.887191  s :     0.887191
      pz      :     0.037768  p :     0.083938
      px      :     0.016159
      py      :     0.030010
 82 H s       :     0.915541  s :     0.915541
      pz      :     0.022095  p :     0.086820
      px      :     0.031421
      py      :     0.033305
 83 H s       :     0.873071  s :     0.873071
      pz      :     0.039238  p :     0.083998
      px      :     0.015264
      py      :     0.029496
 84 H s       :     0.887199  s :     0.887199
      pz      :     0.035771  p :     0.083646
      px      :     0.031710
      py      :     0.016165
 85 H s       :     0.893644  s :     0.893644
      pz      :     0.022493  p :     0.079739
      px      :     0.014090
      py      :     0.043157
 86 H s       :     0.890927  s :     0.890927
      pz      :     0.024722  p :     0.078843
      px      :     0.032984
      py      :     0.021137
 87 H s       :     0.890148  s :     0.890148
      pz      :     0.047975  p :     0.078708
      px      :     0.015602
      py      :     0.015131
 88 H s       :     0.913079  s :     0.913079
      pz      :     0.021979  p :     0.086983
      px      :     0.042611
      py      :     0.022393
 89 H s       :     0.871900  s :     0.871900
      pz      :     0.037927  p :     0.083883
      px      :     0.030490
      py      :     0.015466


                      *****************************
                      * MAYER POPULATION ANALYSIS *
                      *****************************

  NA   - Mulliken gross atomic population
  ZA   - Total nuclear charge
  QA   - Mulliken gross atomic charge
  VA   - Mayer's total valence
  BVA  - Mayer's bonded valence
  FA   - Mayer's free valence

  ATOM       NA         ZA         QA         VA         BVA        FA
  0 C      5.7952     6.0000     0.2048     3.8335     3.8335    -0.0000
  1 N      7.4472     7.0000    -0.4472     3.3505     3.3505    -0.0000
  2 C      6.0645     6.0000    -0.0645     3.9191     3.9191    -0.0000
  3 N      7.3368     7.0000    -0.3368     3.4502     3.4502    -0.0000
  4 C      6.0661     6.0000    -0.0661     3.9839     3.9839    -0.0000
  5 N      7.5614     7.0000    -0.5614     3.0891     3.0891    -0.0000
  6 C      6.0794     6.0000    -0.0794     4.0022     4.0022     0.0000
  7 N      7.3389     7.0000    -0.3389     3.4385     3.4385     0.0000
  8 C      5.7974     6.0000     0.2026     3.8334     3.8334     0.0000
  9 N      7.5629     7.0000    -0.5629     3.0824     3.0824    -0.0000
 10 C      5.8838     6.0000     0.1162     3.9005     3.9005    -0.0000
 11 N      7.4372     7.0000    -0.4372     3.3849     3.3849     0.0000
 12 C      6.0732     6.0000    -0.0732     3.9179     3.9179    -0.0000
 13 N      7.4365     7.0000    -0.4365     3.3947     3.3947    -0.0000
 14 C      5.7649     6.0000     0.2351     3.7870     3.7870     0.0000
 15 N      7.4410     7.0000    -0.4410     3.3707     3.3707    -0.0000
 16 C      5.7675     6.0000     0.2325     3.7861     3.7861     0.0000
 17 C      6.0790     6.0000    -0.0790     4.0021     4.0021     0.0000
 18 C      6.1933     6.0000    -0.1933     3.7611     3.7611    -0.0000
 19 C      5.7764     6.0000     0.2236     3.8727     3.8727     0.0000
 20 C      5.7891     6.0000     0.2109     3.8261     3.8261     0.0000
 21 C      6.0806     6.0000    -0.0806     3.9084     3.9084    -0.0000
 22 C      6.0865     6.0000    -0.0865     3.9828     3.9828     0.0000
 23 C      6.0459     6.0000    -0.0459     3.9907     3.9907     0.0000
 24 C      5.7970     6.0000     0.2030     3.8226     3.8226    -0.0000
 25 C      5.8862     6.0000     0.1138     3.8895     3.8895    -0.0000
 26 C      6.0735     6.0000    -0.0735     3.9040     3.9040    -0.0000
 27 C      5.7816     6.0000     0.2184     3.8767     3.8767    -0.0000
 28 C      6.0550     6.0000    -0.0550     3.9881     3.9881     0.0000
 29 C      6.1831     6.0000    -0.1831     3.7382     3.7382    -0.0000
 30 C      5.7613     6.0000     0.2387     3.7945     3.7945    -0.0000
 31 C      5.7823     6.0000     0.2177     3.8244     3.8244    -0.0000
 32 C      6.0637     6.0000    -0.0637     3.9198     3.9198    -0.0000
 33 C      6.0748     6.0000    -0.0748     3.9811     3.9811    -0.0000
 34 C      6.0496     6.0000    -0.0496     3.9895     3.9895     0.0000
 35 C      5.7889     6.0000     0.2111     3.8224     3.8224    -0.0000
 36 C      5.8877     6.0000     0.1123     3.8862     3.8862     0.0000
 37 C      6.0658     6.0000    -0.0658     3.9176     3.9176    -0.0000
 38 C      5.7641     6.0000     0.2359     3.8005     3.8005    -0.0000
 39 C      6.0609     6.0000    -0.0609     3.9886     3.9886     0.0000
 40 C      6.1861     6.0000    -0.1861     3.7366     3.7366    -0.0000
 41 C      5.7786     6.0000     0.2214     3.8825     3.8825    -0.0000
 42 C      5.7992     6.0000     0.2008     3.8271     3.8271    -0.0000
 43 C      6.0735     6.0000    -0.0735     3.9020     3.9020     0.0000
 44 C      6.0898     6.0000    -0.0898     3.9855     3.9855    -0.0000
 45 C      6.0558     6.0000    -0.0558     3.9925     3.9925    -0.0000
 46 C      5.7945     6.0000     0.2055     3.8268     3.8268     0.0000
 47 C      5.8843     6.0000     0.1157     3.8939     3.8939    -0.0000
 48 C      6.0726     6.0000    -0.0726     3.9056     3.9056     0.0000
 49 C      5.7702     6.0000     0.2298     3.8876     3.8876     0.0000
 50 C      6.0507     6.0000    -0.0507     3.9905     3.9905    -0.0000
 51 C      6.1911     6.0000    -0.1911     3.7371     3.7371    -0.0000
 52 H      0.9514     1.0000     0.0486     0.9855     0.9855     0.0000
 53 H      1.0149     1.0000    -0.0149     0.9988     0.9988    -0.0000
 54 H      0.9535     1.0000     0.0465     1.0081     1.0081     0.0000
 55 H      0.9523     1.0000     0.0477     0.9861     0.9861    -0.0000
 56 H      0.9448     1.0000     0.0552     0.9708     0.9708    -0.0000
 57 H      0.9468     1.0000     0.0532     0.9827     0.9827    -0.0000
 58 H      0.9475     1.0000     0.0525     0.9858     0.9858    -0.0000
 59 H      1.0080     1.0000    -0.0080     1.0008     1.0008    -0.0000
 60 H      0.9558     1.0000     0.0442     1.0111     1.0111    -0.0000
 61 H      0.8280     1.0000     0.1720     1.0422     1.0422    -0.0000
 62 H      0.8261     1.0000     0.1739     1.0435     1.0435     0.0000
 63 H      0.9428     1.0000     0.0572     0.9853     0.9853     0.0000
 64 H      1.0154     1.0000    -0.0154     0.9961     0.9961     0.0000
 65 H      0.9531     1.0000     0.0469     1.0095     1.0095     0.0000
 66 H      0.9424     1.0000     0.0576     0.9851     0.9851     0.0000
 67 H      0.9365     1.0000     0.0635     0.9720     0.9720    -0.0000
 68 H      0.9417     1.0000     0.0583     0.9868     0.9868    -0.0000
 69 H      0.9414     1.0000     0.0586     0.9830     0.9830    -0.0000
 70 H      1.0259     1.0000    -0.0259     0.9934     0.9934     0.0000
 71 H      0.9521     1.0000     0.0479     1.0064     1.0064    -0.0000
 72 H      0.9388     1.0000     0.0612     0.9845     0.9845    -0.0000
 73 H      1.0121     1.0000    -0.0121     0.9993     0.9993    -0.0000
 74 H      0.9489     1.0000     0.0511     1.0101     1.0101    -0.0000
 75 H      0.9398     1.0000     0.0602     0.9851     0.9851    -0.0000
 76 H      0.9339     1.0000     0.0661     0.9718     0.9718     0.0000
 77 H      0.9388     1.0000     0.0612     0.9852     0.9852     0.0000
 78 H      0.9396     1.0000     0.0604     0.9849     0.9849    -0.0000
 79 H      1.0143     1.0000    -0.0143     0.9990     0.9990    -0.0000
 80 H      0.9486     1.0000     0.0514     1.0071     1.0071    -0.0000
 81 H      0.9464     1.0000     0.0536     0.9855     0.9855     0.0000
 82 H      1.0244     1.0000    -0.0244     0.9938     0.9938    -0.0000
 83 H      0.9578     1.0000     0.0422     1.0090     1.0090    -0.0000
 84 H      0.9470     1.0000     0.0530     0.9855     0.9855     0.0000
 85 H      0.9408     1.0000     0.0592     0.9716     0.9716    -0.0000
 86 H      0.9442     1.0000     0.0558     0.9839     0.9839    -0.0000
 87 H      0.9433     1.0000     0.0567     0.9856     0.9856     0.0000
 88 H      1.0196     1.0000    -0.0196     0.9952     0.9952     0.0000
 89 H      0.9544     1.0000     0.0456     1.0068     1.0068    -0.0000

  Mayer bond orders larger than 0.100000
B(  0-C ,  1-N ) :   1.1042 B(  0-C , 17-C ) :   1.6630 B(  0-C , 52-H ) :   0.9691 
B(  1-N ,  8-C ) :   1.0999 B(  1-N , 10-C ) :   0.9690 B(  2-C , 12-C ) :   1.5284 
B(  2-C , 16-C ) :   1.3329 B(  2-C , 53-H ) :   0.9774 B(  3-N , 14-C ) :   1.2090 
B(  3-N , 16-C ) :   1.1940 B(  3-N , 61-H ) :   0.8989 B(  4-C ,  6-C ) :   1.2405 
B(  4-C , 17-C ) :   1.2428 B(  4-C , 18-C ) :   1.3303 B(  5-N , 19-C ) :   1.4324 
B(  5-N , 27-C ) :   1.3955 B(  6-C ,  8-C ) :   1.6654 B(  6-C , 54-H ) :   0.9697 
B(  7-N , 30-C ) :   1.1930 B(  7-N , 38-C ) :   1.1987 B(  7-N , 62-H ) :   0.8977 
B(  8-C , 55-H ) :   0.9701 B(  9-N , 41-C ) :   1.4017 B(  9-N , 49-C ) :   1.4214 
B( 10-C , 56-H ) :   0.9764 B( 10-C , 57-H ) :   0.9827 B( 10-C , 58-H ) :   0.9832 
B( 11-N , 20-C ) :   1.1286 B( 11-N , 24-C ) :   1.1198 B( 11-N , 25-C ) :   0.9578 
B( 12-C , 14-C ) :   1.3354 B( 12-C , 59-H ) :   0.9761 B( 13-N , 31-C ) :   1.1364 
B( 13-N , 35-C ) :   1.1293 B( 13-N , 36-C ) :   0.9539 B( 14-C , 18-C ) :   1.1747 
B( 15-N , 42-C ) :   1.1121 B( 15-N , 46-C ) :   1.1169 B( 15-N , 47-C ) :   0.9624 
B( 16-C , 51-C ) :   1.1913 B( 17-C , 60-H ) :   0.9696 B( 18-C , 19-C ) :   1.1856 
B( 19-C , 21-C ) :   1.2235 B( 20-C , 28-C ) :   1.6226 B( 20-C , 63-H ) :   0.9702 
B( 21-C , 26-C ) :   1.6336 B( 21-C , 64-H ) :   0.9725 B( 22-C , 23-C ) :   1.2875 
B( 22-C , 28-C ) :   1.2733 B( 22-C , 29-C ) :   1.2232 B( 23-C , 24-C ) :   1.6163 
B( 23-C , 65-H ) :   0.9707 B( 24-C , 66-H ) :   0.9692 B( 25-C , 67-H ) :   0.9761 
B( 25-C , 68-H ) :   0.9829 B( 25-C , 69-H ) :   0.9821 B( 26-C , 27-C ) :   1.2187 
B( 26-C , 70-H ) :   0.9726 B( 27-C , 29-C ) :   1.2246 B( 28-C , 71-H ) :   0.9715 
B( 29-C , 30-C ) :   1.2237 B( 30-C , 32-C ) :   1.3001 B( 31-C , 39-C ) :   1.6172 
B( 31-C , 72-H ) :   0.9692 B( 32-C , 37-C ) :   1.5585 B( 32-C , 73-H ) :   0.9780 
B( 33-C , 34-C ) :   1.2862 B( 33-C , 39-C ) :   1.2788 B( 33-C , 40-C ) :   1.2245 
B( 34-C , 35-C ) :   1.6138 B( 34-C , 74-H ) :   0.9702 B( 35-C , 75-H ) :   0.9692 
B( 36-C , 76-H ) :   0.9764 B( 36-C , 77-H ) :   0.9819 B( 36-C , 78-H ) :   0.9829 
B( 37-C , 38-C ) :   1.3025 B( 37-C , 79-H ) :   0.9774 B( 38-C , 40-C ) :   1.2177 
B( 39-C , 80-H ) :   0.9712 B( 40-C , 41-C ) :   1.2281 B( 41-C , 43-C ) :   1.2066 
B( 42-C , 50-C ) :   1.6345 B( 42-C , 81-H ) :   0.9696 B( 43-C , 48-C ) :   1.6448 
B( 43-C , 82-H ) :   0.9731 B( 44-C , 45-C ) :   1.2671 B( 44-C , 50-C ) :   1.2679 
B( 44-C , 51-C ) :   1.2598 B( 45-C , 46-C ) :   1.6345 B( 45-C , 83-H ) :   0.9714 
B( 46-C , 84-H ) :   0.9702 B( 47-C , 85-H ) :   0.9761 B( 47-C , 86-H ) :   0.9829 
B( 47-C , 87-H ) :   0.9826 B( 48-C , 49-C ) :   1.2079 B( 48-C , 88-H ) :   0.9742 
B( 49-C , 51-C ) :   1.2229 B( 50-C , 89-H ) :   0.9712 

-------
TIMINGS
-------

Total SCF time: 0 days 0 hours 28 min 9 sec 

Total time                  ....    1689.638 sec
Sum of individual times     ....    1685.237 sec  ( 99.7%)

Fock matrix formation       ....    1662.644 sec  ( 98.4%)
Diagonalization             ....       7.077 sec  (  0.4%)
Density matrix formation    ....       0.670 sec  (  0.0%)
Population analysis         ....       0.530 sec  (  0.0%)
Initial guess               ....       2.064 sec  (  0.1%)
Orbital Transformation      ....       0.000 sec  (  0.0%)
Orbital Orthonormalization  ....       0.000 sec  (  0.0%)
DIIS solution               ....       3.578 sec  (  0.2%)
SOSCF solution              ....       7.626 sec  (  0.5%)

Maximum memory used throughout the entire SCF-calculation: 302.6 MB


           ************************************************************
           *        Program running with 16 parallel MPI-processes    *
           *              working on a common directory               *
           ************************************************************

------------------------------------------------------------------------------
                                ORCA  MP2 
------------------------------------------------------------------------------

Freezing NCore=104 chemical core electrons

----------
MP2 ENERGY (disk based algorithm)
----------

Dimension of the basis                    ...  918
Memory devoted to MP2                     ... 2000 MB   
Data format for buffers                   ... DOUBLE
Compression type for matrix containers    ... UNCOMPRESSED

-------------------------------
PARTIAL EXCHANGE TRANSFORMATION
-------------------------------

Transformation type                        ... one-operator
Generation of integrals (i,mue|j,nue)      ... ON
Generation of integrals (mue,kappa|nue,tau)... OFF
Generation of integrals (i,mue|a,nue)      ... OFF
Dimension of the basis                     ...  918
Number of internal MOs                     ...  127 (  52- 178)
Pair cutoff                                ... 2.500e-12 Eh
Number of AO pairs in the trafo            ... 421821
Total Number of distinct AO pairs          ... 421821
Memory devoted for trafo                   ... 2000.0 MB 
Max. Number of MO pairs treated together   ...  311      
Number Format for Storage                  ... Double (8 Byte)
Integral package used                      ... LIBINT

Starting integral evaluation:
    ... done with AO integral generation
Closing buffer AOK     (38.19 GB; CompressionRatio= 1.33)
Collecting buffer AOK 
Number of MO pairs included in the trafo   ... 8128
------------------------
SORTING OF (i,mue|j,nue)
------------------------

IBATCH = 1 of  2
IBATCH = 2 of  2
Closing buffer KAO     (51.03 GB; CompressionRatio= 1.00)
Collecting buffer KAO 
N(AO-Batches) Done                         ...  85438113 
N(AO-Batches) Skipped                      ...  82343269 
N(IJ)-pairs Skipped                        ...         0 
TOTAL TIME for half transformation         ...  3051.273 sec
AO-integral generation                     ...   212.875 sec
Half transformation                        ...   379.298 sec
K-integral sorting                         ...  2289.103 sec

Finished integral transformation - now doing MP2 part

OPERATOR COMBINATION   0   0: ij=( 52..178, 52..178)
Process 10:   Internal MO 132
Process 13:   Internal MO 156
Process  1:   Internal MO  60
Process  4:   Internal MO  84
Process  7:   Internal MO 108
Process  0:   Internal MO  54
Process  0:   Internal MO  57
Process  2:   Internal MO  69
Process  1:   Internal MO  63
Process  5:   Internal MO  93
Process  3:   Internal MO  78
Process  8:   Internal MO 117
Process  1:   Internal MO  66
Process  2:   Internal MO  72
Process 11:   Internal MO 141
Process  6:   Internal MO 102
Process  4:   Internal MO  87
Process 14:   Internal MO 165
Process  3:   Internal MO  81
Process  2:   Internal MO  75
Process  9:   Internal MO 126
Process  7:   Internal MO 111
Process  5:   Internal MO  96
Process 12:   Internal MO 150
Process  4:   Internal MO  90
Process 15:   Internal MO 174
Process 10:   Internal MO 135
Process  6:   Internal MO 105
Process  8:   Internal MO 120
Process 13:   Internal MO 159
Process  5:   Internal MO  99
Process  7:   Internal MO 114
Process  9:   Internal MO 129
Process 11:   Internal MO 144
Process  8:   Internal MO 123
Process 14:   Internal MO 168
Process 10:   Internal MO 138
Process 12:   Internal MO 153
Process 15:   Internal MO 177
Process 13:   Internal MO 162
Process 11:   Internal MO 147
Process 14:   Internal MO 171
-----------------------------------------------
 MP2 CORRELATION ENERGY   :     -7.287737782 Eh
-----------------------------------------------


-------
TIMINGS
-------
Total time                : 3590.892 sec
Integral trafo            : 3053.301 sec ( 85.0%)
K(i,j)                    :    6.498 sec (  0.2%)
T(i,j)                    :    0.121 sec (  0.0%)

---------------------------------------
MP2 TOTAL ENERGY:    -2130.916101047 Eh
---------------------------------------

Maximum memory used throughout the entire MP2-calculation: 2275.2 MB

-------------------------   --------------------
FINAL SINGLE POINT ENERGY     -2130.916101046876
-------------------------   --------------------


                            ***************************************
                            *     ORCA property calculations      *
                            ***************************************


  WARNING: The energy has been calculated at the MP2 level but the densities
           used in the property calculations are still SCF densities
           MP2 response densities have not been calculated 
           use %mp2 Density relaxed end
           or  %mp2 Density unrelaxed end

                                    ---------------------
                                    Active property flags
                                    ---------------------
   (+) Dipole Moment


------------------------------------------------------------------------------
                       ORCA ELECTRIC PROPERTIES CALCULATION
------------------------------------------------------------------------------

Dipole Moment Calculation                       ... on
Quadrupole Moment Calculation                   ... off
Polarizability Calculation                      ... off
GBWName                                         ... /scratch/allen/tmpyp4_amber_gaff2/conf1/conf1/Conf128.orca.gbw
Electron density                                ... /scratch/allen/tmpyp4_amber_gaff2/conf1/conf1/Conf128.orca.scfp
The origin for moment calculation is the CENTER OF MASS  = ( 0.003007, -0.002108  0.002931)

-------------
DIPOLE MOMENT
-------------
                                X             Y             Z
Electronic contribution:      0.59386      -2.04014      -0.21279
Nuclear contribution   :      0.00997       0.19169       0.22800
                        -----------------------------------------
Total Dipole Moment    :      0.60384      -1.84845       0.01521
                        -----------------------------------------
Magnitude (a.u.)       :      1.94464
Magnitude (Debye)      :      4.94288



--------------------
Rotational spectrum 
--------------------
 
Rotational constants in cm-1:     0.001499     0.001475     0.000762 
Rotational constants in MHz :    44.925155    44.226866    22.838865 

 Dipole components along the rotational axes: 
x,y,z [a.u.] :     1.171954    -1.551705     0.018725 
x,y,z [Debye]:     2.978871    -3.944120     0.047595 

 

Timings for individual modules:

Sum of individual times         ...     5308.174 sec (=  88.470 min)
GTO integral calculation        ...        3.298 sec (=   0.055 min)   0.1 %
SCF iterations                  ...     1690.723 sec (=  28.179 min)  31.9 %
MP2 module                      ...     3614.153 sec (=  60.236 min)  68.1 %
                             ****ORCA TERMINATED NORMALLY****
TOTAL RUN TIME: 0 days 1 hours 28 minutes 31 seconds 502 msec
# of primitive gaussian functions

