
                                 *****************
                                 * O   R   C   A *
                                 *****************

                                            #,                                       
                                            ###                                      
                                            ####                                     
                                            #####                                    
                                            ######                                   
                                           ########,                                 
                                     ,,################,,,,,                         
                               ,,#################################,,                 
                          ,,##########################################,,             
                       ,#########################################, ''#####,          
                    ,#############################################,,   '####,        
                  ,##################################################,,,,####,       
                ,###########''''           ''''###############################       
              ,#####''   ,,,,##########,,,,          '''####'''          '####       
            ,##' ,,,,###########################,,,                        '##       
           ' ,,###''''                  '''############,,,                           
         ,,##''                                '''############,,,,        ,,,,,,###''
      ,#''                                            '''#######################'''  
     '                                                          ''''####''''         
             ,#######,   #######,   ,#######,      ##                                
            ,#'     '#,  ##    ##  ,#'     '#,    #''#        ######   ,####,        
            ##       ##  ##   ,#'  ##            #'  '#       #        #'  '#        
            ##       ##  #######   ##           ,######,      #####,   #    #        
            '#,     ,#'  ##    ##  '#,     ,#' ,#      #,         ##   #,  ,#        
             '#######'   ##     ##  '#######'  #'      '#     #####' # '####'        



                  #######################################################
                  #                        -***-                        #
                  #          Department of theory and spectroscopy      #
                  #    Directorship and core code : Frank Neese         #
                  #        Max Planck Institute fuer Kohlenforschung    #
                  #                Kaiser Wilhelm Platz 1               #
                  #                 D-45470 Muelheim/Ruhr               #
                  #                      Germany                        #
                  #                                                     #
                  #                  All rights reserved                #
                  #                        -***-                        #
                  #######################################################


                         Program Version 5.0.4 -  RELEASE  -


 With contributions from (in alphabetic order):
   Daniel Aravena         : Magnetic Suceptibility
   Michael Atanasov       : Ab Initio Ligand Field Theory (pilot matlab implementation)
   Alexander A. Auer      : GIAO ZORA, VPT2 properties, NMR spectrum
   Ute Becker             : Parallelization
   Giovanni Bistoni       : ED, misc. LED, open-shell LED, HFLD
   Martin Brehm           : Molecular dynamics
   Dmytro Bykov           : SCF Hessian
   Vijay G. Chilkuri      : MRCI spin determinant printing, contributions to CSF-ICE
   Dipayan Datta          : RHF DLPNO-CCSD density
   Achintya Kumar Dutta   : EOM-CC, STEOM-CC
   Dmitry Ganyushin       : Spin-Orbit,Spin-Spin,Magnetic field MRCI
   Miquel Garcia          : C-PCM and meta-GGA Hessian, CC/C-PCM, Gaussian charge scheme
   Yang Guo               : DLPNO-NEVPT2, F12-NEVPT2, CIM, IAO-localization
   Andreas Hansen         : Spin unrestricted coupled pair/coupled cluster methods
   Benjamin Helmich-Paris : MC-RPA, TRAH-SCF, COSX integrals
   Lee Huntington         : MR-EOM, pCC
   Robert Izsak           : Overlap fitted RIJCOSX, COSX-SCS-MP3, EOM
   Marcus Kettner         : VPT2
   Christian Kollmar      : KDIIS, OOCD, Brueckner-CCSD(T), CCSD density, CASPT2, CASPT2-K
   Simone Kossmann        : Meta GGA functionals, TD-DFT gradient, OOMP2, MP2 Hessian
   Martin Krupicka        : Initial AUTO-CI
   Lucas Lang             : DCDCAS
   Marvin Lechner         : AUTO-CI (C++ implementation), FIC-MRCC
   Dagmar Lenk            : GEPOL surface, SMD
   Dimitrios Liakos       : Extrapolation schemes; Compound Job, initial MDCI parallelization
   Dimitrios Manganas     : Further ROCIS development; embedding schemes
   Dimitrios Pantazis     : SARC Basis sets
   Anastasios Papadopoulos: AUTO-CI, single reference methods and gradients
   Taras Petrenko         : DFT Hessian,TD-DFT gradient, ASA, ECA, R-Raman, ABS, FL, XAS/XES, NRVS
   Peter Pinski           : DLPNO-MP2, DLPNO-MP2 Gradient
   Christoph Reimann      : Effective Core Potentials
   Marius Retegan         : Local ZFS, SOC
   Christoph Riplinger    : Optimizer, TS searches, QM/MM, DLPNO-CCSD(T), (RO)-DLPNO pert. Triples
   Tobias Risthaus        : Range-separated hybrids, TD-DFT gradient, RPA, STAB
   Michael Roemelt        : Original ROCIS implementation
   Masaaki Saitow         : Open-shell DLPNO-CCSD energy and density
   Barbara Sandhoefer     : DKH picture change effects
   Avijit Sen             : IP-ROCIS
   Kantharuban Sivalingam : CASSCF convergence, NEVPT2, FIC-MRCI
   Bernardo de Souza      : ESD, SOC TD-DFT
   Georgi Stoychev        : AutoAux, RI-MP2 NMR, DLPNO-MP2 response
   Willem Van den Heuvel  : Paramagnetic NMR
   Boris Wezisla          : Elementary symmetry handling
   Frank Wennmohs         : Technical directorship


 We gratefully acknowledge several colleagues who have allowed us to
 interface, adapt or use parts of their codes:
   Stefan Grimme, W. Hujo, H. Kruse, P. Pracht,  : VdW corrections, initial TS optimization,
                  C. Bannwarth, S. Ehlert          DFT functionals, gCP, sTDA/sTD-DF
   Ed Valeev, F. Pavosevic, A. Kumar             : LibInt (2-el integral package), F12 methods
   Garnet Chan, S. Sharma, J. Yang, R. Olivares  : DMRG
   Ulf Ekstrom                                   : XCFun DFT Library
   Mihaly Kallay                                 : mrcc  (arbitrary order and MRCC methods)
   Jiri Pittner, Ondrej Demel                    : Mk-CCSD
   Frank Weinhold                                : gennbo (NPA and NBO analysis)
   Christopher J. Cramer and Donald G. Truhlar   : smd solvation model
   Lars Goerigk                                  : TD-DFT with DH, B97 family of functionals
   V. Asgeirsson, H. Jonsson                     : NEB implementation
   FAccTs GmbH                                   : IRC, NEB, NEB-TS, DLPNO-Multilevel, CI-OPT
                                                   MM, QMMM, 2- and 3-layer-ONIOM, Crystal-QMMM,
                                                   LR-CPCM, SF, NACMEs, symmetry and pop. for TD-DFT,
                                                   nearIR, NL-DFT gradient (VV10), updates on ESD,
                                                   ML-optimized integration grids
   S Lehtola, MJT Oliveira, MAL Marques          : LibXC Library
   Liviu Ungur et al                             : ANISO software


 Your calculation uses the libint2 library for the computation of 2-el integrals
 For citations please refer to: http://libint.valeyev.net

 Your ORCA version has been built with support for libXC version: 5.1.0
 For citations please refer to: https://tddft.org/programs/libxc/

 This ORCA versions uses:
   CBLAS   interface :  Fast vector & matrix operations
   LAPACKE interface :  Fast linear algebra routines
   SCALAPACK package :  Parallel linear algebra routines
   Shared memory     :  Shared parallel matrices
   BLAS/LAPACK       :  OpenBLAS 0.3.15  USE64BITINT DYNAMIC_ARCH NO_AFFINITY Sandybridge SINGLE_THREADED
        Core in use  :  Sandybridge
   Copyright (c) 2011-2014, The OpenBLAS Project


================================================================================

----- Orbital basis set information -----
Your calculation utilizes the basis: cc-pVDZ 
       H, B-Ne : Obtained from the ccRepo (grant-hill.group.shef.ac.uk/ccrepo) Feb. 2017
                 T. H. Dunning, Jr., J. Chem. Phys. 90, 1007 (1989)
            He : Obtained from the ccRepo (grant-hill.group.shef.ac.uk/ccrepo) Feb. 2017
                 D. E. Woon, T. H. Dunning, Jr., J. Chem. Phys. 100, 2975 (1994)
  Li-Be, Na-Mg : Obtained from the ccRepo (grant-hill.group.shef.ac.uk/ccrepo) Feb. 2017
                 B. P. Prascher, D. E. Woon, K. A. Peterson, T. H. Dunning, Jr., A. K. Wilson, Theor. Chem. Acc. 128, 69 (2011)
         Al-Ar : Obtained from the ccRepo (grant-hill.group.shef.ac.uk/ccrepo) Feb. 2017
                 D. E. Woon, T. H. Dunning, Jr., J. Chem. Phys. 98, 1358 (1993)
            Ca : Obtained from the Peterson Research Group Website (tyr0.chem.wsu.edu/~kipeters) Feb. 2017
                 J. Koput, K. A. Peterson, J. Phys. Chem. 106, 9595 (2002)
         Sc-Zn : Obtained from the ccRepo (grant-hill.group.shef.ac.uk/ccrepo) Feb. 2017
                 N. B. Balabanov, K. A. Peterson, J. Chem. Phys. 123, 064107 (2005)
                 N. B. Balabanov, K. A. Peterson, J. Chem. Phys. 125, 074110 (2006)
         Ga-Kr : Obtained from the ccRepo (grant-hill.group.shef.ac.uk/ccrepo) Feb. 2017
                 A. K. Wilson, D. E. Woon, K. A. Peterson, T. H. Dunning, Jr., J. Chem. Phys. 110, 7667 (1999)

================================================================================
                                        WARNINGS
                       Please study these warnings very carefully!
================================================================================


WARNING: No MP2 level density has been requested!
         To caclulate MP2 level properties use
         %mp2 Density relaxed end
         or
         %mp2 Density unrelaxed end

WARNING: Post HF methods need fully converged wavefunctions
  ===> : Setting SCFConvForced true
         You can overwrite this default with %scf ConvForced false 


INFO   : the flag for use of the SHARK integral package has been found!

================================================================================
                                       INPUT FILE
================================================================================
NAME = /scratch/allen/tmpyp4_amber_gaff2/2.Mdgx/conf11/conf11/Conf76.orca
|  1> ! PAL2
|  2> ! mp2 cc-pvdz TightSCF  NoKeepInts
|  3> 
|  4> %scf
|  5>   MaxCore 2000
|  6> end
|  7> %mp2
|  8>   MaxCore 2000
|  9> end
| 10> * xyz 0 1
| 11>    C       -3.72700         6.04400        -1.02900
| 12>    C        1.47400         4.04100         0.05700
| 13>    C       -2.80200         4.09300         0.04900
| 14>    C       -3.47300         4.48400         1.21800
| 15>    C       -4.24300         5.63000         1.22500
| 16>    C       -5.22300         7.59400         0.14300
| 17>    C        0.13200         4.30700         0.06100
| 18>    C       -0.56900         3.05600         0.04700
| 19>    C        1.64900         2.61800         0.02300
| 20>    C       -2.94900         4.90400        -1.08700
| 21>    N       -4.35900         6.39300         0.11400
| 22>    N        0.38800         2.06700         0.02500
| 23>    N       -2.01000         0.39500        -0.07500
| 24>    N       -0.38800        -2.07400        -0.02700
| 25>    N        2.01000        -0.40100         0.06500
| 26>    C       -1.96000         2.86100         0.02400
| 27>    C       -2.62300         1.61500        -0.01800
| 28>    C       -5.57300        -4.32900         1.06600
| 29>    C       -4.07300         1.47100         0.05600
| 30>    C       -4.10600        -2.75600        -0.02600
| 31>    C       -4.99500        -2.75700        -1.11100
| 32>    C       -6.13200        -3.54200        -1.07600
| 33>    C       -7.65100        -5.11300         0.04000
| 34>    C       -4.32400         0.14100         0.03700
| 35>    C       -3.02500        -0.52000        -0.04800
| 36>    C       -4.42200        -3.56600         1.07500
| 37>    N       -6.40700        -4.31300         0.00100
| 38>    C       -2.86700        -1.92200        -0.04000
| 39>    C       -1.65000        -2.62400        -0.02700
| 40>    C        3.56800        -6.14200        -1.04000
| 41>    C       -1.47600        -4.04900        -0.03400
| 42>    C        2.80300        -4.09900        -0.00800
| 43>    C        3.65700        -4.38400         1.06900
| 44>    C        4.42700        -5.53000         1.05900
| 45>    C        5.24500        -7.58800         0.01400
| 46>    C       -0.13400        -4.31500        -0.02200
| 47>    C        0.56800        -3.06400        -0.02700
| 48>    C        2.77500        -5.01200        -1.07400
| 49>    N        4.37600        -6.39100         0.01700
| 50>    C        1.95900        -2.86900        -0.00900
| 51>    C        2.62100        -1.62200         0.00900
| 52>    C        5.54300         4.33900        -1.13000
| 53>    C        4.07000        -1.47900        -0.09400
| 54>    C        4.10400         2.75100        -0.02100
| 55>    C        5.02700         2.72900         1.03600
| 56>    C        6.16600         3.50900         0.97800
| 57>    C        7.61900         5.15300        -0.11500
| 58>    C        4.32100        -0.14800        -0.09200
| 59>    C        3.02500         0.51400         0.01500
| 60>    C        4.38700         3.58200        -1.11500
| 61>    C        2.86600         1.91600         0.01300
| 62>    N        6.41300         4.29600        -0.09500
| 63>    H       -3.85800         6.70500        -1.87700
| 64>    H        2.27400         4.76600         0.08100
| 65>    H       -3.40600         3.89500         2.12400
| 66>    H       -4.78600         5.96700         2.09900
| 67>    H       -6.25100         7.29900        -0.08000
| 68>    H       -5.16800         8.04200         1.13500
| 69>    H       -4.86700         8.30100        -0.60600
| 70>    H       -0.33200         5.28200         0.06900
| 71>    H       -2.44500         4.66300        -2.01600
| 72>    H        0.18200         1.07200         0.00500
| 73>    H       -0.18300        -1.08000        -0.02100
| 74>    H       -5.86400        -4.96200         1.89500
| 75>    H       -4.79400         2.27200         0.13900
| 76>    H       -4.80000        -2.16000        -1.99400
| 77>    H       -6.84100        -3.58200        -1.89300
| 78>    H       -8.42800        -4.53600         0.54600
| 79>    H       -7.95600        -5.33700        -0.98100
| 80>    H       -7.45600        -6.03700         0.58400
| 81>    H       -5.28700        -0.34400         0.10000
| 82>    H       -3.78000        -3.60100         1.94700
| 83>    H        3.58700        -6.86800        -1.84300
| 84>    H       -2.27600        -4.77400        -0.05000
| 85>    H        3.71400        -3.72400         1.92600
| 86>    H        5.09200        -5.79500         1.87100
| 87>    H        6.20500        -7.32900        -0.43900
| 88>    H        5.39300        -7.91700         1.04200
| 89>    H        4.75900        -8.37300        -0.56400
| 90>    H        0.32900        -5.29000        -0.00800
| 91>    H        2.14600        -4.84200        -1.94000
| 92>    H        5.80800         4.98600        -1.95600
| 93>    H        4.78800        -2.28100        -0.18500
| 94>    H        4.86000         2.11400         1.91200
| 95>    H        6.90100         3.53100         1.77200
| 96>    H        7.38300         6.10900         0.35600
| 97>    H        8.41400         4.65200         0.43500
| 98>    H        7.92100         5.31000        -1.15000
| 99>    H        5.28300         0.33600        -0.17900
|100>    H        3.72000         3.63200        -1.96700
|101> *
|102> 
|103>                          ****END OF INPUT****
================================================================================

                       ****************************
                       * Single Point Calculation *
                       ****************************

---------------------------------
CARTESIAN COORDINATES (ANGSTROEM)
---------------------------------
  C     -3.727000    6.044000   -1.029000
  C      1.474000    4.041000    0.057000
  C     -2.802000    4.093000    0.049000
  C     -3.473000    4.484000    1.218000
  C     -4.243000    5.630000    1.225000
  C     -5.223000    7.594000    0.143000
  C      0.132000    4.307000    0.061000
  C     -0.569000    3.056000    0.047000
  C      1.649000    2.618000    0.023000
  C     -2.949000    4.904000   -1.087000
  N     -4.359000    6.393000    0.114000
  N      0.388000    2.067000    0.025000
  N     -2.010000    0.395000   -0.075000
  N     -0.388000   -2.074000   -0.027000
  N      2.010000   -0.401000    0.065000
  C     -1.960000    2.861000    0.024000
  C     -2.623000    1.615000   -0.018000
  C     -5.573000   -4.329000    1.066000
  C     -4.073000    1.471000    0.056000
  C     -4.106000   -2.756000   -0.026000
  C     -4.995000   -2.757000   -1.111000
  C     -6.132000   -3.542000   -1.076000
  C     -7.651000   -5.113000    0.040000
  C     -4.324000    0.141000    0.037000
  C     -3.025000   -0.520000   -0.048000
  C     -4.422000   -3.566000    1.075000
  N     -6.407000   -4.313000    0.001000
  C     -2.867000   -1.922000   -0.040000
  C     -1.650000   -2.624000   -0.027000
  C      3.568000   -6.142000   -1.040000
  C     -1.476000   -4.049000   -0.034000
  C      2.803000   -4.099000   -0.008000
  C      3.657000   -4.384000    1.069000
  C      4.427000   -5.530000    1.059000
  C      5.245000   -7.588000    0.014000
  C     -0.134000   -4.315000   -0.022000
  C      0.568000   -3.064000   -0.027000
  C      2.775000   -5.012000   -1.074000
  N      4.376000   -6.391000    0.017000
  C      1.959000   -2.869000   -0.009000
  C      2.621000   -1.622000    0.009000
  C      5.543000    4.339000   -1.130000
  C      4.070000   -1.479000   -0.094000
  C      4.104000    2.751000   -0.021000
  C      5.027000    2.729000    1.036000
  C      6.166000    3.509000    0.978000
  C      7.619000    5.153000   -0.115000
  C      4.321000   -0.148000   -0.092000
  C      3.025000    0.514000    0.015000
  C      4.387000    3.582000   -1.115000
  C      2.866000    1.916000    0.013000
  N      6.413000    4.296000   -0.095000
  H     -3.858000    6.705000   -1.877000
  H      2.274000    4.766000    0.081000
  H     -3.406000    3.895000    2.124000
  H     -4.786000    5.967000    2.099000
  H     -6.251000    7.299000   -0.080000
  H     -5.168000    8.042000    1.135000
  H     -4.867000    8.301000   -0.606000
  H     -0.332000    5.282000    0.069000
  H     -2.445000    4.663000   -2.016000
  H      0.182000    1.072000    0.005000
  H     -0.183000   -1.080000   -0.021000
  H     -5.864000   -4.962000    1.895000
  H     -4.794000    2.272000    0.139000
  H     -4.800000   -2.160000   -1.994000
  H     -6.841000   -3.582000   -1.893000
  H     -8.428000   -4.536000    0.546000
  H     -7.956000   -5.337000   -0.981000
  H     -7.456000   -6.037000    0.584000
  H     -5.287000   -0.344000    0.100000
  H     -3.780000   -3.601000    1.947000
  H      3.587000   -6.868000   -1.843000
  H     -2.276000   -4.774000   -0.050000
  H      3.714000   -3.724000    1.926000
  H      5.092000   -5.795000    1.871000
  H      6.205000   -7.329000   -0.439000
  H      5.393000   -7.917000    1.042000
  H      4.759000   -8.373000   -0.564000
  H      0.329000   -5.290000   -0.008000
  H      2.146000   -4.842000   -1.940000
  H      5.808000    4.986000   -1.956000
  H      4.788000   -2.281000   -0.185000
  H      4.860000    2.114000    1.912000
  H      6.901000    3.531000    1.772000
  H      7.383000    6.109000    0.356000
  H      8.414000    4.652000    0.435000
  H      7.921000    5.310000   -1.150000
  H      5.283000    0.336000   -0.179000
  H      3.720000    3.632000   -1.967000

----------------------------
CARTESIAN COORDINATES (A.U.)
----------------------------
  NO LB      ZA    FRAG     MASS         X           Y           Z
   0 C     6.0000    0    12.011   -7.043009   11.421505   -1.944528
   1 C     6.0000    0    12.011    2.785456    7.636383    0.107714
   2 C     6.0000    0    12.011   -5.295013    7.734649    0.092597
   3 C     6.0000    0    12.011   -6.563019    8.473532    2.301686
   4 C     6.0000    0    12.011   -8.018108   10.639158    2.314915
   5 C     6.0000    0    12.011   -9.870040   14.350580    0.270231
   6 C     6.0000    0    12.011    0.249444    8.139050    0.115273
   7 C     6.0000    0    12.011   -1.075254    5.775003    0.088817
   8 C     6.0000    0    12.011    3.116158    4.947303    0.043464
   9 C     6.0000    0    12.011   -5.572802    9.267217   -2.054132
  10 N     7.0000    0    14.007   -8.237316   12.081019    0.215429
  11 N     7.0000    0    14.007    0.733214    3.906064    0.047243
  12 N     7.0000    0    14.007   -3.798350    0.746442   -0.141729
  13 N     7.0000    0    14.007   -0.733214   -3.919292   -0.051023
  14 N     7.0000    0    14.007    3.798350   -0.757780    0.122832
  15 C     6.0000    0    12.011   -3.703863    5.406506    0.045353
  16 C     6.0000    0    12.011   -4.956752    3.051908   -0.034015
  17 C     6.0000    0    12.011  -10.531444   -8.180624    2.014448
  18 C     6.0000    0    12.011   -7.696855    2.779787    0.105825
  19 C     6.0000    0    12.011   -7.759216   -5.208085   -0.049133
  20 C     6.0000    0    12.011   -9.439182   -5.209975   -2.099486
  21 C     6.0000    0    12.011  -11.587801   -6.693410   -2.033345
  22 C     6.0000    0    12.011  -14.458295   -9.662170    0.075589
  23 C     6.0000    0    12.011   -8.171176    0.266451    0.069920
  24 C     6.0000    0    12.011   -5.716422   -0.982658   -0.090707
  25 C     6.0000    0    12.011   -8.356369   -6.738763    2.031456
  26 N     7.0000    0    14.007  -12.107475   -8.150389    0.001890
  27 C     6.0000    0    12.011   -5.417845   -3.632054   -0.075589
  28 C     6.0000    0    12.011   -3.118048   -4.958641   -0.051023
  29 C     6.0000    0    12.011    6.742543  -11.606698   -1.965315
  30 C     6.0000    0    12.011   -2.789236   -7.651501   -0.064251
  31 C     6.0000    0    12.011    5.296902   -7.745987   -0.015118
  32 C     6.0000    0    12.011    6.910728   -8.284559    2.020117
  33 C     6.0000    0    12.011    8.365818  -10.450186    2.001220
  34 C     6.0000    0    12.011    9.911614  -14.339242    0.026456
  35 C     6.0000    0    12.011   -0.253223   -8.154168   -0.041574
  36 C     6.0000    0    12.011    1.073364   -5.790121   -0.051023
  37 C     6.0000    0    12.011    5.243990   -9.471307   -2.029566
  38 N     7.0000    0    14.007    8.269442  -12.077240    0.032125
  39 C     6.0000    0    12.011    3.701973   -5.421624   -0.017008
  40 C     6.0000    0    12.011    4.952972   -3.065136    0.017008
  41 C     6.0000    0    12.011   10.474752    8.199522   -2.135391
  42 C     6.0000    0    12.011    7.691185   -2.794905   -0.177634
  43 C     6.0000    0    12.011    7.755436    5.198637   -0.039684
  44 C     6.0000    0    12.011    9.499653    5.157063    1.957756
  45 C     6.0000    0    12.011   11.652051    6.631049    1.848152
  46 C     6.0000    0    12.011   14.397823    9.737759   -0.217319
  47 C     6.0000    0    12.011    8.165507   -0.279679   -0.173855
  48 C     6.0000    0    12.011    5.716422    0.971319    0.028346
  49 C     6.0000    0    12.011    8.290229    6.768999   -2.107045
  50 C     6.0000    0    12.011    5.415955    3.620715    0.024566
  51 N     7.0000    0    14.007   12.118814    8.118263   -0.179524
  52 H     1.0000    0     1.008   -7.290563   12.670614   -3.547016
  53 H     1.0000    0     1.008    4.297237    9.006435    0.153068
  54 H     1.0000    0     1.008   -6.436407    7.360483    4.013778
  55 H     1.0000    0     1.008   -9.044229   11.275996    3.966535
  56 H     1.0000    0     1.008  -11.812678   13.793111   -0.151178
  57 H     1.0000    0     1.008   -9.766105   15.197178    2.144839
  58 H     1.0000    0     1.008   -9.197297   15.686617   -1.145174
  59 H     1.0000    0     1.008   -0.627389    9.981533    0.130391
  60 H     1.0000    0     1.008   -4.620380    8.811793   -3.809688
  61 H     1.0000    0     1.008    0.343930    2.025786    0.009449
  62 H     1.0000    0     1.008   -0.345820   -2.040904   -0.039684
  63 H     1.0000    0     1.008  -11.081354   -9.376821    3.581031
  64 H     1.0000    0     1.008   -9.059347    4.293458    0.262672
  65 H     1.0000    0     1.008   -9.070685   -4.081808   -3.768114
  66 H     1.0000    0     1.008  -12.927616   -6.768999   -3.577252
  67 H     1.0000    0     1.008  -15.926612   -8.571798    1.031790
  68 H     1.0000    0     1.008  -15.034661  -10.085468   -1.853821
  69 H     1.0000    0     1.008  -14.089798  -11.408277    1.103600
  70 H     1.0000    0     1.008   -9.990982   -0.650066    0.188973
  71 H     1.0000    0     1.008   -7.143165   -6.804904    3.679297
  72 H     1.0000    0     1.008    6.778448  -12.978639   -3.482765
  73 H     1.0000    0     1.008   -4.301017   -9.021553   -0.094486
  74 H     1.0000    0     1.008    7.018443   -7.037340    3.639613
  75 H     1.0000    0     1.008    9.622485  -10.950963    3.535678
  76 H     1.0000    0     1.008   11.725751  -13.849803   -0.829590
  77 H     1.0000    0     1.008   10.191293  -14.960962    1.969095
  78 H     1.0000    0     1.008    8.993207  -15.822677   -1.065806
  79 H     1.0000    0     1.008    0.621720   -9.996651   -0.015118
  80 H     1.0000    0     1.008    4.055352   -9.150054   -3.666069
  81 H     1.0000    0     1.008   10.975529    9.422175   -3.696304
  82 H     1.0000    0     1.008    9.048009   -4.310465   -0.349599
  83 H     1.0000    0     1.008    9.184069    3.994881    3.613156
  84 H     1.0000    0     1.008   13.041000    6.672623    3.348595
  85 H     1.0000    0     1.008   13.951848   11.544337    0.672743
  86 H     1.0000    0     1.008   15.900156    8.791006    0.822031
  87 H     1.0000    0     1.008   14.968521   10.034446   -2.173185
  88 H     1.0000    0     1.008    9.983423    0.634948   -0.338261
  89 H     1.0000    0     1.008    7.029781    6.863485   -3.717091

--------------------------------
INTERNAL COORDINATES (ANGSTROEM)
--------------------------------
 C      0   0   0     0.000000000000     0.00000000     0.00000000
 C      1   0   0     5.678186858496     0.00000000     0.00000000
 C      1   2   0     2.413319290935    43.80601020     0.00000000
 C      3   1   2     1.403453953644    87.91316303   120.45401295
 C      4   3   1     1.380675559282   120.13946025     0.08408685
 C      5   4   3     2.447124843566   152.53084320     1.75199427
 C      2   1   3     1.368114030335    14.87148491   338.82579063
 C      7   2   3     1.434084376876   108.05010202     0.84668783
 C      2   1   3     1.434123425651   117.21005239    34.33505521
 C      1   2   3     1.381393499333    36.97007691   313.71288972
 N      1   2   3     1.351914938153   110.95040869    67.45798341
 N      9   2   1     1.376127174356   106.58526707   346.36961620
 N     12   9   2     2.925062050624   168.53581413   171.12065651
 N     13  12   9     2.954513327098    91.55032014    11.12112580
 N     14  13  12     2.925371258490    88.43092389   359.84326247
 C      8   7   2     1.404790019896   127.24786865   181.11170171
 C     13  12   9     1.366535034311    81.72106996   188.00453233
 C     14  13  12     5.758810554272    80.56209567   166.76250791
 C     17  13  12     1.459010623676   111.08861209   183.82872609
 C     18  14  13     2.412235892279    27.27532823    36.33507194
 C     20  18  14     1.402692767501    87.95206320   148.94598259
 C     21  20  18     1.382106725257   120.14573887   359.70382047
 C     18  14  13     2.446510985056   144.15733107    82.80075377
 C     19  17  13     1.353610726908   106.29293361   359.75308708
 C     13  12   9     1.366813447402   172.21332906    33.46711076
 C     18  14  13     1.380960173213    15.08449437   309.23336894
 N     22  21  20     1.352773077792   120.73759875     0.27865223
 C     25  13  17     1.410897586645   125.60330303   182.37774668
 C     14  13  12     1.376642291955    80.24689249   177.85461986
 C     14  13  12     5.764089607215   164.51507311   312.20821879
 C     29  14  13     1.435600919476   106.58649366   178.76395472
 C     30  14  13     2.413316804732    27.10625047    82.12560436
 C     32  30  14     1.403734305344    87.90059683   149.76154742
 C     33  32  30     1.380694028378   120.14881443   359.74174632
 C     34  33  32     2.448777858443   152.49203239     2.45173620
 C     31  29  14     1.368160809262   108.16950133     0.70383075
 C     14  13  12     1.376239804685   169.26375223   353.09862627
 C     30  14  13     1.380907310430    14.68948582   353.70041132
 N     34  33  32     1.352658863128   120.85575621     0.19603406
 C     37  14  29     1.404717053360   126.01551127   180.90772073
 C     15  14  13     1.366491126938    81.61824056   183.09049352
 C      2   1   3     4.249062720177   143.03251279   159.95088316
 C     41  15  14     1.459677704153   111.05201287   175.08990246
 C     42   2   1     2.412953791518    41.78584867   202.74383713
 C     44  42   2     1.403446472082    87.95153797   233.97558675
 C     45  44  42     1.381696421071   120.11137308     0.19721020
 C     42   2   1     2.450019795838   135.97209175   113.05868624
 C     43  41  15     1.354461516618   106.26758155     0.30894352
 C     15  14  13     1.367461151185   171.87382904   332.35056460
 C     42   2   1     1.381886391857    32.59078432   251.59911633
 C      9   2   1     1.404988612053   126.98745415   167.37395373
 N     42   2   1     1.352765315936   113.57249190   140.79527543
 H      1   2   3     1.083137110434   118.41092873   206.25027302
 H      2   1   3     1.079907866440   116.48580454   202.90185853
 H      4   3   1     1.082703098730   121.05479650   179.57089428
 H      5   4   3     1.082725265245   122.82893910   179.42670512
 H      6   5   4     1.092491647565   104.49920774    99.99022140
 H      6   5   4     1.089859165214    84.67804323   209.44428135
 H      6   5   4     1.089764194677   133.92772491   322.26026127
 H      7   2  54     1.079807853278   126.66122480     1.30600390
 H     10   1   2     1.084037822218   118.77014633   265.19502174
 H     12   9   2     1.016297692608   125.29023241   180.00180175
 H     14  13  12     1.014936943854    44.97226959   359.42596618
 H     18  14  13     1.082871645210   128.03556573   234.20482432
 H     19  17  13     1.080893611786   126.41830519   178.11313280
 H     21  20  18     1.083569563987   121.05669627   180.67006309
 H     22  21  20     1.082483256222   122.73097286   180.59748951
 H     23  18  14     1.092105306278   103.92715769   234.93429879
 H     23  18  14     1.088871893291   134.19244188    12.25587044
 H     23  18  14     1.089833473518    84.85857450   125.45241208
 H     24  19  17     1.080075460327   127.28078426   178.44613241
 H     26  18  14     1.083408048706   118.76995697   244.94906660
 H     30  14  13     1.082703098730   127.99711412   279.66882698
 H     31  29  14     1.079759695488   125.22293469   180.92530585
 H     33  32  30     1.083188810873   121.01964473   180.74284758
 H     34  33  32     1.082494341787   122.70821597   180.59516895
 H     35  34  33     1.092652735319   105.73575241    97.19771933
 H     35  34  33     1.089462711615    84.05943581   206.43036958
 H     35  34  33     1.089268102902   133.08365142   318.50306270
 H     36  31  29     1.079439669458   126.61599965   178.98859863
 H     38  30  73     1.083742127999   118.77264435   359.90091293
 H     42   2   1     1.082178358682   119.31790784   357.42680588
 H     43  41  15     1.080281907652   126.36969097   182.06329380
 H     45  44  42     1.083277434455   121.10105945   179.58025624
 H     46  45  44     1.082194529648   122.72144639   179.46906377
 H     47  42   2     1.091546151109   106.65128841   315.16475048
 H     47  42   2     1.088818625851   132.46019523    94.52397119
 H     47  42   2     1.089531091801    83.63838232   206.04504406
 H     48  43  41     1.080402239909   127.23657387   181.62955349
 H     50  42   2     1.083186502870   118.77001737    94.71359229

---------------------------
INTERNAL COORDINATES (A.U.)
---------------------------
 C      0   0   0     0.000000000000     0.00000000     0.00000000
 C      1   0   0    10.730218099789     0.00000000     0.00000000
 C      1   2   0     4.560512533577    43.80601020     0.00000000
 C      3   1   2     2.652143613957    87.91316303   120.45401295
 C      4   3   1     2.609098686842   120.13946025     0.08408685
 C      5   4   3     4.624395769855   152.53084320     1.75199427
 C      2   1   3     2.585360837309    14.87148491   338.82579063
 C      7   2   3     2.710026725231   108.05010202     0.84668783
 C      2   1   3     2.710100516721   117.21005239    34.33505521
 C      1   2   3     2.610455396919    36.97007691   313.71288972
 N      1   2   3     2.554748989465   110.95040869    67.45798341
 N      9   2   1     2.600503484979   106.58526707   346.36961620
 N     12   9   2     5.527566200405   168.53581413   171.12065651
 N     13  12   9     5.583221047236    91.55032014    11.12112580
 N     14  13  12     5.528150518591    88.43092389   359.84326247
 C      8   7   2     2.654668413270   127.24786865   181.11170171
 C     13  12   9     2.582376967257    81.72106996   188.00453233
 C     14  13  12    10.882574804710    80.56209567   166.76250791
 C     17  13  12     2.757130505230   111.08861209   183.82872609
 C     18  14  13     4.558465206823    27.27532823    36.33507194
 C     20  18  14     2.650705180609    87.95206320   148.94598259
 C     21  20  18     2.611803198586   120.14573887   359.70382047
 C     18  14  13     4.623235745386   144.15733107    82.80075377
 C     19  17  13     2.557953565794   106.29293361   359.75308708
 C     13  12   9     2.582903091751   172.21332906    33.46711076
 C     18  14  13     2.609636529225    15.08449437   309.23336894
 N     22  21  20     2.556370638369   120.73759875     0.27865223
 C     25  13  17     2.666210041769   125.60330303   182.37774668
 C     14  13  12     2.601476916169    80.24689249   177.85461986
 C     14  13  12    10.892550769017   164.51507311   312.20821879
 C     29  14  13     2.712892575415   106.58649366   178.76395472
 C     30  14  13     4.560507835333    27.10625047    82.12560436
 C     32  30  14     2.652673401891    87.90059683   149.76154742
 C     33  32  30     2.609133588376   120.14881443   359.74174632
 C     34  33  32     4.627519515267   152.49203239     2.45173620
 C     31  29  14     2.585449236669   108.16950133     0.70383075
 C     14  13  12     2.600716325456   169.26375223   353.09862627
 C     30  14  13     2.609536633043    14.68948582   353.70041132
 N     34  33  32     2.556154803934   120.85575621     0.19603406
 C     37  14  29     2.654530526499   126.01551127   180.90772073
 C     15  14  13     2.582293994346    81.61824056   183.09049352
 C      2   1   3     8.029564866989   143.03251279   159.95088316
 C     41  15  14     2.758391104639   111.05201287   175.08990246
 C     42   2   1     4.559821839776    41.78584867   202.74383713
 C     44  42   2     2.652129475853    87.95153797   233.97558675
 C     45  44  42     2.611027836043   120.11137308     0.19721020
 C     42   2   1     4.629866436820   135.97209175   113.05868624
 C     43  41  15     2.559561325344   106.26758155     0.30894352
 C     15  14  13     2.584127074516   171.87382904   332.35056460
 C     42   2   1     2.611386828803    32.59078432   251.59911633
 C      9   2   1     2.655043698059   126.98745415   167.37395373
 N     42   2   1     2.556355970587   113.57249190   140.79527543
 H      1   2   3     2.046832504208   118.41092873   206.25027302
 H      2   1   3     2.040730117440   116.48580454   202.90185853
 H      4   3   1     2.046012340948   121.05479650   179.57089428
 H      5   4   3     2.046054229590   122.82893910   179.42670512
 H      6   5   4     2.064510017495   104.49920774    99.99022140
 H      6   5   4     2.059535346798    84.67804323   209.44428135
 H      6   5   4     2.059355878493   133.92772491   322.26026127
 H      7   2  54     2.040541119952   126.66122480     1.30600390
 H     10   1   2     2.048534602805   118.77014633   265.19502174
 H     12   9   2     1.920524309565   125.29023241   180.00180175
 H     14  13  12     1.917952867083    44.97226959   359.42596618
 H     18  14  13     2.046330847636   128.03556573   234.20482432
 H     19  17  13     2.042592906181   126.41830519   178.11313280
 H     21  20  18     2.047649722989   121.05669627   180.67006309
 H     22  21  20     2.045596898814   122.73097286   180.59748951
 H     23  18  14     2.063779938267   103.92715769   234.93429879
 H     23  18  14     2.057669673245   134.19244188    12.25587044
 H     23  18  14     2.059486796529    84.85857450   125.45241208
 H     24  19  17     2.041046823986   127.28078426   178.44613241
 H     26  18  14     2.047344503340   118.76995697   244.94906660
 H     30  14  13     2.046012340948   127.99711412   279.66882698
 H     31  29  14     2.040450114918   125.22293469   180.92530585
 H     33  32  30     2.046930203877   121.01964473   180.74284758
 H     34  33  32     2.045617847496   122.70821597   180.59516895
 H     35  34  33     2.064814429233   105.73575241    97.19771933
 H     35  34  33     2.058786158072    84.05943581   206.43036958
 H     35  34  33     2.058418400901   133.08365142   318.50306270
 H     36  31  29     2.039845353366   126.61599965   178.98859863
 H     38  30  73     2.047975821711   118.77264435   359.90091293
 H     42   2   1     2.045020725966   119.31790784   357.42680588
 H     43  41  15     2.041436952892   126.36969097   182.06329380
 H     45  44  42     2.047097678177   121.10105945   179.58025624
 H     46  45  44     2.045051284662   122.72144639   179.46906377
 H     47  42   2     2.062723288131   106.65128841   315.16475048
 H     47  42   2     2.057569012371   132.46019523    94.52397119
 H     47  42   2     2.058915377895    83.63838232   206.04504406
 H     48  43  41     2.041664347903   127.23657387   181.62955349
 H     50  42   2     2.046925842384   118.77001737    94.71359229

---------------------
BASIS SET INFORMATION
---------------------
There are 3 groups of distinct atoms

 Group   1 Type C   : 17s4p1d contracted to 3s2p1d pattern {881/31/1}
 Group   2 Type N   : 17s4p1d contracted to 3s2p1d pattern {881/31/1}
 Group   3 Type H   : 4s1p contracted to 2s1p pattern {31/1}

Atom   0C    basis set group =>   1
Atom   1N    basis set group =>   2
Atom   2C    basis set group =>   1
Atom   3N    basis set group =>   2
Atom   4C    basis set group =>   1
Atom   5N    basis set group =>   2
Atom   6C    basis set group =>   1
Atom   7N    basis set group =>   2
Atom   8C    basis set group =>   1
Atom   9N    basis set group =>   2
Atom  10C    basis set group =>   1
Atom  11N    basis set group =>   2
Atom  12C    basis set group =>   1
Atom  13N    basis set group =>   2
Atom  14C    basis set group =>   1
Atom  15N    basis set group =>   2
Atom  16C    basis set group =>   1
Atom  17C    basis set group =>   1
Atom  18C    basis set group =>   1
Atom  19C    basis set group =>   1
Atom  20C    basis set group =>   1
Atom  21C    basis set group =>   1
Atom  22C    basis set group =>   1
Atom  23C    basis set group =>   1
Atom  24C    basis set group =>   1
Atom  25C    basis set group =>   1
Atom  26C    basis set group =>   1
Atom  27C    basis set group =>   1
Atom  28C    basis set group =>   1
Atom  29C    basis set group =>   1
Atom  30C    basis set group =>   1
Atom  31C    basis set group =>   1
Atom  32C    basis set group =>   1
Atom  33C    basis set group =>   1
Atom  34C    basis set group =>   1
Atom  35C    basis set group =>   1
Atom  36C    basis set group =>   1
Atom  37C    basis set group =>   1
Atom  38C    basis set group =>   1
Atom  39C    basis set group =>   1
Atom  40C    basis set group =>   1
Atom  41C    basis set group =>   1
Atom  42C    basis set group =>   1
Atom  43C    basis set group =>   1
Atom  44C    basis set group =>   1
Atom  45C    basis set group =>   1
Atom  46C    basis set group =>   1
Atom  47C    basis set group =>   1
Atom  48C    basis set group =>   1
Atom  49C    basis set group =>   1
Atom  50C    basis set group =>   1
Atom  51C    basis set group =>   1
Atom  52H    basis set group =>   3
Atom  53H    basis set group =>   3
Atom  54H    basis set group =>   3
Atom  55H    basis set group =>   3
Atom  56H    basis set group =>   3
Atom  57H    basis set group =>   3
Atom  58H    basis set group =>   3
Atom  59H    basis set group =>   3
Atom  60H    basis set group =>   3
Atom  61H    basis set group =>   3
Atom  62H    basis set group =>   3
Atom  63H    basis set group =>   3
Atom  64H    basis set group =>   3
Atom  65H    basis set group =>   3
Atom  66H    basis set group =>   3
Atom  67H    basis set group =>   3
Atom  68H    basis set group =>   3
Atom  69H    basis set group =>   3
Atom  70H    basis set group =>   3
Atom  71H    basis set group =>   3
Atom  72H    basis set group =>   3
Atom  73H    basis set group =>   3
Atom  74H    basis set group =>   3
Atom  75H    basis set group =>   3
Atom  76H    basis set group =>   3
Atom  77H    basis set group =>   3
Atom  78H    basis set group =>   3
Atom  79H    basis set group =>   3
Atom  80H    basis set group =>   3
Atom  81H    basis set group =>   3
Atom  82H    basis set group =>   3
Atom  83H    basis set group =>   3
Atom  84H    basis set group =>   3
Atom  85H    basis set group =>   3
Atom  86H    basis set group =>   3
Atom  87H    basis set group =>   3
Atom  88H    basis set group =>   3
Atom  89H    basis set group =>   3


           ************************************************************
           *        Program running with 16 parallel MPI-processes    *
           *              working on a common directory               *
           ************************************************************
------------------------------------------------------------------------------
                           ORCA GTO INTEGRAL CALCULATION
------------------------------------------------------------------------------
------------------------------------------------------------------------------
                   ___                                                        
                  /   \      - P O W E R E D   B Y -                         
                 /     \                                                     
                 |  |  |   _    _      __       _____    __    __             
                 |  |  |  | |  | |    /  \     |  _  \  |  |  /  |          
                  \  \/   | |  | |   /    \    | | | |  |  | /  /          
                 / \  \   | |__| |  /  /\  \   | |_| |  |  |/  /          
                |  |  |   |  __  | /  /__\  \  |    /   |      \           
                |  |  |   | |  | | |   __   |  |    \   |  |\   \          
                \     /   | |  | | |  |  |  |  | |\  \  |  | \   \       
                 \___/    |_|  |_| |__|  |__|  |_| \__\ |__|  \__/        
                                                                              
                      - O R C A' S   B I G   F R I E N D -                    
                                      &                                       
                       - I N T E G R A L  F E E D E R -                       
                                                                              
 v1 FN, 2020, v2 2021                                                         
------------------------------------------------------------------------------


Reading SHARK input file /scratch/allen/tmpyp4_amber_gaff2/conf1/conf1/Conf76.orca.SHARKINP.tmp ... ok
----------------------
SHARK INTEGRAL PACKAGE
----------------------

Number of atoms                             ...     90
Number of basis functions                   ...   1230
Number of shells                            ...    738
Maximum angular momentum                    ...      2
Integral batch strategy                     ... SHARK/LIBINT Hybrid
RI-J (if used) integral strategy            ... SPLIT-RIJ (Revised 2003 algorithm where possible)
Printlevel                                  ...      1
Contraction scheme used                     ... PARTIAL GENERAL contraction
Coulomb Range Separation                    ... NOT USED
Exchange Range Separation                   ... NOT USED
Finite Nucleus Model                        ... NOT USED
Auxiliary Coulomb fitting basis             ... NOT available
Auxiliary J/K fitting basis                 ... NOT available
Auxiliary Correlation fitting basis         ... NOT available
Auxiliary 'external' fitting basis          ... NOT available
Integral threshold                          ...     2.500000e-11
Primitive cut-off                           ...     2.500000e-12
Primitive pair pre-selection threshold      ...     2.500000e-12

Calculating pre-screening integrals         ... done (  0.1 sec) Dimension = 738
Calculating pre-screening integrals (ORCA)  ... done (  0.3 sec) Dimension = 426
Organizing shell pair data                  ... done (  0.8 sec)
Shell pair information
Total number of shell pairs                 ...    272691
Shell pairs after pre-screening             ...     71578
Total number of primitive shell pairs       ...    422091
Primitive shell pairs kept                  ...     92333
          la=0 lb=0:  29402 shell pairs
          la=1 lb=0:  25957 shell pairs
          la=1 lb=1:   4684 shell pairs
          la=2 lb=0:   7881 shell pairs
          la=2 lb=1:   3123 shell pairs
          la=2 lb=2:    531 shell pairs

Calculating one electron integrals          ... done (  0.3 sec)
Calculating Nuclear repulsion               ... done (  0.0 sec) ENN=   6222.752241195840 Eh

SHARK setup successfully completed in   2.2 seconds

Maximum memory used throughout the entire GTOINT-calculation: 99.0 MB


           ************************************************************
           *        Program running with 16 parallel MPI-processes    *
           *              working on a common directory               *
           ************************************************************
-------------------------------------------------------------------------------
                                 ORCA SCF
-------------------------------------------------------------------------------

------------
SCF SETTINGS
------------
Hamiltonian:
 Ab initio Hamiltonian  Method          .... Hartree-Fock(GTOs)


General Settings:
 Integral files         IntName         .... /scratch/allen/tmpyp4_amber_gaff2/conf1/conf1/Conf76.orca
 Hartree-Fock type      HFTyp           .... RHF
 Total Charge           Charge          ....    0
 Multiplicity           Mult            ....    1
 Number of Electrons    NEL             ....  358
 Basis Dimension        Dim             ....  918
 Nuclear Repulsion      ENuc            ....   6222.7522411958 Eh

Convergence Acceleration:
 DIIS                   CNVDIIS         .... on
   Start iteration      DIISMaxIt       ....    12
   Startup error        DIISStart       ....  0.200000
   # of expansion vecs  DIISMaxEq       ....     5
   Bias factor          DIISBfac        ....   1.050
   Max. coefficient     DIISMaxC        ....  10.000
 Trust-Rad. Augm. Hess. CNVTRAH         .... auto
   Auto Start mean grad. ratio tolernc. ....  1.125000
   Auto Start start iteration           ....    20
   Auto Start num. interpolation iter.  ....    10
   Max. Number of Micro iterations      ....    16
   Max. Number of Macro iterations      .... Maxiter - #DIIS iter
   Number of Davidson start vectors     ....     2
   Converg. threshold I  (grad. norm)   ....   1.000e-05
   Converg. threshold II (energy diff.) ....   1.000e-08
   Grad. Scal. Fac. for Micro threshold ....   0.100
   Minimum threshold for Micro iter.    ....   0.010
   NR start threshold (gradient norm)   ....   0.001
   Initial trust radius                 ....   0.400
   Minimum AH scaling param. (alpha)    ....   1.000
   Maximum AH scaling param. (alpha)    .... 1000.000
   Orbital update algorithm             .... Taylor
   White noise on init. David. guess    .... on
   Maximum white noise                  ....   0.010
   Quad. conv. algorithm                .... NR
 SOSCF                  CNVSOSCF        .... on
   Start iteration      SOSCFMaxIt      ....   150
   Startup grad/error   SOSCFStart      ....  0.003300
 Level Shifting         CNVShift        .... on
   Level shift para.    LevelShift      ....    0.2500
   Turn off err/grad.   ShiftErr        ....    0.0010
 Zerner damping         CNVZerner       .... off
 Static damping         CNVDamp         .... on
   Fraction old density DampFac         ....    0.7000
   Max. Damping (<1)    DampMax         ....    0.9800
   Min. Damping (>=0)   DampMin         ....    0.0000
   Turn off err/grad.   DampErr         ....    0.1000
 Fernandez-Rico         CNVRico         .... off

SCF Procedure:
 Maximum # iterations   MaxIter         ....   125
 SCF integral mode      SCFMode         .... Direct
   Integral package                     .... SHARK and LIBINT hybrid scheme
 Reset frequency        DirectResetFreq ....    20
 Integral Threshold     Thresh          ....  2.500e-11 Eh
 Primitive CutOff       TCut            ....  2.500e-12 Eh

Convergence Tolerance:
 Convergence Check Mode ConvCheckMode   .... Total+1el-Energy
 Convergence forced     ConvForced      .... 1
 Energy Change          TolE            ....  1.000e-08 Eh
 1-El. energy change                    ....  1.000e-05 Eh
 Orbital Gradient       TolG            ....  1.000e-05
 Orbital Rotation angle TolX            ....  1.000e-05
 DIIS Error             TolErr          ....  5.000e-07


Diagonalization of the overlap matrix:
Smallest eigenvalue                        ... 2.260e-04
Time for diagonalization                   ...    0.362 sec
Threshold for overlap eigenvalues          ... 1.000e-08
Number of eigenvalues below threshold      ... 0
Time for construction of square roots      ...    0.256 sec
Total time needed                          ...    0.623 sec

Time for model grid setup =    1.050 sec

------------------------------
INITIAL GUESS: MODEL POTENTIAL
------------------------------
Loading Hartree-Fock densities                     ... done
Calculating cut-offs                               ... done
Initializing the effective Hamiltonian             ... done
Setting up the integral package (SHARK)            ... done
Starting the Coulomb interaction                   ... done (   1.2 sec)
Reading the grid                                   ... done
Mapping shells                                     ... done
Starting the XC term evaluation                    ... done (   0.2 sec)
Transforming the Hamiltonian                       ... done (   0.2 sec)
Diagonalizing the Hamiltonian                      ... done (   0.3 sec)
Back transforming the eigenvectors                 ... done (   0.1 sec)
Now organizing SCF variables                       ... done
                      ------------------
                      INITIAL GUESS DONE (   3.1 sec)
                      ------------------
--------------
SCF ITERATIONS
--------------
ITER       Energy         Delta-E        Max-DP      RMS-DP      [F,P]     Damp
               ***  Starting incremental Fock matrix formation  ***
  0  -2121.6479979053   0.000000000000 0.06928759  0.00121277  0.2345671 0.7000
  1  -2122.3167781041  -0.668780198881 0.05264534  0.00098345  0.1450436 0.7000
                               ***Turning on DIIS***
  2  -2122.7326695321  -0.415891427998 0.11712764  0.00222451  0.0805005 0.0000
  3  -2117.7118455216   5.020824010535 0.03420325  0.00068857  0.0443885 0.0000
  4  -2123.4027499963  -5.690904474717 0.00900186  0.00023057  0.0071805 0.0000
  5  -2123.5807444951  -0.177994498810 0.00522186  0.00013846  0.0050729 0.0000
  6  -2123.5622083336   0.018536161480 0.00394067  0.00009315  0.0022472 0.0000
  7  -2123.6687533953  -0.106545061668 0.00345622  0.00007698  0.0017314 0.0000
  8  -2123.6969363354  -0.028182940085 0.00326429  0.00007661  0.0016170 0.0000
  9  -2123.6560944770   0.040841858396 0.00277947  0.00005499  0.0012813 0.0000
 10  -2123.6790129905  -0.022918513472 0.00735938  0.00012595  0.0009679 0.0000
                      *** Initiating the SOSCF procedure ***
                           *** Shutting down DIIS ***
                      *** Re-Reading the Fockian *** 
                      *** Removing any level shift *** 
ITER      Energy       Delta-E        Grad      Rot      Max-DP    RMS-DP
 11  -2123.51108949   0.1679235025  0.000235  0.000235  0.000245  0.000006
               *** Restarting incremental Fock matrix formation ***
 12  -2123.61282811  -0.1017386246  0.001112  0.009619  0.001949  0.000045
 13  -2123.61300552  -0.0001774098  0.001229  0.039892  0.010651  0.000174
 14  -2123.61334442  -0.0003388988  0.000370  0.006405  0.002078  0.000031
 15  -2123.61338958  -0.0000451605  0.000398  0.014517  0.004277  0.000065
 16  -2123.61344195  -0.0000523683  0.000222  0.005750  0.001149  0.000027
 17  -2123.61346098  -0.0000190345  0.000315  0.007293  0.001534  0.000029
 18  -2123.61347839  -0.0000174022  0.000197  0.005378  0.001199  0.000020
 19  -2123.61348592  -0.0000075290  0.000130  0.002639  0.000550  0.000009
 20  -2123.61348831  -0.0000023910  0.000089  0.002159  0.000450  0.000008
 21  -2123.61349012  -0.0000018159  0.000068  0.002231  0.000384  0.000008
 22  -2123.61349135  -0.0000012293  0.000050  0.001502  0.000244  0.000006
 23  -2123.61349192  -0.0000005690  0.000036  0.000960  0.000182  0.000004
 24  -2123.61349220  -0.0000002818  0.000017  0.000409  0.000090  0.000002
 25  -2123.61349231  -0.0000001034  0.000016  0.000320  0.000083  0.000001
 26  -2123.61349236  -0.0000000498  0.000013  0.000444  0.000113  0.000002
 27  -2123.61349240  -0.0000000430  0.000011  0.000382  0.000093  0.000002
 28  -2123.61349242  -0.0000000262  0.000009  0.000291  0.000062  0.000001
 29  -2123.61349244  -0.0000000157  0.000005  0.000111  0.000021  0.000000
 30  -2123.61349244  -0.0000000036  0.000003  0.000044  0.000011  0.000000
                 **** Energy Check signals convergence ****
              ***Rediagonalizing the Fockian in SOSCF/NRSCF***

               *****************************************************
               *                     SUCCESS                       *
               *           SCF CONVERGED AFTER  31 CYCLES          *
               *****************************************************


----------------
TOTAL SCF ENERGY
----------------

Total Energy       :        -2123.61349245 Eh          -57786.46094 eV

Components:
Nuclear Repulsion  :         6222.75224120 Eh          169329.69704 eV
Electronic Energy  :        -8346.36573364 Eh         -227116.15797 eV
One Electron Energy:       -15286.91870940 Eh         -415978.20601 eV
Two Electron Energy:         6940.55297576 Eh          188862.04803 eV

Virial components:
Potential Energy   :        -4245.60377024 Eh         -115528.75196 eV
Kinetic Energy     :         2121.99027779 Eh           57742.29102 eV
Virial Ratio       :            2.00076495


---------------
SCF CONVERGENCE
---------------

  Last Energy change         ...   -2.7740e-09  Tolerance :   1.0000e-08
  Last MAX-Density change    ...    1.4714e-05  Tolerance :   1.0000e-07
  Last RMS-Density change    ...    2.0553e-07  Tolerance :   5.0000e-09
  Last Orbital Gradient      ...    2.3127e-06  Tolerance :   1.0000e-05
  Last Orbital Rotation      ...    3.8264e-05  Tolerance :   1.0000e-05

             **** THE GBW FILE WAS UPDATED (/scratch/allen/tmpyp4_amber_gaff2/conf1/conf1/Conf76.orca.gbw) ****
             **** DENSITY /scratch/allen/tmpyp4_amber_gaff2/conf1/conf1/Conf76.orca.scfp WAS UPDATED ****
             **** ENERGY FILE WAS UPDATED (/scratch/allen/tmpyp4_amber_gaff2/conf1/conf1/Conf76.orca.en.tmp) ****
             **** THE GBW FILE WAS UPDATED (/scratch/allen/tmpyp4_amber_gaff2/conf1/conf1/Conf76.orca.gbw) ****
             **** DENSITY /scratch/allen/tmpyp4_amber_gaff2/conf1/conf1/Conf76.orca.scfp WAS UPDATED ****
----------------
ORBITAL ENERGIES
----------------

  NO   OCC          E(Eh)            E(eV) 
   0   2.0000     -15.685008      -426.8108 
   1   2.0000     -15.634297      -425.4309 
   2   2.0000     -15.623697      -425.1424 
   3   2.0000     -15.595588      -424.3775 
   4   2.0000     -15.519255      -422.3004 
   5   2.0000     -15.508751      -422.0146 
   6   2.0000     -15.448391      -420.3721 
   7   2.0000     -15.432509      -419.9399 
   8   2.0000     -11.331604      -308.3486 
   9   2.0000     -11.330039      -308.3060 
  10   2.0000     -11.329993      -308.3048 
  11   2.0000     -11.299705      -307.4806 
  12   2.0000     -11.293489      -307.3115 
  13   2.0000     -11.292753      -307.2914 
  14   2.0000     -11.287051      -307.1363 
  15   2.0000     -11.284312      -307.0617 
  16   2.0000     -11.283183      -307.0310 
  17   2.0000     -11.277522      -306.8770 
  18   2.0000     -11.275278      -306.8159 
  19   2.0000     -11.265342      -306.5455 
  20   2.0000     -11.264823      -306.5314 
  21   2.0000     -11.259048      -306.3743 
  22   2.0000     -11.256065      -306.2931 
  23   2.0000     -11.237709      -305.7936 
  24   2.0000     -11.230591      -305.5999 
  25   2.0000     -11.229709      -305.5759 
  26   2.0000     -11.227909      -305.5269 
  27   2.0000     -11.222737      -305.3862 
  28   2.0000     -11.222466      -305.3788 
  29   2.0000     -11.204891      -304.9006 
  30   2.0000     -11.204270      -304.8837 
  31   2.0000     -11.202748      -304.8423 
  32   2.0000     -11.201921      -304.8198 
  33   2.0000     -11.200974      -304.7940 
  34   2.0000     -11.186174      -304.3913 
  35   2.0000     -11.185992      -304.3863 
  36   2.0000     -11.185633      -304.3765 
  37   2.0000     -11.185296      -304.3674 
  38   2.0000     -11.184872      -304.3558 
  39   2.0000     -11.168781      -303.9180 
  40   2.0000     -11.166465      -303.8550 
  41   2.0000     -11.163325      -303.7695 
  42   2.0000     -11.160766      -303.6999 
  43   2.0000     -11.159983      -303.6786 
  44   2.0000     -11.154932      -303.5411 
  45   2.0000     -11.153775      -303.5097 
  46   2.0000     -11.153525      -303.5029 
  47   2.0000     -11.148049      -303.3538 
  48   2.0000     -11.145947      -303.2966 
  49   2.0000     -11.139228      -303.1138 
  50   2.0000     -11.125637      -302.7440 
  51   2.0000     -11.121761      -302.6385 
  52   2.0000      -1.363868       -37.1127 
  53   2.0000      -1.321546       -35.9611 
  54   2.0000      -1.312037       -35.7024 
  55   2.0000      -1.288260       -35.0553 
  56   2.0000      -1.220395       -33.2086 
  57   2.0000      -1.205121       -32.7930 
  58   2.0000      -1.170282       -31.8450 
  59   2.0000      -1.144911       -31.1546 
  60   2.0000      -1.143905       -31.1272 
  61   2.0000      -1.109788       -30.1989 
  62   2.0000      -1.101471       -29.9726 
  63   2.0000      -1.084430       -29.5088 
  64   2.0000      -1.080412       -29.3995 
  65   2.0000      -1.045558       -28.4511 
  66   2.0000      -1.040119       -28.3031 
  67   2.0000      -1.036746       -28.2113 
  68   2.0000      -1.014599       -27.6086 
  69   2.0000      -1.013422       -27.5766 
  70   2.0000      -1.005643       -27.3649 
  71   2.0000      -0.988804       -26.9067 
  72   2.0000      -0.985136       -26.8069 
  73   2.0000      -0.978431       -26.6245 
  74   2.0000      -0.967673       -26.3317 
  75   2.0000      -0.959653       -26.1135 
  76   2.0000      -0.951390       -25.8886 
  77   2.0000      -0.944747       -25.7079 
  78   2.0000      -0.926739       -25.2179 
  79   2.0000      -0.918166       -24.9846 
  80   2.0000      -0.911205       -24.7951 
  81   2.0000      -0.888937       -24.1892 
  82   2.0000      -0.875258       -23.8170 
  83   2.0000      -0.870702       -23.6930 
  84   2.0000      -0.863917       -23.5084 
  85   2.0000      -0.851101       -23.1596 
  86   2.0000      -0.841448       -22.8970 
  87   2.0000      -0.831253       -22.6195 
  88   2.0000      -0.822285       -22.3755 
  89   2.0000      -0.795998       -21.6602 
  90   2.0000      -0.791552       -21.5392 
  91   2.0000      -0.754177       -20.5222 
  92   2.0000      -0.734105       -19.9760 
  93   2.0000      -0.727346       -19.7921 
  94   2.0000      -0.721241       -19.6260 
  95   2.0000      -0.717353       -19.5202 
  96   2.0000      -0.715616       -19.4729 
  97   2.0000      -0.707717       -19.2580 
  98   2.0000      -0.699154       -19.0249 
  99   2.0000      -0.695808       -18.9339 
 100   2.0000      -0.693705       -18.8767 
 101   2.0000      -0.686402       -18.6779 
 102   2.0000      -0.683020       -18.5859 
 103   2.0000      -0.676510       -18.4088 
 104   2.0000      -0.672030       -18.2869 
 105   2.0000      -0.669260       -18.2115 
 106   2.0000      -0.666489       -18.1361 
 107   2.0000      -0.655412       -17.8347 
 108   2.0000      -0.653426       -17.7806 
 109   2.0000      -0.650339       -17.6966 
 110   2.0000      -0.648209       -17.6387 
 111   2.0000      -0.646044       -17.5798 
 112   2.0000      -0.645633       -17.5686 
 113   2.0000      -0.639129       -17.3916 
 114   2.0000      -0.634002       -17.2521 
 115   2.0000      -0.626736       -17.0544 
 116   2.0000      -0.622829       -16.9480 
 117   2.0000      -0.615690       -16.7538 
 118   2.0000      -0.613872       -16.7043 
 119   2.0000      -0.612502       -16.6670 
 120   2.0000      -0.609369       -16.5818 
 121   2.0000      -0.604588       -16.4517 
 122   2.0000      -0.594405       -16.1746 
 123   2.0000      -0.588334       -16.0094 
 124   2.0000      -0.583962       -15.8904 
 125   2.0000      -0.581479       -15.8228 
 126   2.0000      -0.576055       -15.6753 
 127   2.0000      -0.573864       -15.6156 
 128   2.0000      -0.572332       -15.5739 
 129   2.0000      -0.558663       -15.2020 
 130   2.0000      -0.554971       -15.1015 
 131   2.0000      -0.548814       -14.9340 
 132   2.0000      -0.545319       -14.8389 
 133   2.0000      -0.538603       -14.6561 
 134   2.0000      -0.534950       -14.5567 
 135   2.0000      -0.531673       -14.4676 
 136   2.0000      -0.520358       -14.1597 
 137   2.0000      -0.517567       -14.0837 
 138   2.0000      -0.513521       -13.9736 
 139   2.0000      -0.513159       -13.9638 
 140   2.0000      -0.510104       -13.8806 
 141   2.0000      -0.507705       -13.8154 
 142   2.0000      -0.502865       -13.6837 
 143   2.0000      -0.500223       -13.6118 
 144   2.0000      -0.496284       -13.5046 
 145   2.0000      -0.493627       -13.4323 
 146   2.0000      -0.493322       -13.4240 
 147   2.0000      -0.482355       -13.1256 
 148   2.0000      -0.480450       -13.0737 
 149   2.0000      -0.464408       -12.6372 
 150   2.0000      -0.463265       -12.6061 
 151   2.0000      -0.456631       -12.4256 
 152   2.0000      -0.449928       -12.2432 
 153   2.0000      -0.441912       -12.0250 
 154   2.0000      -0.438781       -11.9398 
 155   2.0000      -0.437208       -11.8970 
 156   2.0000      -0.425898       -11.5893 
 157   2.0000      -0.419615       -11.4183 
 158   2.0000      -0.403959       -10.9923 
 159   2.0000      -0.389061       -10.5869 
 160   2.0000      -0.382503       -10.4084 
 161   2.0000      -0.372748       -10.1430 
 162   2.0000      -0.359103        -9.7717 
 163   2.0000      -0.356617        -9.7040 
 164   2.0000      -0.349120        -9.5000 
 165   2.0000      -0.339174        -9.2294 
 166   2.0000      -0.337546        -9.1851 
 167   2.0000      -0.330164        -8.9842 
 168   2.0000      -0.318243        -8.6598 
 169   2.0000      -0.299647        -8.1538 
 170   2.0000      -0.298768        -8.1299 
 171   2.0000      -0.285116        -7.7584 
 172   2.0000      -0.280743        -7.6394 
 173   2.0000      -0.262431        -7.1411 
 174   2.0000      -0.236655        -6.4397 
 175   2.0000      -0.184915        -5.0318 
 176   2.0000      -0.174862        -4.7582 
 177   2.0000      -0.062683        -1.7057 
 178   2.0000      -0.051323        -1.3966 
 179   0.0000       0.034061         0.9268 
 180   0.0000       0.061726         1.6796 
 181   0.0000       0.090869         2.4727 
 182   0.0000       0.096820         2.6346 
 183   0.0000       0.106137         2.8881 
 184   0.0000       0.137753         3.7484 
 185   0.0000       0.139677         3.8008 
 186   0.0000       0.145520         3.9598 
 187   0.0000       0.162197         4.4136 
 188   0.0000       0.164724         4.4824 
 189   0.0000       0.166560         4.5323 
 190   0.0000       0.170604         4.6424 
 191   0.0000       0.178947         4.8694 
 192   0.0000       0.182389         4.9630 
 193   0.0000       0.185508         5.0479 
 194   0.0000       0.203835         5.5466 
 195   0.0000       0.209076         5.6892 
 196   0.0000       0.210131         5.7180 
 197   0.0000       0.214773         5.8443 
 198   0.0000       0.215548         5.8654 
 199   0.0000       0.226216         6.1556 
 200   0.0000       0.229333         6.2405 
 201   0.0000       0.232668         6.3312 
 202   0.0000       0.239028         6.5043 
 203   0.0000       0.243430         6.6241 
 204   0.0000       0.245693         6.6856 
 205   0.0000       0.253369         6.8945 
 206   0.0000       0.255879         6.9628 
 207   0.0000       0.258435         7.0324 
 208   0.0000       0.259835         7.0705 
 209   0.0000       0.262572         7.1449 
 210   0.0000       0.264674         7.2022 
 211   0.0000       0.264917         7.2088 
 212   0.0000       0.267454         7.2778 
 213   0.0000       0.272584         7.4174 
 214   0.0000       0.276730         7.5302 
 215   0.0000       0.277918         7.5625 
 216   0.0000       0.279973         7.6184 
 217   0.0000       0.284689         7.7468 
 218   0.0000       0.287384         7.8201 
 219   0.0000       0.288389         7.8475 
 220   0.0000       0.292423         7.9572 
 221   0.0000       0.294760         8.0208 
 222   0.0000       0.296033         8.0555 
 223   0.0000       0.297624         8.0988 
 224   0.0000       0.298049         8.1103 
 225   0.0000       0.302805         8.2397 
 226   0.0000       0.303785         8.2664 
 227   0.0000       0.305263         8.3066 
 228   0.0000       0.311379         8.4731 
 229   0.0000       0.314601         8.5607 
 230   0.0000       0.320696         8.7266 
 231   0.0000       0.323808         8.8113 
 232   0.0000       0.325644         8.8612 
 233   0.0000       0.330823         9.0021 
 234   0.0000       0.335585         9.1317 
 235   0.0000       0.349643         9.5143 
 236   0.0000       0.358513         9.7556 
 237   0.0000       0.370248        10.0750 
 238   0.0000       0.391628        10.6567 
 239   0.0000       0.397108        10.8059 
 240   0.0000       0.402083        10.9412 
 241   0.0000       0.408603        11.1187 
 242   0.0000       0.409264        11.1366 
 243   0.0000       0.417774        11.3682 
 244   0.0000       0.424633        11.5548 
 245   0.0000       0.430721        11.7205 
 246   0.0000       0.435220        11.8429 
 247   0.0000       0.440442        11.9850 
 248   0.0000       0.440746        11.9933 
 249   0.0000       0.446098        12.1389 
 250   0.0000       0.448162        12.1951 
 251   0.0000       0.455608        12.3977 
 252   0.0000       0.459926        12.5152 
 253   0.0000       0.466717        12.7000 
 254   0.0000       0.470185        12.7944 
 255   0.0000       0.476681        12.9711 
 256   0.0000       0.477308        12.9882 
 257   0.0000       0.485200        13.2030 
 258   0.0000       0.487984        13.2787 
 259   0.0000       0.495916        13.4946 
 260   0.0000       0.501337        13.6421 
 261   0.0000       0.503958        13.7134 
 262   0.0000       0.505338        13.7510 
 263   0.0000       0.507607        13.8127 
 264   0.0000       0.513361        13.9693 
 265   0.0000       0.517500        14.0819 
 266   0.0000       0.523199        14.2370 
 267   0.0000       0.526764        14.3340 
 268   0.0000       0.528695        14.3865 
 269   0.0000       0.537580        14.6283 
 270   0.0000       0.542601        14.7649 
 271   0.0000       0.545391        14.8408 
 272   0.0000       0.547452        14.8969 
 273   0.0000       0.556211        15.1353 
 274   0.0000       0.558602        15.2003 
 275   0.0000       0.564628        15.3643 
 276   0.0000       0.566967        15.4279 
 277   0.0000       0.568331        15.4651 
 278   0.0000       0.578565        15.7436 
 279   0.0000       0.581705        15.8290 
 280   0.0000       0.589362        16.0374 
 281   0.0000       0.592374        16.1193 
 282   0.0000       0.594209        16.1692 
 283   0.0000       0.597232        16.2515 
 284   0.0000       0.601117        16.3572 
 285   0.0000       0.602019        16.3818 
 286   0.0000       0.607965        16.5436 
 287   0.0000       0.613058        16.6821 
 288   0.0000       0.616418        16.7736 
 289   0.0000       0.619384        16.8543 
 290   0.0000       0.621640        16.9157 
 291   0.0000       0.626097        17.0370 
 292   0.0000       0.629743        17.1362 
 293   0.0000       0.632954        17.2236 
 294   0.0000       0.644709        17.5434 
 295   0.0000       0.648434        17.6448 
 296   0.0000       0.654963        17.8225 
 297   0.0000       0.659024        17.9329 
 298   0.0000       0.662729        18.0338 
 299   0.0000       0.666277        18.1303 
 300   0.0000       0.669003        18.2045 
 301   0.0000       0.672406        18.2971 
 302   0.0000       0.675381        18.3780 
 303   0.0000       0.677546        18.4370 
 304   0.0000       0.681327        18.5398 
 305   0.0000       0.683490        18.5987 
 306   0.0000       0.686575        18.6827 
 307   0.0000       0.688011        18.7217 
 308   0.0000       0.689901        18.7732 
 309   0.0000       0.695107        18.9148 
 310   0.0000       0.700000        19.0480 
 311   0.0000       0.703748        19.1500 
 312   0.0000       0.708090        19.2681 
 313   0.0000       0.710724        19.3398 
 314   0.0000       0.711619        19.3641 
 315   0.0000       0.714106        19.4318 
 316   0.0000       0.716035        19.4843 
 317   0.0000       0.718814        19.5599 
 318   0.0000       0.721433        19.6312 
 319   0.0000       0.724367        19.7110 
 320   0.0000       0.727915        19.8076 
 321   0.0000       0.728842        19.8328 
 322   0.0000       0.730399        19.8752 
 323   0.0000       0.732098        19.9214 
 324   0.0000       0.737752        20.0752 
 325   0.0000       0.741140        20.1674 
 326   0.0000       0.741989        20.1905 
 327   0.0000       0.743811        20.2401 
 328   0.0000       0.751157        20.4400 
 329   0.0000       0.753035        20.4911 
 330   0.0000       0.756116        20.5750 
 331   0.0000       0.757115        20.6022 
 332   0.0000       0.760219        20.6866 
 333   0.0000       0.763184        20.7673 
 334   0.0000       0.764779        20.8107 
 335   0.0000       0.768451        20.9106 
 336   0.0000       0.775325        21.0977 
 337   0.0000       0.779015        21.1981 
 338   0.0000       0.783664        21.3246 
 339   0.0000       0.787038        21.4164 
 340   0.0000       0.788357        21.4523 
 341   0.0000       0.789984        21.4966 
 342   0.0000       0.792299        21.5596 
 343   0.0000       0.798023        21.7153 
 344   0.0000       0.799045        21.7431 
 345   0.0000       0.806613        21.9490 
 346   0.0000       0.809327        22.0229 
 347   0.0000       0.810797        22.0629 
 348   0.0000       0.813260        22.1299 
 349   0.0000       0.814765        22.1709 
 350   0.0000       0.818312        22.2674 
 351   0.0000       0.819150        22.2902 
 352   0.0000       0.823260        22.4020 
 353   0.0000       0.824535        22.4367 
 354   0.0000       0.826713        22.4960 
 355   0.0000       0.831245        22.6193 
 356   0.0000       0.834303        22.7025 
 357   0.0000       0.835159        22.7258 
 358   0.0000       0.838021        22.8037 
 359   0.0000       0.839939        22.8559 
 360   0.0000       0.842872        22.9357 
 361   0.0000       0.845655        23.0114 
 362   0.0000       0.846701        23.0399 
 363   0.0000       0.848005        23.0754 
 364   0.0000       0.850300        23.1378 
 365   0.0000       0.852771        23.2051 
 366   0.0000       0.854316        23.2471 
 367   0.0000       0.857844        23.3431 
 368   0.0000       0.860896        23.4262 
 369   0.0000       0.865014        23.5382 
 370   0.0000       0.865418        23.5492 
 371   0.0000       0.868797        23.6412 
 372   0.0000       0.871358        23.7108 
 373   0.0000       0.872570        23.7438 
 374   0.0000       0.876786        23.8586 
 375   0.0000       0.878323        23.9004 
 376   0.0000       0.881632        23.9904 
 377   0.0000       0.885545        24.0969 
 378   0.0000       0.888829        24.1863 
 379   0.0000       0.891597        24.2616 
 380   0.0000       0.892840        24.2954 
 381   0.0000       0.894817        24.3492 
 382   0.0000       0.899970        24.4894 
 383   0.0000       0.904212        24.6049 
 384   0.0000       0.904993        24.6261 
 385   0.0000       0.906256        24.6605 
 386   0.0000       0.907759        24.7014 
 387   0.0000       0.912865        24.8403 
 388   0.0000       0.915178        24.9033 
 389   0.0000       0.917753        24.9733 
 390   0.0000       0.922161        25.0933 
 391   0.0000       0.922513        25.1028 
 392   0.0000       0.925039        25.1716 
 393   0.0000       0.928253        25.2591 
 394   0.0000       0.928721        25.2718 
 395   0.0000       0.932453        25.3733 
 396   0.0000       0.933595        25.4044 
 397   0.0000       0.935520        25.4568 
 398   0.0000       0.939548        25.5664 
 399   0.0000       0.942179        25.6380 
 400   0.0000       0.946548        25.7569 
 401   0.0000       0.949671        25.8419 
 402   0.0000       0.953245        25.9391 
 403   0.0000       0.955622        26.0038 
 404   0.0000       0.956760        26.0348 
 405   0.0000       0.957923        26.0664 
 406   0.0000       0.961177        26.1550 
 407   0.0000       0.964602        26.2481 
 408   0.0000       0.966816        26.3084 
 409   0.0000       0.969969        26.3942 
 410   0.0000       0.975538        26.5457 
 411   0.0000       0.979271        26.6473 
 412   0.0000       0.986116        26.8336 
 413   0.0000       0.992932        27.0191 
 414   0.0000       0.994231        27.0544 
 415   0.0000       0.995416        27.0866 
 416   0.0000       0.999798        27.2059 
 417   0.0000       1.002256        27.2728 
 418   0.0000       1.008323        27.4379 
 419   0.0000       1.016785        27.6681 
 420   0.0000       1.021681        27.8014 
 421   0.0000       1.028350        27.9828 
 422   0.0000       1.033619        28.1262 
 423   0.0000       1.035825        28.1862 
 424   0.0000       1.040758        28.3205 
 425   0.0000       1.048935        28.5430 
 426   0.0000       1.052997        28.6535 
 427   0.0000       1.060707        28.8633 
 428   0.0000       1.070576        29.1319 
 429   0.0000       1.075462        29.2648 
 430   0.0000       1.077830        29.3292 
 431   0.0000       1.083217        29.4758 
 432   0.0000       1.085491        29.5377 
 433   0.0000       1.089829        29.6558 
 434   0.0000       1.091860        29.7110 
 435   0.0000       1.099818        29.9276 
 436   0.0000       1.107271        30.1304 
 437   0.0000       1.110565        30.2200 
 438   0.0000       1.115245        30.3474 
 439   0.0000       1.116321        30.3766 
 440   0.0000       1.117905        30.4197 
 441   0.0000       1.121402        30.5149 
 442   0.0000       1.128176        30.6992 
 443   0.0000       1.130754        30.7694 
 444   0.0000       1.132712        30.8227 
 445   0.0000       1.137861        30.9628 
 446   0.0000       1.139285        31.0015 
 447   0.0000       1.142341        31.0847 
 448   0.0000       1.145740        31.1772 
 449   0.0000       1.147668        31.2296 
 450   0.0000       1.152870        31.3712 
 451   0.0000       1.156930        31.4817 
 452   0.0000       1.158878        31.5347 
 453   0.0000       1.160809        31.5872 
 454   0.0000       1.163764        31.6676 
 455   0.0000       1.166023        31.7291 
 456   0.0000       1.169160        31.8145 
 457   0.0000       1.177212        32.0336 
 458   0.0000       1.181138        32.1404 
 459   0.0000       1.187754        32.3204 
 460   0.0000       1.189774        32.3754 
 461   0.0000       1.192558        32.4512 
 462   0.0000       1.201714        32.7003 
 463   0.0000       1.202850        32.7312 
 464   0.0000       1.209508        32.9124 
 465   0.0000       1.210991        32.9528 
 466   0.0000       1.211621        32.9699 
 467   0.0000       1.214271        33.0420 
 468   0.0000       1.225433        33.3457 
 469   0.0000       1.227405        33.3994 
 470   0.0000       1.227920        33.4134 
 471   0.0000       1.231286        33.5050 
 472   0.0000       1.234247        33.5856 
 473   0.0000       1.240450        33.7543 
 474   0.0000       1.242079        33.7987 
 475   0.0000       1.244714        33.8704 
 476   0.0000       1.247805        33.9545 
 477   0.0000       1.249160        33.9914 
 478   0.0000       1.254102        34.1259 
 479   0.0000       1.255934        34.1757 
 480   0.0000       1.260512        34.3003 
 481   0.0000       1.263259        34.3750 
 482   0.0000       1.269422        34.5427 
 483   0.0000       1.270922        34.5835 
 484   0.0000       1.273889        34.6643 
 485   0.0000       1.275538        34.7091 
 486   0.0000       1.277270        34.7563 
 487   0.0000       1.284830        34.9620 
 488   0.0000       1.287481        35.0341 
 489   0.0000       1.293069        35.1862 
 490   0.0000       1.295958        35.2648 
 491   0.0000       1.297671        35.3114 
 492   0.0000       1.305762        35.5316 
 493   0.0000       1.308966        35.6188 
 494   0.0000       1.311564        35.6895 
 495   0.0000       1.314915        35.7807 
 496   0.0000       1.316660        35.8281 
 497   0.0000       1.322935        35.9989 
 498   0.0000       1.325487        36.0683 
 499   0.0000       1.331121        36.2216 
 500   0.0000       1.335259        36.3343 
 501   0.0000       1.339136        36.4397 
 502   0.0000       1.341698        36.5095 
 503   0.0000       1.342354        36.5273 
 504   0.0000       1.343903        36.5695 
[...]
      pz      :     0.021811  p :     0.079331
      px      :     0.042944
      py      :     0.014576
 77 H s       :     0.894181  s :     0.894181
      pz      :     0.047227  p :     0.078454
      px      :     0.015004
      py      :     0.016223
 78 H s       :     0.894556  s :     0.894556
      pz      :     0.025501  p :     0.078376
      px      :     0.020675
      py      :     0.032199
 79 H s       :     0.907726  s :     0.907726
      pz      :     0.022502  p :     0.087136
      px      :     0.021874
      py      :     0.042759
 80 H s       :     0.877764  s :     0.877764
      pz      :     0.038306  p :     0.083366
      px      :     0.029562
      py      :     0.015498
 81 H s       :     0.888149  s :     0.888149
      pz      :     0.037613  p :     0.083433
      px      :     0.016080
      py      :     0.029740
 82 H s       :     0.914140  s :     0.914140
      pz      :     0.022362  p :     0.087086
      px      :     0.031033
      py      :     0.033691
 83 H s       :     0.872044  s :     0.872044
      pz      :     0.039218  p :     0.083747
      px      :     0.015238
      py      :     0.029291
 84 H s       :     0.888068  s :     0.888068
      pz      :     0.035823  p :     0.084264
      px      :     0.031798
      py      :     0.016642
 85 H s       :     0.895211  s :     0.895211
      pz      :     0.022513  p :     0.079647
      px      :     0.014128
      py      :     0.043006
 86 H s       :     0.890574  s :     0.890574
      pz      :     0.024713  p :     0.078900
      px      :     0.033006
      py      :     0.021181
 87 H s       :     0.890885  s :     0.890885
      pz      :     0.047855  p :     0.078629
      px      :     0.015647
      py      :     0.015127
 88 H s       :     0.917218  s :     0.917218
      pz      :     0.022378  p :     0.086833
      px      :     0.042124
      py      :     0.022331
 89 H s       :     0.874466  s :     0.874466
      pz      :     0.037835  p :     0.084013
      px      :     0.030486
      py      :     0.015692


                      *****************************
                      * MAYER POPULATION ANALYSIS *
                      *****************************

  NA   - Mulliken gross atomic population
  ZA   - Total nuclear charge
  QA   - Mulliken gross atomic charge
  VA   - Mayer's total valence
  BVA  - Mayer's bonded valence
  FA   - Mayer's free valence

  ATOM       NA         ZA         QA         VA         BVA        FA
  0 C      5.7735     6.0000     0.2265     3.8115     3.8115     0.0000
  1 N      7.4230     7.0000    -0.4230     3.4408     3.4408     0.0000
  2 C      6.0662     6.0000    -0.0662     3.9194     3.9194     0.0000
  3 N      7.3412     7.0000    -0.3412     3.4292     3.4292    -0.0000
  4 C      6.0726     6.0000    -0.0726     3.9697     3.9697    -0.0000
  5 N      7.5654     7.0000    -0.5654     3.0723     3.0723    -0.0000
  6 C      6.0339     6.0000    -0.0339     3.9712     3.9712    -0.0000
  7 N      7.3369     7.0000    -0.3369     3.4454     3.4454     0.0000
  8 C      5.7773     6.0000     0.2227     3.8114     3.8114     0.0000
  9 N      7.5654     7.0000    -0.5654     3.0894     3.0894     0.0000
 10 C      5.8929     6.0000     0.1071     3.8715     3.8715    -0.0000
 11 N      7.4387     7.0000    -0.4387     3.3785     3.3785    -0.0000
 12 C      6.0615     6.0000    -0.0615     3.9113     3.9113     0.0000
 13 N      7.4481     7.0000    -0.4481     3.3342     3.3342    -0.0000
 14 C      5.7719     6.0000     0.2281     3.8040     3.8040    -0.0000
 15 N      7.4411     7.0000    -0.4411     3.3674     3.3674    -0.0000
 16 C      5.7508     6.0000     0.2492     3.8031     3.8031     0.0000
 17 C      6.0406     6.0000    -0.0406     3.9743     3.9743    -0.0000
 18 C      6.1907     6.0000    -0.1907     3.7019     3.7019    -0.0000
 19 C      5.7646     6.0000     0.2354     3.8905     3.8905    -0.0000
 20 C      5.8050     6.0000     0.1950     3.8220     3.8220    -0.0000
 21 C      6.0727     6.0000    -0.0727     3.8972     3.8972    -0.0000
 22 C      6.0882     6.0000    -0.0882     3.9855     3.9855    -0.0000
 23 C      6.0617     6.0000    -0.0617     3.9882     3.9882     0.0000
 24 C      5.7849     6.0000     0.2151     3.8279     3.8279    -0.0000
 25 C      5.8856     6.0000     0.1144     3.8919     3.8919     0.0000
 26 C      6.0684     6.0000    -0.0684     3.9081     3.9081     0.0000
 27 C      5.7590     6.0000     0.2410     3.8996     3.8996    -0.0000
 28 C      6.0431     6.0000    -0.0431     3.9890     3.9890    -0.0000
 29 C      6.1947     6.0000    -0.1947     3.7270     3.7270     0.0000
 30 C      5.7749     6.0000     0.2251     3.7839     3.7839    -0.0000
 31 C      5.8067     6.0000     0.1933     3.8321     3.8321    -0.0000
 32 C      6.0663     6.0000    -0.0663     3.9132     3.9132    -0.0000
 33 C      6.0973     6.0000    -0.0973     3.9858     3.9858    -0.0000
 34 C      6.0511     6.0000    -0.0511     3.9976     3.9976    -0.0000
 35 C      5.8143     6.0000     0.1857     3.8293     3.8293    -0.0000
 36 C      5.8808     6.0000     0.1192     3.9056     3.9056     0.0000
 37 C      6.0695     6.0000    -0.0695     3.9154     3.9154    -0.0000
 38 C      5.7583     6.0000     0.2417     3.7954     3.7954    -0.0000
 39 C      6.0637     6.0000    -0.0637     3.9971     3.9971    -0.0000
 40 C      6.2006     6.0000    -0.2006     3.7497     3.7497    -0.0000
 41 C      5.7815     6.0000     0.2185     3.8767     3.8767    -0.0000
 42 C      5.7897     6.0000     0.2103     3.8311     3.8311    -0.0000
 43 C      6.0758     6.0000    -0.0758     3.9050     3.9050    -0.0000
 44 C      6.0905     6.0000    -0.0905     3.9838     3.9838     0.0000
 45 C      6.0421     6.0000    -0.0421     3.9953     3.9953     0.0000
 46 C      5.8098     6.0000     0.1902     3.8215     3.8215    -0.0000
 47 C      5.8838     6.0000     0.1162     3.8956     3.8956     0.0000
 48 C      6.0796     6.0000    -0.0796     3.8994     3.8994    -0.0000
 49 C      5.7867     6.0000     0.2133     3.8693     3.8693    -0.0000
 50 C      6.0631     6.0000    -0.0631     3.9900     3.9900    -0.0000
 51 C      6.1886     6.0000    -0.1886     3.7403     3.7403    -0.0000
 52 H      0.9266     1.0000     0.0734     0.9830     0.9830     0.0000
 53 H      1.0093     1.0000    -0.0093     1.0013     1.0013    -0.0000
 54 H      0.9396     1.0000     0.0604     1.0068     1.0068     0.0000
 55 H      0.9278     1.0000     0.0722     0.9841     0.9841     0.0000
 56 H      0.9236     1.0000     0.0764     0.9726     0.9726    -0.0000
 57 H      0.9299     1.0000     0.0701     0.9848     0.9848    -0.0000
 58 H      0.9317     1.0000     0.0683     0.9863     0.9863     0.0000
 59 H      1.0241     1.0000    -0.0241     0.9966     0.9966     0.0000
 60 H      0.9407     1.0000     0.0593     1.0057     1.0057    -0.0000
 61 H      0.8240     1.0000     0.1760     1.0434     1.0434     0.0000
 62 H      0.8309     1.0000     0.1691     1.0433     1.0433     0.0000
 63 H      0.9456     1.0000     0.0544     0.9860     0.9860    -0.0000
 64 H      1.0300     1.0000    -0.0300     0.9934     0.9934    -0.0000
 65 H      0.9566     1.0000     0.0434     1.0080     1.0080     0.0000
 66 H      0.9437     1.0000     0.0563     0.9847     0.9847    -0.0000
 67 H      0.9400     1.0000     0.0600     0.9717     0.9717     0.0000
 68 H      0.9430     1.0000     0.0570     0.9865     0.9865     0.0000
 69 H      0.9407     1.0000     0.0593     0.9830     0.9830     0.0000
 70 H      1.0173     1.0000    -0.0173     0.9970     0.9970     0.0000
 71 H      0.9525     1.0000     0.0475     1.0074     1.0074     0.0000
 72 H      0.9576     1.0000     0.0424     0.9858     0.9858    -0.0000
 73 H      1.0188     1.0000    -0.0188     0.9968     0.9968     0.0000
 74 H      0.9662     1.0000     0.0338     1.0093     1.0093     0.0000
 75 H      0.9587     1.0000     0.0413     0.9865     0.9865     0.0000
 76 H      0.9497     1.0000     0.0503     0.9706     0.9706    -0.0000
 77 H      0.9508     1.0000     0.0492     0.9845     0.9845    -0.0000
 78 H      0.9515     1.0000     0.0485     0.9838     0.9838     0.0000
 79 H      1.0125     1.0000    -0.0125     1.0011     1.0011     0.0000
 80 H      0.9661     1.0000     0.0339     1.0065     1.0065    -0.0000
 81 H      0.9484     1.0000     0.0516     0.9853     0.9853    -0.0000
 82 H      1.0226     1.0000    -0.0226     0.9951     0.9951     0.0000
 83 H      0.9566     1.0000     0.0434     1.0103     1.0103     0.0000
 84 H      0.9491     1.0000     0.0509     0.9861     0.9861    -0.0000
 85 H      0.9439     1.0000     0.0561     0.9714     0.9714    -0.0000
 86 H      0.9433     1.0000     0.0567     0.9841     0.9841    -0.0000
 87 H      0.9447     1.0000     0.0553     0.9853     0.9853    -0.0000
 88 H      1.0280     1.0000    -0.0280     0.9920     0.9920    -0.0000
 89 H      0.9594     1.0000     0.0406     1.0063     1.0063    -0.0000

  Mayer bond orders larger than 0.100000
B(  0-C ,  1-N ) :   1.1717 B(  0-C , 17-C ) :   1.5630 B(  0-C , 52-H ) :   0.9680 
B(  1-N ,  8-C ) :   1.1661 B(  1-N , 10-C ) :   0.9389 B(  2-C , 12-C ) :   1.5632 
B(  2-C , 16-C ) :   1.2927 B(  2-C , 53-H ) :   0.9788 B(  3-N , 14-C ) :   1.1837 
B(  3-N , 16-C ) :   1.2017 B(  3-N , 61-H ) :   0.8961 B(  4-C ,  6-C ) :   1.3268 
B(  4-C , 17-C ) :   1.3261 B(  4-C , 18-C ) :   1.1232 B(  5-N , 19-C ) :   1.3795 
B(  5-N , 27-C ) :   1.4370 B(  6-C ,  8-C ) :   1.5620 B(  6-C , 54-H ) :   0.9709 
B(  7-N , 30-C ) :   1.1883 B(  7-N , 38-C ) :   1.2108 B(  7-N , 62-H ) :   0.9005 
B(  8-C , 55-H ) :   0.9685 B(  9-N , 41-C ) :   1.4285 B(  9-N , 49-C ) :   1.3978 
B( 10-C , 56-H ) :   0.9764 B( 10-C , 57-H ) :   0.9810 B( 10-C , 58-H ) :   0.9824 
B( 11-N , 20-C ) :   1.1078 B( 11-N , 24-C ) :   1.1330 B( 11-N , 25-C ) :   0.9601 
B( 12-C , 14-C ) :   1.2925 B( 12-C , 59-H ) :   0.9773 B( 13-N , 31-C ) :   1.0933 
B( 13-N , 35-C ) :   1.0851 B( 13-N , 36-C ) :   0.9758 B( 14-C , 18-C ) :   1.2385 
B( 15-N , 42-C ) :   1.1243 B( 15-N , 46-C ) :   1.0983 B( 15-N , 47-C ) :   0.9645 
B( 16-C , 51-C ) :   1.2277 B( 17-C , 60-H ) :   0.9714 B( 18-C , 19-C ) :   1.2824 
B( 19-C , 21-C ) :   1.1776 B( 20-C , 28-C ) :   1.6254 B( 20-C , 63-H ) :   0.9706 
B( 21-C , 26-C ) :   1.6695 B( 21-C , 64-H ) :   0.9721 B( 22-C , 23-C ) :   1.2659 
B( 22-C , 28-C ) :   1.2795 B( 22-C , 29-C ) :   1.2488 B( 23-C , 24-C ) :   1.6278 
B( 23-C , 65-H ) :   0.9718 B( 24-C , 66-H ) :   0.9690 B( 25-C , 67-H ) :   0.9763 
B( 25-C , 68-H ) :   0.9832 B( 25-C , 69-H ) :   0.9819 B( 26-C , 27-C ) :   1.1842 
B( 26-C , 70-H ) :   0.9749 B( 27-C , 29-C ) :   1.2382 B( 28-C , 71-H ) :   0.9710 
B( 29-C , 30-C ) :   1.1835 B( 30-C , 32-C ) :   1.3421 B( 31-C , 39-C ) :   1.6686 
B( 31-C , 72-H ) :   0.9706 B( 32-C , 37-C ) :   1.5166 B( 32-C , 73-H ) :   0.9772 
B( 33-C , 34-C ) :   1.2446 B( 33-C , 39-C ) :   1.2379 B( 33-C , 40-C ) :   1.3250 
B( 34-C , 35-C ) :   1.6668 B( 34-C , 74-H ) :   0.9709 B( 35-C , 75-H ) :   0.9706 
B( 36-C , 76-H ) :   0.9757 B( 36-C , 77-H ) :   0.9825 B( 36-C , 78-H ) :   0.9836 
B( 37-C , 38-C ) :   1.3392 B( 37-C , 79-H ) :   0.9788 B( 38-C , 40-C ) :   1.1849 
B( 39-C , 80-H ) :   0.9720 B( 40-C , 41-C ) :   1.1848 B( 41-C , 43-C ) :   1.2408 
B( 42-C , 50-C ) :   1.6379 B( 42-C , 81-H ) :   0.9696 B( 43-C , 48-C ) :   1.6105 
B( 43-C , 82-H ) :   0.9751 B( 44-C , 45-C ) :   1.2793 B( 44-C , 50-C ) :   1.2558 
B( 44-C , 51-C ) :   1.2478 B( 45-C , 46-C ) :   1.6312 B( 45-C , 83-H ) :   0.9705 
B( 46-C , 84-H ) :   0.9706 B( 47-C , 85-H ) :   0.9760 B( 47-C , 86-H ) :   0.9826 
B( 47-C , 87-H ) :   0.9828 B( 48-C , 49-C ) :   1.2364 B( 48-C , 88-H ) :   0.9730 
B( 49-C , 51-C ) :   1.2037 B( 50-C , 89-H ) :   0.9719 

-------
TIMINGS
-------

Total SCF time: 0 days 0 hours 34 min 2 sec 

Total time                  ....    2042.466 sec
Sum of individual times     ....    2037.718 sec  ( 99.8%)

Fock matrix formation       ....    2012.976 sec  ( 98.6%)
Diagonalization             ....       6.880 sec  (  0.3%)
Density matrix formation    ....       0.756 sec  (  0.0%)
Population analysis         ....       0.522 sec  (  0.0%)
Initial guess               ....       2.057 sec  (  0.1%)
Orbital Transformation      ....       0.000 sec  (  0.0%)
Orbital Orthonormalization  ....       0.000 sec  (  0.0%)
DIIS solution               ....       3.521 sec  (  0.2%)
SOSCF solution              ....       9.957 sec  (  0.5%)

Maximum memory used throughout the entire SCF-calculation: 302.5 MB


           ************************************************************
           *        Program running with 16 parallel MPI-processes    *
           *              working on a common directory               *
           ************************************************************

------------------------------------------------------------------------------
                                ORCA  MP2 
------------------------------------------------------------------------------

Freezing NCore=104 chemical core electrons

----------
MP2 ENERGY (disk based algorithm)
----------

Dimension of the basis                    ...  918
Memory devoted to MP2                     ... 2000 MB   
Data format for buffers                   ... DOUBLE
Compression type for matrix containers    ... UNCOMPRESSED

-------------------------------
PARTIAL EXCHANGE TRANSFORMATION
-------------------------------

Transformation type                        ... one-operator
Generation of integrals (i,mue|j,nue)      ... ON
Generation of integrals (mue,kappa|nue,tau)... OFF
Generation of integrals (i,mue|a,nue)      ... OFF
Dimension of the basis                     ...  918
Number of internal MOs                     ...  127 (  52- 178)
Pair cutoff                                ... 2.500e-12 Eh
Number of AO pairs in the trafo            ... 421821
Total Number of distinct AO pairs          ... 421821
Memory devoted for trafo                   ... 2000.0 MB 
Max. Number of MO pairs treated together   ...  311      
Number Format for Storage                  ... Double (8 Byte)
Integral package used                      ... LIBINT

Starting integral evaluation:
    ... done with AO integral generation
Closing buffer AOK     (37.96 GB; CompressionRatio= 1.34)
Collecting buffer AOK 
Number of MO pairs included in the trafo   ... 8128
------------------------
SORTING OF (i,mue|j,nue)
------------------------

IBATCH = 1 of  2
IBATCH = 2 of  2
Closing buffer KAO     (51.03 GB; CompressionRatio= 1.00)
Collecting buffer KAO 
N(AO-Batches) Done                         ...  85604440 
N(AO-Batches) Skipped                      ...  82062228 
N(IJ)-pairs Skipped                        ...         0 
TOTAL TIME for half transformation         ...  2851.486 sec
AO-integral generation                     ...   207.944 sec
Half transformation                        ...   372.088 sec
K-integral sorting                         ...  2088.407 sec

Finished integral transformation - now doing MP2 part

OPERATOR COMBINATION   0   0: ij=( 52..178, 52..178)
Process 10:   Internal MO 132
Process  1:   Internal MO  60
Process  4:   Internal MO  84
Process  7:   Internal MO 108
Process 13:   Internal MO 156
Process  0:   Internal MO  54
Process  0:   Internal MO  57
Process  2:   Internal MO  69
Process  5:   Internal MO  93
Process  3:   Internal MO  78
Process  2:   Internal MO  72
Process  8:   Internal MO 117
Process  6:   Internal MO 102
Process  4:   Internal MO  87
Process 11:   Internal MO 141
Process 14:   Internal MO 165
Process  1:   Internal MO  63
Process  2:   Internal MO  75
Process  3:   Internal MO  81
Process  9:   Internal MO 126
Process  1:   Internal MO  66
Process  5:   Internal MO  96
Process 12:   Internal MO 150
Process  4:   Internal MO  90
Process  7:   Internal MO 111
Process  8:   Internal MO 120
Process 10:   Internal MO 135
Process  6:   Internal MO 105
Process 15:   Internal MO 174
Process  5:   Internal MO  99
Process 13:   Internal MO 159
Process  9:   Internal MO 129
Process  7:   Internal MO 114
Process 14:   Internal MO 168
Process 11:   Internal MO 144
Process  8:   Internal MO 123
Process 10:   Internal MO 138
Process 12:   Internal MO 153
Process 13:   Internal MO 162
Process 15:   Internal MO 177
Process 11:   Internal MO 147
Process 14:   Internal MO 171
-----------------------------------------------
 MP2 CORRELATION ENERGY   :     -7.277913174 Eh
-----------------------------------------------


-------
TIMINGS
-------
Total time                : 3217.400 sec
Integral trafo            : 2853.457 sec ( 88.7%)
K(i,j)                    :    5.597 sec (  0.2%)
T(i,j)                    :    0.114 sec (  0.0%)

---------------------------------------
MP2 TOTAL ENERGY:    -2130.891405621 Eh
---------------------------------------

Maximum memory used throughout the entire MP2-calculation: 2275.2 MB

-------------------------   --------------------
FINAL SINGLE POINT ENERGY     -2130.891405620861
-------------------------   --------------------


                            ***************************************
                            *     ORCA property calculations      *
                            ***************************************


  WARNING: The energy has been calculated at the MP2 level but the densities
           used in the property calculations are still SCF densities
           MP2 response densities have not been calculated 
           use %mp2 Density relaxed end
           or  %mp2 Density unrelaxed end

                                    ---------------------
                                    Active property flags
                                    ---------------------
   (+) Dipole Moment


------------------------------------------------------------------------------
                       ORCA ELECTRIC PROPERTIES CALCULATION
------------------------------------------------------------------------------

Dipole Moment Calculation                       ... on
Quadrupole Moment Calculation                   ... off
Polarizability Calculation                      ... off
GBWName                                         ... /scratch/allen/tmpyp4_amber_gaff2/conf1/conf1/Conf76.orca.gbw
Electron density                                ... /scratch/allen/tmpyp4_amber_gaff2/conf1/conf1/Conf76.orca.scfp
The origin for moment calculation is the CENTER OF MASS  = ( 0.001144, -0.003414  0.004160)

-------------
DIPOLE MOMENT
-------------
                                X             Y             Z
Electronic contribution:     -3.10917       3.33520      -0.14826
Nuclear contribution   :     -0.03932       0.16002       0.19270
                        -----------------------------------------
Total Dipole Moment    :     -3.14849       3.49522       0.04444
                        -----------------------------------------
Magnitude (a.u.)       :      4.70441
Magnitude (Debye)      :     11.95767



--------------------
Rotational spectrum 
--------------------
 
Rotational constants in cm-1:     0.001498     0.001473     0.000763 
Rotational constants in MHz :    44.915321    44.150460    22.862032 

 Dipole components along the rotational axes: 
x,y,z [a.u.] :    -4.215854    -2.087262     0.037632 
x,y,z [Debye]:   -10.715849    -5.305399     0.095654 

 

Timings for individual modules:

Sum of individual times         ...     5285.037 sec (=  88.084 min)
GTO integral calculation        ...        3.273 sec (=   0.055 min)   0.1 %
SCF iterations                  ...     2043.568 sec (=  34.059 min)  38.7 %
MP2 module                      ...     3238.197 sec (=  53.970 min)  61.3 %
                             ****ORCA TERMINATED NORMALLY****
TOTAL RUN TIME: 0 days 1 hours 28 minutes 8 seconds 415 msec
# of primitive gaussian functions

