
                                 *****************
                                 * O   R   C   A *
                                 *****************

                                            #,                                       
                                            ###                                      
                                            ####                                     
                                            #####                                    
                                            ######                                   
                                           ########,                                 
                                     ,,################,,,,,                         
                               ,,#################################,,                 
                          ,,##########################################,,             
                       ,#########################################, ''#####,          
                    ,#############################################,,   '####,        
                  ,##################################################,,,,####,       
                ,###########''''           ''''###############################       
              ,#####''   ,,,,##########,,,,          '''####'''          '####       
            ,##' ,,,,###########################,,,                        '##       
           ' ,,###''''                  '''############,,,                           
         ,,##''                                '''############,,,,        ,,,,,,###''
      ,#''                                            '''#######################'''  
     '                                                          ''''####''''         
             ,#######,   #######,   ,#######,      ##                                
            ,#'     '#,  ##    ##  ,#'     '#,    #''#        ######   ,####,        
            ##       ##  ##   ,#'  ##            #'  '#       #        #'  '#        
            ##       ##  #######   ##           ,######,      #####,   #    #        
            '#,     ,#'  ##    ##  '#,     ,#' ,#      #,         ##   #,  ,#        
             '#######'   ##     ##  '#######'  #'      '#     #####' # '####'        



                  #######################################################
                  #                        -***-                        #
                  #          Department of theory and spectroscopy      #
                  #    Directorship and core code : Frank Neese         #
                  #        Max Planck Institute fuer Kohlenforschung    #
                  #                Kaiser Wilhelm Platz 1               #
                  #                 D-45470 Muelheim/Ruhr               #
                  #                      Germany                        #
                  #                                                     #
                  #                  All rights reserved                #
                  #                        -***-                        #
                  #######################################################


                         Program Version 5.0.4 -  RELEASE  -


 With contributions from (in alphabetic order):
   Daniel Aravena         : Magnetic Suceptibility
   Michael Atanasov       : Ab Initio Ligand Field Theory (pilot matlab implementation)
   Alexander A. Auer      : GIAO ZORA, VPT2 properties, NMR spectrum
   Ute Becker             : Parallelization
   Giovanni Bistoni       : ED, misc. LED, open-shell LED, HFLD
   Martin Brehm           : Molecular dynamics
   Dmytro Bykov           : SCF Hessian
   Vijay G. Chilkuri      : MRCI spin determinant printing, contributions to CSF-ICE
   Dipayan Datta          : RHF DLPNO-CCSD density
   Achintya Kumar Dutta   : EOM-CC, STEOM-CC
   Dmitry Ganyushin       : Spin-Orbit,Spin-Spin,Magnetic field MRCI
   Miquel Garcia          : C-PCM and meta-GGA Hessian, CC/C-PCM, Gaussian charge scheme
   Yang Guo               : DLPNO-NEVPT2, F12-NEVPT2, CIM, IAO-localization
   Andreas Hansen         : Spin unrestricted coupled pair/coupled cluster methods
   Benjamin Helmich-Paris : MC-RPA, TRAH-SCF, COSX integrals
   Lee Huntington         : MR-EOM, pCC
   Robert Izsak           : Overlap fitted RIJCOSX, COSX-SCS-MP3, EOM
   Marcus Kettner         : VPT2
   Christian Kollmar      : KDIIS, OOCD, Brueckner-CCSD(T), CCSD density, CASPT2, CASPT2-K
   Simone Kossmann        : Meta GGA functionals, TD-DFT gradient, OOMP2, MP2 Hessian
   Martin Krupicka        : Initial AUTO-CI
   Lucas Lang             : DCDCAS
   Marvin Lechner         : AUTO-CI (C++ implementation), FIC-MRCC
   Dagmar Lenk            : GEPOL surface, SMD
   Dimitrios Liakos       : Extrapolation schemes; Compound Job, initial MDCI parallelization
   Dimitrios Manganas     : Further ROCIS development; embedding schemes
   Dimitrios Pantazis     : SARC Basis sets
   Anastasios Papadopoulos: AUTO-CI, single reference methods and gradients
   Taras Petrenko         : DFT Hessian,TD-DFT gradient, ASA, ECA, R-Raman, ABS, FL, XAS/XES, NRVS
   Peter Pinski           : DLPNO-MP2, DLPNO-MP2 Gradient
   Christoph Reimann      : Effective Core Potentials
   Marius Retegan         : Local ZFS, SOC
   Christoph Riplinger    : Optimizer, TS searches, QM/MM, DLPNO-CCSD(T), (RO)-DLPNO pert. Triples
   Tobias Risthaus        : Range-separated hybrids, TD-DFT gradient, RPA, STAB
   Michael Roemelt        : Original ROCIS implementation
   Masaaki Saitow         : Open-shell DLPNO-CCSD energy and density
   Barbara Sandhoefer     : DKH picture change effects
   Avijit Sen             : IP-ROCIS
   Kantharuban Sivalingam : CASSCF convergence, NEVPT2, FIC-MRCI
   Bernardo de Souza      : ESD, SOC TD-DFT
   Georgi Stoychev        : AutoAux, RI-MP2 NMR, DLPNO-MP2 response
   Willem Van den Heuvel  : Paramagnetic NMR
   Boris Wezisla          : Elementary symmetry handling
   Frank Wennmohs         : Technical directorship


 We gratefully acknowledge several colleagues who have allowed us to
 interface, adapt or use parts of their codes:
   Stefan Grimme, W. Hujo, H. Kruse, P. Pracht,  : VdW corrections, initial TS optimization,
                  C. Bannwarth, S. Ehlert          DFT functionals, gCP, sTDA/sTD-DF
   Ed Valeev, F. Pavosevic, A. Kumar             : LibInt (2-el integral package), F12 methods
   Garnet Chan, S. Sharma, J. Yang, R. Olivares  : DMRG
   Ulf Ekstrom                                   : XCFun DFT Library
   Mihaly Kallay                                 : mrcc  (arbitrary order and MRCC methods)
   Jiri Pittner, Ondrej Demel                    : Mk-CCSD
   Frank Weinhold                                : gennbo (NPA and NBO analysis)
   Christopher J. Cramer and Donald G. Truhlar   : smd solvation model
   Lars Goerigk                                  : TD-DFT with DH, B97 family of functionals
   V. Asgeirsson, H. Jonsson                     : NEB implementation
   FAccTs GmbH                                   : IRC, NEB, NEB-TS, DLPNO-Multilevel, CI-OPT
                                                   MM, QMMM, 2- and 3-layer-ONIOM, Crystal-QMMM,
                                                   LR-CPCM, SF, NACMEs, symmetry and pop. for TD-DFT,
                                                   nearIR, NL-DFT gradient (VV10), updates on ESD,
                                                   ML-optimized integration grids
   S Lehtola, MJT Oliveira, MAL Marques          : LibXC Library
   Liviu Ungur et al                             : ANISO software


 Your calculation uses the libint2 library for the computation of 2-el integrals
 For citations please refer to: http://libint.valeyev.net

 Your ORCA version has been built with support for libXC version: 5.1.0
 For citations please refer to: https://tddft.org/programs/libxc/

 This ORCA versions uses:
   CBLAS   interface :  Fast vector & matrix operations
   LAPACKE interface :  Fast linear algebra routines
   SCALAPACK package :  Parallel linear algebra routines
   Shared memory     :  Shared parallel matrices
   BLAS/LAPACK       :  OpenBLAS 0.3.15  USE64BITINT DYNAMIC_ARCH NO_AFFINITY Sandybridge SINGLE_THREADED
        Core in use  :  Sandybridge
   Copyright (c) 2011-2014, The OpenBLAS Project


================================================================================

----- Orbital basis set information -----
Your calculation utilizes the basis: cc-pVDZ 
       H, B-Ne : Obtained from the ccRepo (grant-hill.group.shef.ac.uk/ccrepo) Feb. 2017
                 T. H. Dunning, Jr., J. Chem. Phys. 90, 1007 (1989)
            He : Obtained from the ccRepo (grant-hill.group.shef.ac.uk/ccrepo) Feb. 2017
                 D. E. Woon, T. H. Dunning, Jr., J. Chem. Phys. 100, 2975 (1994)
  Li-Be, Na-Mg : Obtained from the ccRepo (grant-hill.group.shef.ac.uk/ccrepo) Feb. 2017
                 B. P. Prascher, D. E. Woon, K. A. Peterson, T. H. Dunning, Jr., A. K. Wilson, Theor. Chem. Acc. 128, 69 (2011)
         Al-Ar : Obtained from the ccRepo (grant-hill.group.shef.ac.uk/ccrepo) Feb. 2017
                 D. E. Woon, T. H. Dunning, Jr., J. Chem. Phys. 98, 1358 (1993)
            Ca : Obtained from the Peterson Research Group Website (tyr0.chem.wsu.edu/~kipeters) Feb. 2017
                 J. Koput, K. A. Peterson, J. Phys. Chem. 106, 9595 (2002)
         Sc-Zn : Obtained from the ccRepo (grant-hill.group.shef.ac.uk/ccrepo) Feb. 2017
                 N. B. Balabanov, K. A. Peterson, J. Chem. Phys. 123, 064107 (2005)
                 N. B. Balabanov, K. A. Peterson, J. Chem. Phys. 125, 074110 (2006)
         Ga-Kr : Obtained from the ccRepo (grant-hill.group.shef.ac.uk/ccrepo) Feb. 2017
                 A. K. Wilson, D. E. Woon, K. A. Peterson, T. H. Dunning, Jr., J. Chem. Phys. 110, 7667 (1999)

================================================================================
                                        WARNINGS
                       Please study these warnings very carefully!
================================================================================


WARNING: No MP2 level density has been requested!
         To caclulate MP2 level properties use
         %mp2 Density relaxed end
         or
         %mp2 Density unrelaxed end

WARNING: Post HF methods need fully converged wavefunctions
  ===> : Setting SCFConvForced true
         You can overwrite this default with %scf ConvForced false 


INFO   : the flag for use of the SHARK integral package has been found!

================================================================================
                                       INPUT FILE
================================================================================
NAME = /scratch/allen/tmpyp4_amber_gaff2/2.Mdgx/conf11/conf11/Conf217.orca
|  1> ! PAL2
|  2> ! mp2 cc-pvdz TightSCF  NoKeepInts
|  3> 
|  4> %scf
|  5>   MaxCore 2000
|  6> end
|  7> %mp2
|  8>   MaxCore 2000
|  9> end
| 10> * xyz 0 1
| 11>    C       -4.78100         5.28700         0.74300
| 12>    C        1.47400         4.04100         0.05700
| 13>    C       -2.80200         4.09300         0.04900
| 14>    C       -2.40400         5.25300        -0.63400
| 15>    C       -3.19700         6.38200        -0.60400
| 16>    C       -5.17800         7.62600         0.11800
| 17>    C        0.13200         4.30700         0.06100
| 18>    C       -0.56900         3.05600         0.04700
| 19>    C        1.64900         2.61800         0.02300
| 20>    C       -4.01900         4.13500         0.74700
| 21>    N       -4.36800         6.38800         0.07400
| 22>    N        0.38800         2.06700         0.02500
| 23>    N       -2.01000         0.39500        -0.07500
| 24>    N       -0.38800        -2.07400        -0.02700
| 25>    N        2.01000        -0.40100         0.06500
| 26>    C       -1.96000         2.86100         0.02400
| 27>    C       -2.62300         1.61500        -0.01800
| 28>    C       -5.57300        -4.32900         1.06600
| 29>    C       -4.07300         1.47100         0.05600
| 30>    C       -4.10600        -2.75600        -0.02600
| 31>    C       -4.99500        -2.75700        -1.11100
| 32>    C       -6.13200        -3.54200        -1.07600
| 33>    C       -7.65100        -5.11300         0.04000
| 34>    C       -4.32400         0.14100         0.03700
| 35>    C       -3.02500        -0.52000        -0.04800
| 36>    C       -4.42200        -3.56600         1.07500
| 37>    N       -6.40700        -4.31300         0.00100
| 38>    C       -2.86700        -1.92200        -0.04000
| 39>    C       -1.65000        -2.62400        -0.02700
| 40>    C        3.56800        -6.14200        -1.04000
| 41>    C       -1.47600        -4.04900        -0.03400
| 42>    C        2.80300        -4.09900        -0.00800
| 43>    C        3.65700        -4.38400         1.06900
| 44>    C        4.42700        -5.53000         1.05900
| 45>    C        5.24500        -7.58800         0.01400
| 46>    C       -0.13400        -4.31500        -0.02200
| 47>    C        0.56800        -3.06400        -0.02700
| 48>    C        2.77500        -5.01200        -1.07400
| 49>    N        4.37600        -6.39100         0.01700
| 50>    C        1.95900        -2.86900        -0.00900
| 51>    C        2.62100        -1.62200         0.00900
| 52>    C        5.54300         4.33900        -1.13000
| 53>    C        4.07000        -1.47900        -0.09400
| 54>    C        4.10400         2.75100        -0.02100
| 55>    C        5.02700         2.72900         1.03600
| 56>    C        6.16600         3.50900         0.97800
| 57>    C        7.61900         5.15300        -0.11500
| 58>    C        4.32100        -0.14800        -0.09200
| 59>    C        3.02500         0.51400         0.01500
| 60>    C        4.38700         3.58200        -1.11500
| 61>    C        2.86600         1.91600         0.01300
| 62>    N        6.41300         4.29600        -0.09500
| 63>    H       -5.73100         5.36100         1.25700
| 64>    H        2.27400         4.76600         0.08100
| 65>    H       -1.47000         5.28500        -1.18300
| 66>    H       -2.92800         7.30200        -1.10700
| 67>    H       -4.82100         8.25600         0.93600
| 68>    H       -5.07000         8.14900        -0.83200
| 69>    H       -6.22100         7.35700         0.28000
| 70>    H       -0.33200         5.28200         0.06900
| 71>    H       -4.38800         3.26800         1.28200
| 72>    H        0.18200         1.07200         0.00500
| 73>    H       -0.18300        -1.08000        -0.02100
| 74>    H       -5.86400        -4.96200         1.89500
| 75>    H       -4.79400         2.27200         0.13900
| 76>    H       -4.80000        -2.16000        -1.99400
| 77>    H       -6.84100        -3.58200        -1.89300
| 78>    H       -8.42800        -4.53600         0.54600
| 79>    H       -7.95600        -5.33700        -0.98100
| 80>    H       -7.45600        -6.03700         0.58400
| 81>    H       -5.28700        -0.34400         0.10000
| 82>    H       -3.78000        -3.60100         1.94700
| 83>    H        3.58700        -6.86800        -1.84300
| 84>    H       -2.27600        -4.77400        -0.05000
| 85>    H        3.71400        -3.72400         1.92600
| 86>    H        5.09200        -5.79500         1.87100
| 87>    H        6.20500        -7.32900        -0.43900
| 88>    H        5.39300        -7.91700         1.04200
| 89>    H        4.75900        -8.37300        -0.56400
| 90>    H        0.32900        -5.29000        -0.00800
| 91>    H        2.14600        -4.84200        -1.94000
| 92>    H        5.80800         4.98600        -1.95600
| 93>    H        4.78800        -2.28100        -0.18500
| 94>    H        4.86000         2.11400         1.91200
| 95>    H        6.90100         3.53100         1.77200
| 96>    H        7.38300         6.10900         0.35600
| 97>    H        8.41400         4.65200         0.43500
| 98>    H        7.92100         5.31000        -1.15000
| 99>    H        5.28300         0.33600        -0.17900
|100>    H        3.72000         3.63200        -1.96700
|101> *
|102> 
|103>                          ****END OF INPUT****
================================================================================

                       ****************************
                       * Single Point Calculation *
                       ****************************

---------------------------------
CARTESIAN COORDINATES (ANGSTROEM)
---------------------------------
  C     -4.781000    5.287000    0.743000
  C      1.474000    4.041000    0.057000
  C     -2.802000    4.093000    0.049000
  C     -2.404000    5.253000   -0.634000
  C     -3.197000    6.382000   -0.604000
  C     -5.178000    7.626000    0.118000
  C      0.132000    4.307000    0.061000
  C     -0.569000    3.056000    0.047000
  C      1.649000    2.618000    0.023000
  C     -4.019000    4.135000    0.747000
  N     -4.368000    6.388000    0.074000
  N      0.388000    2.067000    0.025000
  N     -2.010000    0.395000   -0.075000
  N     -0.388000   -2.074000   -0.027000
  N      2.010000   -0.401000    0.065000
  C     -1.960000    2.861000    0.024000
  C     -2.623000    1.615000   -0.018000
  C     -5.573000   -4.329000    1.066000
  C     -4.073000    1.471000    0.056000
  C     -4.106000   -2.756000   -0.026000
  C     -4.995000   -2.757000   -1.111000
  C     -6.132000   -3.542000   -1.076000
  C     -7.651000   -5.113000    0.040000
  C     -4.324000    0.141000    0.037000
  C     -3.025000   -0.520000   -0.048000
  C     -4.422000   -3.566000    1.075000
  N     -6.407000   -4.313000    0.001000
  C     -2.867000   -1.922000   -0.040000
  C     -1.650000   -2.624000   -0.027000
  C      3.568000   -6.142000   -1.040000
  C     -1.476000   -4.049000   -0.034000
  C      2.803000   -4.099000   -0.008000
  C      3.657000   -4.384000    1.069000
  C      4.427000   -5.530000    1.059000
  C      5.245000   -7.588000    0.014000
  C     -0.134000   -4.315000   -0.022000
  C      0.568000   -3.064000   -0.027000
  C      2.775000   -5.012000   -1.074000
  N      4.376000   -6.391000    0.017000
  C      1.959000   -2.869000   -0.009000
  C      2.621000   -1.622000    0.009000
  C      5.543000    4.339000   -1.130000
  C      4.070000   -1.479000   -0.094000
  C      4.104000    2.751000   -0.021000
  C      5.027000    2.729000    1.036000
  C      6.166000    3.509000    0.978000
  C      7.619000    5.153000   -0.115000
  C      4.321000   -0.148000   -0.092000
  C      3.025000    0.514000    0.015000
  C      4.387000    3.582000   -1.115000
  C      2.866000    1.916000    0.013000
  N      6.413000    4.296000   -0.095000
  H     -5.731000    5.361000    1.257000
  H      2.274000    4.766000    0.081000
  H     -1.470000    5.285000   -1.183000
  H     -2.928000    7.302000   -1.107000
  H     -4.821000    8.256000    0.936000
  H     -5.070000    8.149000   -0.832000
  H     -6.221000    7.357000    0.280000
  H     -0.332000    5.282000    0.069000
  H     -4.388000    3.268000    1.282000
  H      0.182000    1.072000    0.005000
  H     -0.183000   -1.080000   -0.021000
  H     -5.864000   -4.962000    1.895000
  H     -4.794000    2.272000    0.139000
  H     -4.800000   -2.160000   -1.994000
  H     -6.841000   -3.582000   -1.893000
  H     -8.428000   -4.536000    0.546000
  H     -7.956000   -5.337000   -0.981000
  H     -7.456000   -6.037000    0.584000
  H     -5.287000   -0.344000    0.100000
  H     -3.780000   -3.601000    1.947000
  H      3.587000   -6.868000   -1.843000
  H     -2.276000   -4.774000   -0.050000
  H      3.714000   -3.724000    1.926000
  H      5.092000   -5.795000    1.871000
  H      6.205000   -7.329000   -0.439000
  H      5.393000   -7.917000    1.042000
  H      4.759000   -8.373000   -0.564000
  H      0.329000   -5.290000   -0.008000
  H      2.146000   -4.842000   -1.940000
  H      5.808000    4.986000   -1.956000
  H      4.788000   -2.281000   -0.185000
  H      4.860000    2.114000    1.912000
  H      6.901000    3.531000    1.772000
  H      7.383000    6.109000    0.356000
  H      8.414000    4.652000    0.435000
  H      7.921000    5.310000   -1.150000
  H      5.283000    0.336000   -0.179000
  H      3.720000    3.632000   -1.967000

----------------------------
CARTESIAN COORDINATES (A.U.)
----------------------------
  NO LB      ZA    FRAG     MASS         X           Y           Z
   0 C     6.0000    0    12.011   -9.034781    9.990982    1.404067
   1 C     6.0000    0    12.011    2.785456    7.636383    0.107714
   2 C     6.0000    0    12.011   -5.295013    7.734649    0.092597
   3 C     6.0000    0    12.011   -4.542902    9.926731   -1.198086
   4 C     6.0000    0    12.011   -6.041454   12.060232   -1.141395
   5 C     6.0000    0    12.011   -9.785002   14.411051    0.222988
   6 C     6.0000    0    12.011    0.249444    8.139050    0.115273
   7 C     6.0000    0    12.011   -1.075254    5.775003    0.088817
   8 C     6.0000    0    12.011    3.116158    4.947303    0.043464
   9 C     6.0000    0    12.011   -7.594809    7.814018    1.411625
  10 N     7.0000    0    14.007   -8.254324   12.071571    0.139840
  11 N     7.0000    0    14.007    0.733214    3.906064    0.047243
  12 N     7.0000    0    14.007   -3.798350    0.746442   -0.141729
  13 N     7.0000    0    14.007   -0.733214   -3.919292   -0.051023
  14 N     7.0000    0    14.007    3.798350   -0.757780    0.122832
  15 C     6.0000    0    12.011   -3.703863    5.406506    0.045353
  16 C     6.0000    0    12.011   -4.956752    3.051908   -0.034015
  17 C     6.0000    0    12.011  -10.531444   -8.180624    2.014448
  18 C     6.0000    0    12.011   -7.696855    2.779787    0.105825
  19 C     6.0000    0    12.011   -7.759216   -5.208085   -0.049133
  20 C     6.0000    0    12.011   -9.439182   -5.209975   -2.099486
  21 C     6.0000    0    12.011  -11.587801   -6.693410   -2.033345
  22 C     6.0000    0    12.011  -14.458295   -9.662170    0.075589
  23 C     6.0000    0    12.011   -8.171176    0.266451    0.069920
  24 C     6.0000    0    12.011   -5.716422   -0.982658   -0.090707
  25 C     6.0000    0    12.011   -8.356369   -6.738763    2.031456
  26 N     7.0000    0    14.007  -12.107475   -8.150389    0.001890
  27 C     6.0000    0    12.011   -5.417845   -3.632054   -0.075589
  28 C     6.0000    0    12.011   -3.118048   -4.958641   -0.051023
  29 C     6.0000    0    12.011    6.742543  -11.606698   -1.965315
  30 C     6.0000    0    12.011   -2.789236   -7.651501   -0.064251
  31 C     6.0000    0    12.011    5.296902   -7.745987   -0.015118
  32 C     6.0000    0    12.011    6.910728   -8.284559    2.020117
  33 C     6.0000    0    12.011    8.365818  -10.450186    2.001220
  34 C     6.0000    0    12.011    9.911614  -14.339242    0.026456
  35 C     6.0000    0    12.011   -0.253223   -8.154168   -0.041574
  36 C     6.0000    0    12.011    1.073364   -5.790121   -0.051023
  37 C     6.0000    0    12.011    5.243990   -9.471307   -2.029566
  38 N     7.0000    0    14.007    8.269442  -12.077240    0.032125
  39 C     6.0000    0    12.011    3.701973   -5.421624   -0.017008
  40 C     6.0000    0    12.011    4.952972   -3.065136    0.017008
  41 C     6.0000    0    12.011   10.474752    8.199522   -2.135391
  42 C     6.0000    0    12.011    7.691185   -2.794905   -0.177634
  43 C     6.0000    0    12.011    7.755436    5.198637   -0.039684
  44 C     6.0000    0    12.011    9.499653    5.157063    1.957756
  45 C     6.0000    0    12.011   11.652051    6.631049    1.848152
  46 C     6.0000    0    12.011   14.397823    9.737759   -0.217319
  47 C     6.0000    0    12.011    8.165507   -0.279679   -0.173855
  48 C     6.0000    0    12.011    5.716422    0.971319    0.028346
  49 C     6.0000    0    12.011    8.290229    6.768999   -2.107045
  50 C     6.0000    0    12.011    5.415955    3.620715    0.024566
  51 N     7.0000    0    14.007   12.118814    8.118263   -0.179524
  52 H     1.0000    0     1.008  -10.830020   10.130822    2.375386
  53 H     1.0000    0     1.008    4.297237    9.006435    0.153068
  54 H     1.0000    0     1.008   -2.777897    9.987203   -2.235546
  55 H     1.0000    0     1.008   -5.533118   13.798780   -2.091927
  56 H     1.0000    0     1.008   -9.110370   15.601579    1.768784
  57 H     1.0000    0     1.008   -9.580911   15.399378   -1.572252
  58 H     1.0000    0     1.008  -11.755986   13.902715    0.529123
  59 H     1.0000    0     1.008   -0.627389    9.981533    0.130391
  60 H     1.0000    0     1.008   -8.292118    6.175625    2.422629
  61 H     1.0000    0     1.008    0.343930    2.025786    0.009449
  62 H     1.0000    0     1.008   -0.345820   -2.040904   -0.039684
  63 H     1.0000    0     1.008  -11.081354   -9.376821    3.581031
  64 H     1.0000    0     1.008   -9.059347    4.293458    0.262672
  65 H     1.0000    0     1.008   -9.070685   -4.081808   -3.768114
  66 H     1.0000    0     1.008  -12.927616   -6.768999   -3.577252
  67 H     1.0000    0     1.008  -15.926612   -8.571798    1.031790
  68 H     1.0000    0     1.008  -15.034661  -10.085468   -1.853821
  69 H     1.0000    0     1.008  -14.089798  -11.408277    1.103600
  70 H     1.0000    0     1.008   -9.990982   -0.650066    0.188973
  71 H     1.0000    0     1.008   -7.143165   -6.804904    3.679297
  72 H     1.0000    0     1.008    6.778448  -12.978639   -3.482765
  73 H     1.0000    0     1.008   -4.301017   -9.021553   -0.094486
  74 H     1.0000    0     1.008    7.018443   -7.037340    3.639613
  75 H     1.0000    0     1.008    9.622485  -10.950963    3.535678
  76 H     1.0000    0     1.008   11.725751  -13.849803   -0.829590
  77 H     1.0000    0     1.008   10.191293  -14.960962    1.969095
  78 H     1.0000    0     1.008    8.993207  -15.822677   -1.065806
  79 H     1.0000    0     1.008    0.621720   -9.996651   -0.015118
  80 H     1.0000    0     1.008    4.055352   -9.150054   -3.666069
  81 H     1.0000    0     1.008   10.975529    9.422175   -3.696304
  82 H     1.0000    0     1.008    9.048009   -4.310465   -0.349599
  83 H     1.0000    0     1.008    9.184069    3.994881    3.613156
  84 H     1.0000    0     1.008   13.041000    6.672623    3.348595
  85 H     1.0000    0     1.008   13.951848   11.544337    0.672743
  86 H     1.0000    0     1.008   15.900156    8.791006    0.822031
  87 H     1.0000    0     1.008   14.968521   10.034446   -2.173185
  88 H     1.0000    0     1.008    9.983423    0.634948   -0.338261
  89 H     1.0000    0     1.008    7.029781    6.863485   -3.717091

--------------------------------
INTERNAL COORDINATES (ANGSTROEM)
--------------------------------
 C      0   0   0     0.000000000000     0.00000000     0.00000000
 C      1   0   0     6.414681363871     0.00000000     0.00000000
 C      1   2   0     2.413237037674    22.10340447     0.00000000
 C      3   1   2     1.403742497754    87.91247170   302.44538795
 C      4   3   1     1.379996376807   120.16941374     0.17325570
 C      5   4   3     2.448097424532   152.51550870     1.54440428
 C      2   1   3     1.368114030335     5.97180540    59.22153587
 C      7   2   4     1.434084376876   108.05010202   121.10499227
 C      2   1   3     1.434123425651   108.31607740   329.14458059
 C      1   2   7     1.381218302804    45.60101268    95.75689114
 N      1   2   7     1.352897261436    78.90256044   298.53608017
 N      9   2   1     1.376127174356   106.58526707     5.52582088
 N     12   9   2     2.925062050624   168.53581413   171.12065651
 N     13  12   9     2.954513327098    91.55032014    11.12112580
 N     14  13  12     2.925371258490    88.43092389   359.84326247
 C      8   7   2     1.404790019896   127.24786865   181.11170171
 C     13  12   9     1.366535034311    81.72106996   188.00453233
 C     14  13  12     5.758810554272    80.56209567   166.76250791
 C     17  13  12     1.459010623676   111.08861209   183.82872609
 C     18  14  13     2.412235892279    27.27532823    36.33507194
 C     20  18  14     1.402692767501    87.95206320   148.94598259
 C     21  20  18     1.382106725257   120.14573887   359.70382047
 C     18  14  13     2.446510985056   144.15733107    82.80075377
 C     19  17  13     1.353610726908   106.29293361   359.75308708
 C     13  12   9     1.366813447402   172.21332906    33.46711076
 C     18  14  13     1.380960173213    15.08449437   309.23336894
 N     22  21  20     1.352773077792   120.73759875     0.27865223
 C     25  13  17     1.410897586645   125.60330303   182.37774668
 C     14  13  12     1.376642291955    80.24689249   177.85461986
 C     14  13  12     5.764089607215   164.51507311   312.20821879
 C     29  14  13     1.435600919476   106.58649366   178.76395472
 C     30  14  13     2.413316804732    27.10625047    82.12560436
 C     32  30  14     1.403734305344    87.90059683   149.76154742
 C     33  32  30     1.380694028378   120.14881443   359.74174632
 C     34  33  32     2.448777858443   152.49203239     2.45173620
 C     31  29  14     1.368160809262   108.16950133     0.70383075
 C     14  13  12     1.376239804685   169.26375223   353.09862627
 C     30  14  13     1.380907310430    14.68948582   353.70041132
 N     34  33  32     1.352658863128   120.85575621     0.19603406
 C     37  14  29     1.404717053360   126.01551127   180.90772073
 C     15  14  13     1.366491126938    81.61824056   183.09049352
 C      2   1   3     4.249062720177   161.81189282   114.80215899
 C     41  15  14     1.459677704153   111.05201287   175.08990246
 C     42   2   1     2.412953791518    41.78584867   188.79028328
 C     44  42   2     1.403446472082    87.95153797   233.97558675
 C     45  44  42     1.381696421071   120.11137308     0.19721020
 C     42   2   1     2.450019795838   135.97209175    99.10513239
 C     43  41  15     1.354461516618   106.26758155     0.30894352
 C     15  14  13     1.367461151185   171.87382904   332.35056460
 C     42   2   1     1.381886391857    32.59078432   237.64556248
 C      9   2   1     1.404988612053   126.98745415   186.53015841
 N     42   2   1     1.352765315936   113.57249190   126.84172158
 H      1   2   7     1.082668924464   156.87729256   164.05999136
 H      2   1   3     1.079907866440   126.12730340   155.84099614
 H      4   3   1     1.083873147559   121.00876452   179.51168112
 H      5   4   3     1.082483256222   122.84823642   179.42159042
 H      6   5   4     1.092461898649   104.44400960   100.18193516
 H      6   5   4     1.089813286761    84.63973434   209.58309882
 H      6   5   4     1.089244692436   133.88513807   322.40240166
 H      7   2  54     1.079807853278   126.66122480     1.30600390
 H     10   1   2     1.083547414745   118.74522924   154.60882204
 H     12   9   2     1.016297692608   125.29023241   180.00180175
 H     14  13  12     1.014936943854    44.97226959   359.42596618
 H     18  14  13     1.082871645210   128.03556573   234.20482432
 H     19  17  13     1.080893611786   126.41830519   178.11313280
 H     21  20  18     1.083569563987   121.05669627   180.67006309
 H     22  21  20     1.082483256222   122.73097286   180.59748951
 H     23  18  14     1.092105306278   103.92715769   234.93429879
 H     23  18  14     1.088871893291   134.19244188    12.25587044
 H     23  18  14     1.089833473518    84.85857450   125.45241208
 H     24  19  17     1.080075460327   127.28078426   178.44613241
 H     26  18  14     1.083408048706   118.76995697   244.94906660
 H     30  14  13     1.082703098730   127.99711412   279.66882698
 H     31  29  14     1.079759695488   125.22293469   180.92530585
 H     33  32  30     1.083188810873   121.01964473   180.74284758
 H     34  33  32     1.082494341787   122.70821597   180.59516895
 H     35  34  33     1.092652735319   105.73575241    97.19771933
 H     35  34  33     1.089462711615    84.05943581   206.43036958
 H     35  34  33     1.089268102902   133.08365142   318.50306270
 H     36  31  29     1.079439669458   126.61599965   178.98859863
 H     38  30  73     1.083742127999   118.77264435   359.90091293
 H     42   2   1     1.082178358682   119.31790784   343.47325203
 H     43  41  15     1.080281907652   126.36969097   182.06329380
 H     45  44  42     1.083277434455   121.10105945   179.58025624
 H     46  45  44     1.082194529648   122.72144639   179.46906377
 H     47  42   2     1.091546151109   106.65128841   315.16475048
 H     47  42   2     1.088818625851   132.46019523    94.52397119
 H     47  42   2     1.089531091801    83.63838232   206.04504406
 H     48  43  41     1.080402239909   127.23657387   181.62955349
 H     50  42   2     1.083186502870   118.77001737    94.71359229

---------------------------
INTERNAL COORDINATES (A.U.)
---------------------------
 C      0   0   0     0.000000000000     0.00000000     0.00000000
 C      1   0   0    12.121991014086     0.00000000     0.00000000
 C      1   2   0     4.560357097439    22.10340447     0.00000000
 C      3   1   2     2.652688883301    87.91247170   302.44538795
 C      4   3   1     2.607815217969   120.16941374     0.17325570
 C      5   4   3     4.626233681523   152.51550870     1.54440428
 C      2   1   3     2.585360837309     5.97180540    59.22153587
 C      7   2   4     2.710026725231   108.05010202   121.10499227
 C      2   1   3     2.710100516721   108.31607740   329.14458059
 C      1   2   7     2.610124323459    45.60101268    95.75689114
 N      1   2   7     2.556605311445    78.90256044   298.53608017
 N      9   2   1     2.600503484979   106.58526707     5.52582088
 N     12   9   2     5.527566200405   168.53581413   171.12065651
 N     13  12   9     5.583221047236    91.55032014    11.12112580
 N     14  13  12     5.528150518591    88.43092389   359.84326247
 C      8   7   2     2.654668413270   127.24786865   181.11170171
 C     13  12   9     2.582376967257    81.72106996   188.00453233
 C     14  13  12    10.882574804710    80.56209567   166.76250791
 C     17  13  12     2.757130505230   111.08861209   183.82872609
 C     18  14  13     4.558465206823    27.27532823    36.33507194
 C     20  18  14     2.650705180609    87.95206320   148.94598259
 C     21  20  18     2.611803198586   120.14573887   359.70382047
 C     18  14  13     4.623235745386   144.15733107    82.80075377
 C     19  17  13     2.557953565794   106.29293361   359.75308708
 C     13  12   9     2.582903091751   172.21332906    33.46711076
 C     18  14  13     2.609636529225    15.08449437   309.23336894
 N     22  21  20     2.556370638369   120.73759875     0.27865223
 C     25  13  17     2.666210041769   125.60330303   182.37774668
 C     14  13  12     2.601476916169    80.24689249   177.85461986
 C     14  13  12    10.892550769017   164.51507311   312.20821879
 C     29  14  13     2.712892575415   106.58649366   178.76395472
 C     30  14  13     4.560507835333    27.10625047    82.12560436
 C     32  30  14     2.652673401891    87.90059683   149.76154742
 C     33  32  30     2.609133588376   120.14881443   359.74174632
 C     34  33  32     4.627519515267   152.49203239     2.45173620
 C     31  29  14     2.585449236669   108.16950133     0.70383075
 C     14  13  12     2.600716325456   169.26375223   353.09862627
 C     30  14  13     2.609536633043    14.68948582   353.70041132
 N     34  33  32     2.556154803934   120.85575621     0.19603406
 C     37  14  29     2.654530526499   126.01551127   180.90772073
 C     15  14  13     2.582293994346    81.61824056   183.09049352
 C      2   1   3     8.029564866989   161.81189282   114.80215899
 C     41  15  14     2.758391104639   111.05201287   175.08990246
 C     42   2   1     4.559821839776    41.78584867   188.79028328
 C     44  42   2     2.652129475853    87.95153797   233.97558675
 C     45  44  42     2.611027836043   120.11137308     0.19721020
 C     42   2   1     4.629866436820   135.97209175    99.10513239
 C     43  41  15     2.559561325344   106.26758155     0.30894352
 C     15  14  13     2.584127074516   171.87382904   332.35056460
 C     42   2   1     2.611386828803    32.59078432   237.64556248
 C      9   2   1     2.655043698059   126.98745415   186.53015841
 N     42   2   1     2.556355970587   113.57249190   126.84172158
 H      1   2   7     2.045947760944   156.87729256   164.05999136
 H      2   1   3     2.040730117440   126.12730340   155.84099614
 H      4   3   1     2.048223412798   121.00876452   179.51168112
 H      5   4   3     2.045596898814   122.84823642   179.42159042
 H      6   5   4     2.064453800190   104.44400960   100.18193516
 H      6   5   4     2.059448649086    84.63973434   209.58309882
 H      6   5   4     2.058374161531   133.88513807   322.40240166
 H      7   2  54     2.040541119952   126.66122480     1.30600390
 H     10   1   2     2.047607866986   118.74522924   154.60882204
 H     12   9   2     1.920524309565   125.29023241   180.00180175
 H     14  13  12     1.917952867083    44.97226959   359.42596618
 H     18  14  13     2.046330847636   128.03556573   234.20482432
 H     19  17  13     2.042592906181   126.41830519   178.11313280
 H     21  20  18     2.047649722989   121.05669627   180.67006309
 H     22  21  20     2.045596898814   122.73097286   180.59748951
 H     23  18  14     2.063779938267   103.92715769   234.93429879
 H     23  18  14     2.057669673245   134.19244188    12.25587044
 H     23  18  14     2.059486796529    84.85857450   125.45241208
 H     24  19  17     2.041046823986   127.28078426   178.44613241
 H     26  18  14     2.047344503340   118.76995697   244.94906660
 H     30  14  13     2.046012340948   127.99711412   279.66882698
 H     31  29  14     2.040450114918   125.22293469   180.92530585
 H     33  32  30     2.046930203877   121.01964473   180.74284758
 H     34  33  32     2.045617847496   122.70821597   180.59516895
 H     35  34  33     2.064814429233   105.73575241    97.19771933
 H     35  34  33     2.058786158072    84.05943581   206.43036958
 H     35  34  33     2.058418400901   133.08365142   318.50306270
 H     36  31  29     2.039845353366   126.61599965   178.98859863
 H     38  30  73     2.047975821711   118.77264435   359.90091293
 H     42   2   1     2.045020725966   119.31790784   343.47325203
 H     43  41  15     2.041436952892   126.36969097   182.06329380
 H     45  44  42     2.047097678177   121.10105945   179.58025624
 H     46  45  44     2.045051284662   122.72144639   179.46906377
 H     47  42   2     2.062723288131   106.65128841   315.16475048
 H     47  42   2     2.057569012371   132.46019523    94.52397119
 H     47  42   2     2.058915377895    83.63838232   206.04504406
 H     48  43  41     2.041664347903   127.23657387   181.62955349
 H     50  42   2     2.046925842384   118.77001737    94.71359229

---------------------
BASIS SET INFORMATION
---------------------
There are 3 groups of distinct atoms

 Group   1 Type C   : 17s4p1d contracted to 3s2p1d pattern {881/31/1}
 Group   2 Type N   : 17s4p1d contracted to 3s2p1d pattern {881/31/1}
 Group   3 Type H   : 4s1p contracted to 2s1p pattern {31/1}

Atom   0C    basis set group =>   1
Atom   1N    basis set group =>   2
Atom   2C    basis set group =>   1
Atom   3N    basis set group =>   2
Atom   4C    basis set group =>   1
Atom   5N    basis set group =>   2
Atom   6C    basis set group =>   1
Atom   7N    basis set group =>   2
Atom   8C    basis set group =>   1
Atom   9N    basis set group =>   2
Atom  10C    basis set group =>   1
Atom  11N    basis set group =>   2
Atom  12C    basis set group =>   1
Atom  13N    basis set group =>   2
Atom  14C    basis set group =>   1
Atom  15N    basis set group =>   2
Atom  16C    basis set group =>   1
Atom  17C    basis set group =>   1
Atom  18C    basis set group =>   1
Atom  19C    basis set group =>   1
Atom  20C    basis set group =>   1
Atom  21C    basis set group =>   1
Atom  22C    basis set group =>   1
Atom  23C    basis set group =>   1
Atom  24C    basis set group =>   1
Atom  25C    basis set group =>   1
Atom  26C    basis set group =>   1
Atom  27C    basis set group =>   1
Atom  28C    basis set group =>   1
Atom  29C    basis set group =>   1
Atom  30C    basis set group =>   1
Atom  31C    basis set group =>   1
Atom  32C    basis set group =>   1
Atom  33C    basis set group =>   1
Atom  34C    basis set group =>   1
Atom  35C    basis set group =>   1
Atom  36C    basis set group =>   1
Atom  37C    basis set group =>   1
Atom  38C    basis set group =>   1
Atom  39C    basis set group =>   1
Atom  40C    basis set group =>   1
Atom  41C    basis set group =>   1
Atom  42C    basis set group =>   1
Atom  43C    basis set group =>   1
Atom  44C    basis set group =>   1
Atom  45C    basis set group =>   1
Atom  46C    basis set group =>   1
Atom  47C    basis set group =>   1
Atom  48C    basis set group =>   1
Atom  49C    basis set group =>   1
Atom  50C    basis set group =>   1
Atom  51C    basis set group =>   1
Atom  52H    basis set group =>   3
Atom  53H    basis set group =>   3
Atom  54H    basis set group =>   3
Atom  55H    basis set group =>   3
Atom  56H    basis set group =>   3
Atom  57H    basis set group =>   3
Atom  58H    basis set group =>   3
Atom  59H    basis set group =>   3
Atom  60H    basis set group =>   3
Atom  61H    basis set group =>   3
Atom  62H    basis set group =>   3
Atom  63H    basis set group =>   3
Atom  64H    basis set group =>   3
Atom  65H    basis set group =>   3
Atom  66H    basis set group =>   3
Atom  67H    basis set group =>   3
Atom  68H    basis set group =>   3
Atom  69H    basis set group =>   3
Atom  70H    basis set group =>   3
Atom  71H    basis set group =>   3
Atom  72H    basis set group =>   3
Atom  73H    basis set group =>   3
Atom  74H    basis set group =>   3
Atom  75H    basis set group =>   3
Atom  76H    basis set group =>   3
Atom  77H    basis set group =>   3
Atom  78H    basis set group =>   3
Atom  79H    basis set group =>   3
Atom  80H    basis set group =>   3
Atom  81H    basis set group =>   3
Atom  82H    basis set group =>   3
Atom  83H    basis set group =>   3
Atom  84H    basis set group =>   3
Atom  85H    basis set group =>   3
Atom  86H    basis set group =>   3
Atom  87H    basis set group =>   3
Atom  88H    basis set group =>   3
Atom  89H    basis set group =>   3


           ************************************************************
           *        Program running with 16 parallel MPI-processes    *
           *              working on a common directory               *
           ************************************************************
------------------------------------------------------------------------------
                           ORCA GTO INTEGRAL CALCULATION
------------------------------------------------------------------------------
------------------------------------------------------------------------------
                   ___                                                        
                  /   \      - P O W E R E D   B Y -                         
                 /     \                                                     
                 |  |  |   _    _      __       _____    __    __             
                 |  |  |  | |  | |    /  \     |  _  \  |  |  /  |          
                  \  \/   | |  | |   /    \    | | | |  |  | /  /          
                 / \  \   | |__| |  /  /\  \   | |_| |  |  |/  /          
                |  |  |   |  __  | /  /__\  \  |    /   |      \           
                |  |  |   | |  | | |   __   |  |    \   |  |\   \          
                \     /   | |  | | |  |  |  |  | |\  \  |  | \   \       
                 \___/    |_|  |_| |__|  |__|  |_| \__\ |__|  \__/        
                                                                              
                      - O R C A' S   B I G   F R I E N D -                    
                                      &                                       
                       - I N T E G R A L  F E E D E R -                       
                                                                              
 v1 FN, 2020, v2 2021                                                         
------------------------------------------------------------------------------


Reading SHARK input file /scratch/allen/tmpyp4_amber_gaff2/conf1/conf1/Conf217.orca.SHARKINP.tmp ... ok
----------------------
SHARK INTEGRAL PACKAGE
----------------------

Number of atoms                             ...     90
Number of basis functions                   ...   1230
Number of shells                            ...    738
Maximum angular momentum                    ...      2
Integral batch strategy                     ... SHARK/LIBINT Hybrid
RI-J (if used) integral strategy            ... SPLIT-RIJ (Revised 2003 algorithm where possible)
Printlevel                                  ...      1
Contraction scheme used                     ... PARTIAL GENERAL contraction
Coulomb Range Separation                    ... NOT USED
Exchange Range Separation                   ... NOT USED
Finite Nucleus Model                        ... NOT USED
Auxiliary Coulomb fitting basis             ... NOT available
Auxiliary J/K fitting basis                 ... NOT available
Auxiliary Correlation fitting basis         ... NOT available
Auxiliary 'external' fitting basis          ... NOT available
Integral threshold                          ...     2.500000e-11
Primitive cut-off                           ...     2.500000e-12
Primitive pair pre-selection threshold      ...     2.500000e-12

Calculating pre-screening integrals         ... done (  0.1 sec) Dimension = 738
Calculating pre-screening integrals (ORCA)  ... done (  0.3 sec) Dimension = 426
Organizing shell pair data                  ... done (  0.7 sec)
Shell pair information
Total number of shell pairs                 ...    272691
Shell pairs after pre-screening             ...     71642
Total number of primitive shell pairs       ...    422091
Primitive shell pairs kept                  ...     92467
          la=0 lb=0:  29414 shell pairs
          la=1 lb=0:  25990 shell pairs
          la=1 lb=1:   4707 shell pairs
          la=2 lb=0:   7879 shell pairs
          la=2 lb=1:   3122 shell pairs
          la=2 lb=2:    530 shell pairs

Calculating one electron integrals          ... done (  0.2 sec)
Calculating Nuclear repulsion               ... done (  0.0 sec) ENN=   6230.275257161535 Eh

SHARK setup successfully completed in   2.5 seconds

Maximum memory used throughout the entire GTOINT-calculation: 99.0 MB


           ************************************************************
           *        Program running with 16 parallel MPI-processes    *
           *              working on a common directory               *
           ************************************************************
-------------------------------------------------------------------------------
                                 ORCA SCF
-------------------------------------------------------------------------------

------------
SCF SETTINGS
------------
Hamiltonian:
 Ab initio Hamiltonian  Method          .... Hartree-Fock(GTOs)


General Settings:
 Integral files         IntName         .... /scratch/allen/tmpyp4_amber_gaff2/conf1/conf1/Conf217.orca
 Hartree-Fock type      HFTyp           .... RHF
 Total Charge           Charge          ....    0
 Multiplicity           Mult            ....    1
 Number of Electrons    NEL             ....  358
 Basis Dimension        Dim             ....  918
 Nuclear Repulsion      ENuc            ....   6230.2752571615 Eh

Convergence Acceleration:
 DIIS                   CNVDIIS         .... on
   Start iteration      DIISMaxIt       ....    12
   Startup error        DIISStart       ....  0.200000
   # of expansion vecs  DIISMaxEq       ....     5
   Bias factor          DIISBfac        ....   1.050
   Max. coefficient     DIISMaxC        ....  10.000
 Trust-Rad. Augm. Hess. CNVTRAH         .... auto
   Auto Start mean grad. ratio tolernc. ....  1.125000
   Auto Start start iteration           ....    20
   Auto Start num. interpolation iter.  ....    10
   Max. Number of Micro iterations      ....    16
   Max. Number of Macro iterations      .... Maxiter - #DIIS iter
   Number of Davidson start vectors     ....     2
   Converg. threshold I  (grad. norm)   ....   1.000e-05
   Converg. threshold II (energy diff.) ....   1.000e-08
   Grad. Scal. Fac. for Micro threshold ....   0.100
   Minimum threshold for Micro iter.    ....   0.010
   NR start threshold (gradient norm)   ....   0.001
   Initial trust radius                 ....   0.400
   Minimum AH scaling param. (alpha)    ....   1.000
   Maximum AH scaling param. (alpha)    .... 1000.000
   Orbital update algorithm             .... Taylor
   White noise on init. David. guess    .... on
   Maximum white noise                  ....   0.010
   Quad. conv. algorithm                .... NR
 SOSCF                  CNVSOSCF        .... on
   Start iteration      SOSCFMaxIt      ....   150
   Startup grad/error   SOSCFStart      ....  0.003300
 Level Shifting         CNVShift        .... on
   Level shift para.    LevelShift      ....    0.2500
   Turn off err/grad.   ShiftErr        ....    0.0010
 Zerner damping         CNVZerner       .... off
 Static damping         CNVDamp         .... on
   Fraction old density DampFac         ....    0.7000
   Max. Damping (<1)    DampMax         ....    0.9800
   Min. Damping (>=0)   DampMin         ....    0.0000
   Turn off err/grad.   DampErr         ....    0.1000
 Fernandez-Rico         CNVRico         .... off

SCF Procedure:
 Maximum # iterations   MaxIter         ....   125
 SCF integral mode      SCFMode         .... Direct
   Integral package                     .... SHARK and LIBINT hybrid scheme
 Reset frequency        DirectResetFreq ....    20
 Integral Threshold     Thresh          ....  2.500e-11 Eh
 Primitive CutOff       TCut            ....  2.500e-12 Eh

Convergence Tolerance:
 Convergence Check Mode ConvCheckMode   .... Total+1el-Energy
 Convergence forced     ConvForced      .... 1
 Energy Change          TolE            ....  1.000e-08 Eh
 1-El. energy change                    ....  1.000e-05 Eh
 Orbital Gradient       TolG            ....  1.000e-05
 Orbital Rotation angle TolX            ....  1.000e-05
 DIIS Error             TolErr          ....  5.000e-07


Diagonalization of the overlap matrix:
Smallest eigenvalue                        ... 2.205e-04
Time for diagonalization                   ...    0.481 sec
Threshold for overlap eigenvalues          ... 1.000e-08
Number of eigenvalues below threshold      ... 0
Time for construction of square roots      ...    0.273 sec
Total time needed                          ...    0.761 sec

Time for model grid setup =    1.297 sec

------------------------------
INITIAL GUESS: MODEL POTENTIAL
------------------------------
Loading Hartree-Fock densities                     ... done
Calculating cut-offs                               ... done
Initializing the effective Hamiltonian             ... done
Setting up the integral package (SHARK)            ... done
Starting the Coulomb interaction                   ... done (   1.4 sec)
Reading the grid                                   ... done
Mapping shells                                     ... done
Starting the XC term evaluation                    ... done (   0.2 sec)
Transforming the Hamiltonian                       ... done (   0.3 sec)
Diagonalizing the Hamiltonian                      ... done (   0.4 sec)
Back transforming the eigenvectors                 ... done (   0.1 sec)
Now organizing SCF variables                       ... done
                      ------------------
                      INITIAL GUESS DONE (   3.8 sec)
                      ------------------
--------------
SCF ITERATIONS
--------------
ITER       Energy         Delta-E        Max-DP      RMS-DP      [F,P]     Damp
               ***  Starting incremental Fock matrix formation  ***
  0  -2121.6858089320   0.000000000000 0.06917744  0.00121615  0.2322645 0.7000
  1  -2122.3417793861  -0.655970454078 0.05238347  0.00098911  0.1438560 0.7000
                               ***Turning on DIIS***
  2  -2122.7495420386  -0.407762652456 0.12292563  0.00224349  0.0802363 0.0000
  3  -2117.8988865926   4.850655445987 0.03586934  0.00067698  0.0439403 0.0000
  4  -2123.4224316100  -5.523545017455 0.01125866  0.00022653  0.0077890 0.0000
  5  -2123.5836522509  -0.161220640905 0.00554293  0.00013317  0.0049637 0.0000
  6  -2123.5673692657   0.016282985283 0.00365136  0.00008560  0.0019938 0.0000
  7  -2123.6661616178  -0.098792352186 0.00301185  0.00006731  0.0015619 0.0000
  8  -2123.6782194358  -0.012057817908 0.00315332  0.00006338  0.0014565 0.0000
  9  -2123.6470042265   0.031215209206 0.00251701  0.00004399  0.0011637 0.0000
 10  -2123.6571036912  -0.010099464620 0.00506770  0.00009039  0.0008989 0.0000
                      *** Initiating the SOSCF procedure ***
                           *** Shutting down DIIS ***
                      *** Re-Reading the Fockian *** 
                      *** Removing any level shift *** 
ITER      Energy       Delta-E        Grad      Rot      Max-DP    RMS-DP
 11  -2123.54663321   0.1104704797  0.000205  0.000205  0.000243  0.000005
               *** Restarting incremental Fock matrix formation ***
 12  -2123.61285389  -0.0662206831  0.000877  0.005894  0.001286  0.000033
 13  -2123.61294959  -0.0000956905  0.001062  0.028867  0.006092  0.000128
 14  -2123.61311316  -0.0001635782  0.000349  0.001996  0.000601  0.000012
 15  -2123.61312907  -0.0000159032  0.000170  0.003298  0.000869  0.000019
 16  -2123.61313921  -0.0000101475  0.000166  0.003302  0.000518  0.000011
 17  -2123.61314279  -0.0000035809  0.000149  0.002179  0.000354  0.000008
 18  -2123.61314475  -0.0000019596  0.000077  0.000961  0.000314  0.000005
 19  -2123.61314567  -0.0000009130  0.000047  0.000720  0.000168  0.000003
 20  -2123.61314598  -0.0000003082  0.000026  0.000455  0.000102  0.000002
 21  -2123.61314615  -0.0000001727  0.000026  0.000549  0.000119  0.000002
 22  -2123.61314627  -0.0000001201  0.000020  0.000528  0.000102  0.000002
 23  -2123.61314634  -0.0000000694  0.000010  0.000347  0.000065  0.000001
 24  -2123.61314637  -0.0000000368  0.000006  0.000259  0.000044  0.000001
 25  -2123.61314640  -0.0000000230  0.000007  0.000177  0.000029  0.000001
 26  -2123.61314641  -0.0000000132  0.000005  0.000180  0.000029  0.000001
 27  -2123.61314642  -0.0000000065  0.000004  0.000150  0.000025  0.000001
                  ***Gradient check signals convergence***
              ***Rediagonalizing the Fockian in SOSCF/NRSCF***

               *****************************************************
               *                     SUCCESS                       *
               *           SCF CONVERGED AFTER  28 CYCLES          *
               *****************************************************


----------------
TOTAL SCF ENERGY
----------------

Total Energy       :        -2123.61314642 Eh          -57786.45152 eV

Components:
Nuclear Repulsion  :         6230.27525716 Eh          169534.40871 eV
Electronic Energy  :        -8353.88840358 Eh         -227320.86023 eV
One Electron Energy:       -15301.36793606 Eh         -416371.38945 eV
Two Electron Energy:         6947.47953248 Eh          189050.52922 eV

Virial components:
Potential Energy   :        -4245.75440742 Eh         -115532.85100 eV
Kinetic Energy     :         2122.14126100 Eh           57746.39948 eV
Virial Ratio       :            2.00069359


---------------
SCF CONVERGENCE
---------------

  Last Energy change         ...   -2.1791e-09  Tolerance :   1.0000e-08
  Last MAX-Density change    ...    1.4259e-05  Tolerance :   1.0000e-07
  Last RMS-Density change    ...    3.3186e-07  Tolerance :   5.0000e-09
  Last Orbital Gradient      ...    2.3763e-06  Tolerance :   1.0000e-05
  Last Orbital Rotation      ...    9.5448e-05  Tolerance :   1.0000e-05

             **** THE GBW FILE WAS UPDATED (/scratch/allen/tmpyp4_amber_gaff2/conf1/conf1/Conf217.orca.gbw) ****
             **** DENSITY /scratch/allen/tmpyp4_amber_gaff2/conf1/conf1/Conf217.orca.scfp WAS UPDATED ****
             **** ENERGY FILE WAS UPDATED (/scratch/allen/tmpyp4_amber_gaff2/conf1/conf1/Conf217.orca.en.tmp) ****
             **** THE GBW FILE WAS UPDATED (/scratch/allen/tmpyp4_amber_gaff2/conf1/conf1/Conf217.orca.gbw) ****
             **** DENSITY /scratch/allen/tmpyp4_amber_gaff2/conf1/conf1/Conf217.orca.scfp WAS UPDATED ****
----------------
ORBITAL ENERGIES
----------------

  NO   OCC          E(Eh)            E(eV) 
   0   2.0000     -15.668599      -426.3643 
   1   2.0000     -15.635645      -425.4675 
   2   2.0000     -15.630308      -425.3223 
   3   2.0000     -15.594964      -424.3605 
   4   2.0000     -15.524058      -422.4311 
   5   2.0000     -15.516350      -422.2214 
   6   2.0000     -15.451340      -420.4523 
   7   2.0000     -15.442047      -420.1995 
   8   2.0000     -11.321020      -308.0606 
   9   2.0000     -11.320365      -308.0428 
  10   2.0000     -11.318677      -307.9969 
  11   2.0000     -11.300361      -307.4984 
  12   2.0000     -11.297334      -307.4161 
  13   2.0000     -11.293815      -307.3203 
  14   2.0000     -11.289203      -307.1948 
  15   2.0000     -11.288598      -307.1784 
  16   2.0000     -11.285808      -307.1024 
  17   2.0000     -11.275792      -306.8299 
  18   2.0000     -11.271543      -306.7143 
  19   2.0000     -11.259156      -306.3772 
  20   2.0000     -11.258917      -306.3707 
  21   2.0000     -11.255517      -306.2782 
  22   2.0000     -11.254575      -306.2525 
  23   2.0000     -11.239221      -305.8348 
  24   2.0000     -11.235063      -305.7216 
  25   2.0000     -11.232396      -305.6490 
  26   2.0000     -11.231597      -305.6273 
  27   2.0000     -11.228554      -305.5445 
  28   2.0000     -11.228458      -305.5419 
  29   2.0000     -11.208605      -305.0016 
  30   2.0000     -11.207455      -304.9704 
  31   2.0000     -11.204398      -304.8872 
  32   2.0000     -11.198847      -304.7361 
  33   2.0000     -11.196454      -304.6710 
  34   2.0000     -11.190691      -304.5142 
  35   2.0000     -11.189926      -304.4934 
  36   2.0000     -11.186511      -304.4005 
  37   2.0000     -11.183822      -304.3273 
  38   2.0000     -11.182862      -304.3011 
  39   2.0000     -11.172856      -304.0289 
  40   2.0000     -11.170750      -303.9716 
  41   2.0000     -11.169622      -303.9409 
  42   2.0000     -11.166316      -303.8509 
  43   2.0000     -11.162691      -303.7523 
  44   2.0000     -11.160786      -303.7004 
  45   2.0000     -11.159368      -303.6619 
  46   2.0000     -11.156844      -303.5932 
  47   2.0000     -11.152535      -303.4759 
  48   2.0000     -11.148981      -303.3792 
  49   2.0000     -11.142333      -303.1983 
  50   2.0000     -11.134288      -302.9794 
  51   2.0000     -11.126172      -302.7585 
  52   2.0000      -1.350863       -36.7589 
  53   2.0000      -1.322654       -35.9913 
  54   2.0000      -1.318257       -35.8716 
  55   2.0000      -1.288452       -35.0606 
  56   2.0000      -1.224305       -33.3150 
  57   2.0000      -1.210997       -32.9529 
  58   2.0000      -1.169871       -31.8338 
  59   2.0000      -1.153223       -31.3808 
  60   2.0000      -1.135640       -30.9023 
  61   2.0000      -1.111319       -30.2405 
  62   2.0000      -1.107829       -30.1456 
  63   2.0000      -1.083846       -29.4929 
  64   2.0000      -1.073240       -29.2044 
  65   2.0000      -1.046751       -28.4836 
  66   2.0000      -1.042987       -28.3811 
  67   2.0000      -1.035887       -28.1879 
  68   2.0000      -1.016854       -27.6700 
  69   2.0000      -1.014005       -27.5925 
  70   2.0000      -1.009815       -27.4784 
  71   2.0000      -0.992409       -27.0048 
  72   2.0000      -0.987419       -26.8690 
  73   2.0000      -0.978221       -26.6188 
  74   2.0000      -0.972748       -26.4698 
  75   2.0000      -0.960137       -26.1267 
  76   2.0000      -0.952036       -25.9062 
  77   2.0000      -0.947359       -25.7789 
  78   2.0000      -0.935604       -25.4591 
  79   2.0000      -0.920474       -25.0474 
  80   2.0000      -0.902925       -24.5698 
  81   2.0000      -0.892329       -24.2815 
  82   2.0000      -0.874481       -23.7958 
  83   2.0000      -0.871266       -23.7083 
  84   2.0000      -0.867227       -23.5985 
  85   2.0000      -0.856069       -23.2948 
  86   2.0000      -0.842803       -22.9338 
  87   2.0000      -0.837129       -22.7794 
  88   2.0000      -0.823303       -22.4032 
  89   2.0000      -0.798345       -21.7241 
  90   2.0000      -0.793361       -21.5885 
  91   2.0000      -0.747453       -20.3392 
  92   2.0000      -0.739620       -20.1261 
  93   2.0000      -0.732184       -19.9237 
  94   2.0000      -0.723257       -19.6808 
  95   2.0000      -0.721183       -19.6244 
  96   2.0000      -0.714661       -19.4469 
  97   2.0000      -0.708574       -19.2813 
  98   2.0000      -0.704523       -19.1710 
  99   2.0000      -0.696109       -18.9421 
 100   2.0000      -0.695325       -18.9208 
 101   2.0000      -0.682992       -18.5852 
 102   2.0000      -0.678819       -18.4716 
 103   2.0000      -0.676968       -18.4212 
 104   2.0000      -0.676908       -18.4196 
 105   2.0000      -0.672273       -18.2935 
 106   2.0000      -0.667074       -18.1520 
 107   2.0000      -0.661789       -18.0082 
 108   2.0000      -0.655138       -17.8272 
 109   2.0000      -0.654149       -17.8003 
 110   2.0000      -0.650071       -17.6893 
 111   2.0000      -0.644516       -17.5382 
 112   2.0000      -0.641610       -17.4591 
 113   2.0000      -0.638085       -17.3632 
 114   2.0000      -0.637912       -17.3585 
 115   2.0000      -0.627749       -17.0819 
 116   2.0000      -0.626150       -17.0384 
 117   2.0000      -0.617235       -16.7958 
 118   2.0000      -0.613651       -16.6983 
 119   2.0000      -0.612042       -16.6545 
 120   2.0000      -0.610236       -16.6054 
 121   2.0000      -0.604403       -16.4466 
 122   2.0000      -0.600613       -16.3435 
 123   2.0000      -0.587508       -15.9869 
 124   2.0000      -0.583455       -15.8766 
 125   2.0000      -0.581273       -15.8172 
 126   2.0000      -0.579461       -15.7679 
 127   2.0000      -0.577238       -15.7074 
 128   2.0000      -0.564938       -15.3727 
 129   2.0000      -0.558786       -15.2053 
 130   2.0000      -0.552930       -15.0460 
 131   2.0000      -0.548050       -14.9132 
 132   2.0000      -0.542124       -14.7520 
 133   2.0000      -0.538437       -14.6516 
 134   2.0000      -0.537818       -14.6348 
 135   2.0000      -0.535206       -14.5637 
 136   2.0000      -0.526729       -14.3330 
 137   2.0000      -0.524409       -14.2699 
 138   2.0000      -0.516800       -14.0629 
 139   2.0000      -0.513931       -13.9848 
 140   2.0000      -0.511798       -13.9267 
 141   2.0000      -0.511110       -13.9080 
 142   2.0000      -0.508940       -13.8490 
 143   2.0000      -0.503116       -13.6905 
 144   2.0000      -0.501556       -13.6480 
 145   2.0000      -0.497683       -13.5426 
 146   2.0000      -0.493987       -13.4421 
 147   2.0000      -0.485235       -13.2039 
 148   2.0000      -0.481719       -13.1082 
 149   2.0000      -0.467680       -12.7262 
 150   2.0000      -0.464982       -12.6528 
 151   2.0000      -0.456830       -12.4310 
 152   2.0000      -0.449566       -12.2333 
 153   2.0000      -0.445785       -12.1304 
 154   2.0000      -0.442774       -12.0485 
 155   2.0000      -0.438762       -11.9393 
 156   2.0000      -0.430370       -11.7110 
 157   2.0000      -0.422271       -11.4906 
 158   2.0000      -0.402455       -10.9513 
 159   2.0000      -0.387923       -10.5559 
 160   2.0000      -0.380411       -10.3515 
 161   2.0000      -0.378057       -10.2875 
 162   2.0000      -0.370168       -10.0728 
 163   2.0000      -0.357711        -9.7338 
 164   2.0000      -0.354733        -9.6528 
 165   2.0000      -0.339226        -9.2308 
 166   2.0000      -0.337262        -9.1774 
 167   2.0000      -0.328688        -8.9441 
 168   2.0000      -0.326725        -8.8906 
 169   2.0000      -0.302946        -8.2436 
 170   2.0000      -0.299804        -8.1581 
 171   2.0000      -0.286651        -7.8002 
 172   2.0000      -0.283403        -7.7118 
 173   2.0000      -0.261504        -7.1159 
 174   2.0000      -0.244165        -6.6441 
 175   2.0000      -0.189688        -5.1617 
 176   2.0000      -0.179965        -4.8971 
 177   2.0000      -0.073878        -2.0103 
 178   2.0000      -0.057679        -1.5695 
 179   0.0000       0.028807         0.7839 
 180   0.0000       0.067228         1.8294 
 181   0.0000       0.091714         2.4957 
 182   0.0000       0.107388         2.9222 
 183   0.0000       0.113604         3.0913 
 184   0.0000       0.136112         3.7038 
 185   0.0000       0.140213         3.8154 
 186   0.0000       0.146762         3.9936 
 187   0.0000       0.162709         4.4275 
 188   0.0000       0.164231         4.4690 
 189   0.0000       0.166387         4.5276 
 190   0.0000       0.166636         4.5344 
 191   0.0000       0.184476         5.0199 
 192   0.0000       0.186276         5.0688 
 193   0.0000       0.189677         5.1614 
 194   0.0000       0.204052         5.5525 
 195   0.0000       0.206469         5.6183 
 196   0.0000       0.207361         5.6426 
 197   0.0000       0.209499         5.7007 
 198   0.0000       0.221980         6.0404 
 199   0.0000       0.224485         6.1085 
 200   0.0000       0.228479         6.2172 
 201   0.0000       0.238056         6.4778 
 202   0.0000       0.239756         6.5241 
 203   0.0000       0.240645         6.5483 
 204   0.0000       0.249881         6.7996 
 205   0.0000       0.255911         6.9637 
 206   0.0000       0.257323         7.0021 
 207   0.0000       0.259325         7.0566 
 208   0.0000       0.260663         7.0930 
 209   0.0000       0.261232         7.1085 
 210   0.0000       0.263619         7.1734 
 211   0.0000       0.269979         7.3465 
 212   0.0000       0.270580         7.3628 
 213   0.0000       0.272602         7.4179 
 214   0.0000       0.274705         7.4751 
 215   0.0000       0.276397         7.5211 
 216   0.0000       0.278667         7.5829 
 217   0.0000       0.280603         7.6356 
 218   0.0000       0.285079         7.7574 
 219   0.0000       0.288766         7.8577 
 220   0.0000       0.289440         7.8761 
 221   0.0000       0.292576         7.9614 
 222   0.0000       0.294424         8.0117 
 223   0.0000       0.296276         8.0621 
 224   0.0000       0.298189         8.1141 
 225   0.0000       0.298770         8.1299 
 226   0.0000       0.305929         8.3248 
 227   0.0000       0.308373         8.3913 
 228   0.0000       0.310193         8.4408 
 229   0.0000       0.323520         8.8034 
 230   0.0000       0.324347         8.8259 
 231   0.0000       0.328323         8.9341 
 232   0.0000       0.330556         8.9949 
 233   0.0000       0.338315         9.2060 
 234   0.0000       0.348601         9.4859 
 235   0.0000       0.350925         9.5492 
 236   0.0000       0.363457         9.8902 
 237   0.0000       0.379708        10.3324 
 238   0.0000       0.394508        10.7351 
 239   0.0000       0.397331        10.8119 
 240   0.0000       0.400861        10.9080 
 241   0.0000       0.412828        11.2336 
 242   0.0000       0.417771        11.3681 
 243   0.0000       0.420079        11.4309 
 244   0.0000       0.429272        11.6811 
 245   0.0000       0.433336        11.7917 
 246   0.0000       0.436025        11.8648 
 247   0.0000       0.440550        11.9880 
 248   0.0000       0.442185        12.0325 
 249   0.0000       0.448881        12.2147 
 250   0.0000       0.450744        12.2654 
 251   0.0000       0.458520        12.4770 
 252   0.0000       0.462813        12.5938 
 253   0.0000       0.469649        12.7798 
 254   0.0000       0.471931        12.8419 
 255   0.0000       0.473096        12.8736 
 256   0.0000       0.480219        13.0674 
 257   0.0000       0.481942        13.1143 
 258   0.0000       0.486970        13.2511 
 259   0.0000       0.498653        13.5690 
 260   0.0000       0.503120        13.6906 
 261   0.0000       0.504717        13.7340 
 262   0.0000       0.506902        13.7935 
 263   0.0000       0.508936        13.8489 
 264   0.0000       0.513919        13.9845 
 265   0.0000       0.519240        14.1292 
 266   0.0000       0.523792        14.2531 
 267   0.0000       0.525798        14.3077 
 268   0.0000       0.532997        14.5036 
 269   0.0000       0.537648        14.6302 
 270   0.0000       0.540686        14.7128 
 271   0.0000       0.547080        14.8868 
 272   0.0000       0.550505        14.9800 
 273   0.0000       0.558619        15.2008 
 274   0.0000       0.560640        15.2558 
 275   0.0000       0.566062        15.4033 
 276   0.0000       0.569317        15.4919 
 277   0.0000       0.572452        15.5772 
 278   0.0000       0.578293        15.7362 
 279   0.0000       0.586207        15.9515 
 280   0.0000       0.589320        16.0362 
 281   0.0000       0.592111        16.1122 
 282   0.0000       0.593970        16.1627 
 283   0.0000       0.596595        16.2342 
 284   0.0000       0.598346        16.2818 
 285   0.0000       0.600849        16.3499 
 286   0.0000       0.607898        16.5417 
 287   0.0000       0.611547        16.6410 
 288   0.0000       0.612935        16.6788 
 289   0.0000       0.622641        16.9429 
 290   0.0000       0.628080        17.0909 
 291   0.0000       0.629369        17.1260 
 292   0.0000       0.633494        17.2383 
 293   0.0000       0.635535        17.2938 
 294   0.0000       0.646774        17.5996 
 295   0.0000       0.648695        17.6519 
 296   0.0000       0.653688        17.7877 
 297   0.0000       0.656683        17.8693 
 298   0.0000       0.664883        18.0924 
 299   0.0000       0.666938        18.1483 
 300   0.0000       0.669479        18.2175 
 301   0.0000       0.672491        18.2994 
 302   0.0000       0.677934        18.4475 
 303   0.0000       0.679509        18.4904 
 304   0.0000       0.681894        18.5553 
 305   0.0000       0.687736        18.7142 
 306   0.0000       0.689527        18.7630 
 307   0.0000       0.691204        18.8086 
 308   0.0000       0.696520        18.9533 
 309   0.0000       0.698072        18.9955 
 310   0.0000       0.702066        19.1042 
 311   0.0000       0.703558        19.1448 
 312   0.0000       0.705530        19.1985 
 313   0.0000       0.710316        19.3287 
 314   0.0000       0.711529        19.3617 
 315   0.0000       0.714779        19.4501 
 316   0.0000       0.717347        19.5200 
 317   0.0000       0.718936        19.5632 
 318   0.0000       0.721457        19.6319 
 319   0.0000       0.723765        19.6947 
 320   0.0000       0.725753        19.7487 
 321   0.0000       0.729836        19.8598 
 322   0.0000       0.732278        19.9263 
 323   0.0000       0.736613        20.0443 
 324   0.0000       0.737285        20.0626 
 325   0.0000       0.739347        20.1186 
 326   0.0000       0.742777        20.2120 
 327   0.0000       0.746310        20.3081 
 328   0.0000       0.749473        20.3942 
 329   0.0000       0.750822        20.4309 
 330   0.0000       0.753419        20.5016 
 331   0.0000       0.755878        20.5685 
 332   0.0000       0.757627        20.6161 
 333   0.0000       0.761367        20.7179 
 334   0.0000       0.768587        20.9143 
 335   0.0000       0.771771        21.0010 
 336   0.0000       0.774157        21.0659 
 337   0.0000       0.783507        21.3203 
 338   0.0000       0.786961        21.4143 
 339   0.0000       0.788026        21.4433 
 340   0.0000       0.789613        21.4865 
 341   0.0000       0.795050        21.6344 
 342   0.0000       0.797854        21.7107 
 343   0.0000       0.802214        21.8293 
 344   0.0000       0.806779        21.9536 
 345   0.0000       0.807785        21.9810 
 346   0.0000       0.808815        22.0090 
 347   0.0000       0.810884        22.0653 
 348   0.0000       0.812252        22.1025 
 349   0.0000       0.818558        22.2741 
 350   0.0000       0.820453        22.3257 
 351   0.0000       0.821366        22.3505 
 352   0.0000       0.824901        22.4467 
 353   0.0000       0.826515        22.4906 
 354   0.0000       0.828398        22.5418 
 355   0.0000       0.831602        22.6290 
 356   0.0000       0.832122        22.6432 
 357   0.0000       0.835826        22.7440 
 358   0.0000       0.836847        22.7718 
 359   0.0000       0.838509        22.8170 
 360   0.0000       0.839480        22.8434 
 361   0.0000       0.842920        22.9370 
 362   0.0000       0.844377        22.9767 
 363   0.0000       0.844651        22.9841 
 364   0.0000       0.849044        23.1037 
 365   0.0000       0.853197        23.2167 
 366   0.0000       0.856989        23.3198 
 367   0.0000       0.859155        23.3788 
 368   0.0000       0.862405        23.4672 
 369   0.0000       0.865214        23.5437 
 370   0.0000       0.869602        23.6631 
 371   0.0000       0.874018        23.7832 
 372   0.0000       0.874677        23.8012 
 373   0.0000       0.877581        23.8802 
 374   0.0000       0.879478        23.9318 
 375   0.0000       0.883266        24.0349 
 376   0.0000       0.884391        24.0655 
 377   0.0000       0.887579        24.1523 
 378   0.0000       0.890082        24.2204 
 379   0.0000       0.893984        24.3266 
 380   0.0000       0.896347        24.3909 
 381   0.0000       0.900109        24.4932 
 382   0.0000       0.901494        24.5309 
 383   0.0000       0.902273        24.5521 
 384   0.0000       0.903839        24.5947 
 385   0.0000       0.905026        24.6270 
 386   0.0000       0.907945        24.7064 
 387   0.0000       0.909333        24.7442 
 388   0.0000       0.910641        24.7798 
 389   0.0000       0.916792        24.9472 
 390   0.0000       0.920153        25.0386 
 391   0.0000       0.921597        25.0779 
 392   0.0000       0.923723        25.1358 
 393   0.0000       0.926484        25.2109 
 394   0.0000       0.929248        25.2861 
 395   0.0000       0.930253        25.3135 
 396   0.0000       0.931091        25.3363 
 397   0.0000       0.935808        25.4646 
 398   0.0000       0.939775        25.5726 
 399   0.0000       0.942705        25.6523 
 400   0.0000       0.944866        25.7111 
 401   0.0000       0.947612        25.7858 
 402   0.0000       0.952447        25.9174 
 403   0.0000       0.956159        26.0184 
 404   0.0000       0.959368        26.1057 
 405   0.0000       0.961610        26.1667 
 406   0.0000       0.963980        26.2312 
 407   0.0000       0.967426        26.3250 
 408   0.0000       0.968981        26.3673 
 409   0.0000       0.978145        26.6167 
 410   0.0000       0.981057        26.6959 
 411   0.0000       0.985666        26.8213 
 412   0.0000       0.989305        26.9204 
 413   0.0000       0.993729        27.0407 
 414   0.0000       0.995896        27.0997 
 415   0.0000       0.996479        27.1156 
 416   0.0000       1.003001        27.2931 
 417   0.0000       1.011465        27.5234 
 418   0.0000       1.016247        27.6535 
 419   0.0000       1.019883        27.7524 
 420   0.0000       1.027077        27.9482 
 421   0.0000       1.031387        28.0655 
 422   0.0000       1.034077        28.1387 
 423   0.0000       1.042933        28.3797 
 424   0.0000       1.048342        28.5268 
 425   0.0000       1.050129        28.5755 
 426   0.0000       1.058472        28.8025 
 427   0.0000       1.064035        28.9539 
 428   0.0000       1.069859        29.1124 
 429   0.0000       1.077667        29.3248 
 430   0.0000       1.079642        29.3786 
 431   0.0000       1.083632        29.4871 
 432   0.0000       1.086448        29.5638 
 433   0.0000       1.090547        29.6753 
 434   0.0000       1.099752        29.9258 
 435   0.0000       1.100620        29.9494 
 436   0.0000       1.106397        30.1066 
 437   0.0000       1.111020        30.2324 
 438   0.0000       1.114679        30.3320 
 439   0.0000       1.118506        30.4361 
 440   0.0000       1.120417        30.4881 
 441   0.0000       1.122576        30.5468 
 442   0.0000       1.124483        30.5987 
 443   0.0000       1.128128        30.6979 
 444   0.0000       1.132651        30.8210 
 445   0.0000       1.135831        30.9075 
 446   0.0000       1.141038        31.0492 
 447   0.0000       1.143711        31.1220 
 448   0.0000       1.145874        31.1808 
 449   0.0000       1.149563        31.2812 
 450   0.0000       1.151964        31.3465 
 451   0.0000       1.155988        31.4560 
 452   0.0000       1.158518        31.5249 
 453   0.0000       1.163338        31.6560 
 454   0.0000       1.164977        31.7006 
 455   0.0000       1.170306        31.8456 
 456   0.0000       1.172189        31.8969 
 457   0.0000       1.176085        32.0029 
 458   0.0000       1.180331        32.1184 
 459   0.0000       1.185162        32.2499 
 460   0.0000       1.186638        32.2901 
 461   0.0000       1.197036        32.5730 
 462   0.0000       1.201505        32.6946 
 463   0.0000       1.204611        32.7791 
 464   0.0000       1.207864        32.8677 
 465   0.0000       1.209801        32.9204 
 466   0.0000       1.215843        33.0848 
 467   0.0000       1.217735        33.1362 
 468   0.0000       1.221762        33.2458 
 469   0.0000       1.226310        33.3696 
 470   0.0000       1.229494        33.4562 
 471   0.0000       1.231794        33.5188 
 472   0.0000       1.234470        33.5916 
 473   0.0000       1.234668        33.5970 
 474   0.0000       1.242950        33.8224 
 475   0.0000       1.244347        33.8604 
 476   0.0000       1.248841        33.9827 
 477   0.0000       1.250701        34.0333 
 478   0.0000       1.251140        34.0452 
 479   0.0000       1.254273        34.1305 
 480   0.0000       1.258742        34.2521 
 481   0.0000       1.264683        34.4138 
 482   0.0000       1.265391        34.4330 
 483   0.0000       1.270096        34.5611 
 484   0.0000       1.272118        34.6161 
 485   0.0000       1.277632        34.7661 
 486   0.0000       1.281582        34.8736 
 487   0.0000       1.284329        34.9484 
 488   0.0000       1.287277        35.0286 
 489   0.0000       1.291149        35.1340 
 490   0.0000       1.292956        35.1831 
 491   0.0000       1.297343        35.3025 
 492   0.0000       1.299900        35.3721 
 493   0.0000       1.309473        35.6326 
 494   0.0000       1.311176        35.6789 
 495   0.0000       1.315083        35.7852 
 496   0.0000       1.321448        35.9584 
 497   0.0000       1.322945        35.9992 
 498   0.0000       1.325502        36.0687 
 499   0.0000       1.330084        36.1934 
 500   0.0000       1.330814        36.2133 
 501   0.0000       1.334877        36.3238 
 502   0.0000       1.337123        36.3850 
 503   0.0000       1.343816        36.5671 
 504   0.0000       1.346073        36.6285 
 505   0.0000       1.350708        36.7546 
 506   0.0000       1.352893        36.8141 
 507   0.0000       1.358028        36.9538 
 508   0.0000       1.358958        36.9791 
 509   0.0000       1.361395        37.0454 
[...]
      pz      :     0.022078  p :     0.079724
      px      :     0.043529
      py      :     0.014116
 77 H s       :     0.885767  s :     0.885767
      pz      :     0.047884  p :     0.079182
      px      :     0.015020
      py      :     0.016278
 78 H s       :     0.886138  s :     0.886138
      pz      :     0.025834  p :     0.079140
      px      :     0.020482
      py      :     0.032824
 79 H s       :     0.910219  s :     0.910219
      pz      :     0.021891  p :     0.086428
      px      :     0.021688
      py      :     0.042849
 80 H s       :     0.866162  s :     0.866162
      pz      :     0.039249  p :     0.084632
      px      :     0.030184
      py      :     0.015199
 81 H s       :     0.887078  s :     0.887078
      pz      :     0.037792  p :     0.084063
      px      :     0.016183
      py      :     0.030088
 82 H s       :     0.915776  s :     0.915776
      pz      :     0.021990  p :     0.086759
      px      :     0.031576
      py      :     0.033194
 83 H s       :     0.873265  s :     0.873265
      pz      :     0.039268  p :     0.084054
      px      :     0.015270
      py      :     0.029515
 84 H s       :     0.886846  s :     0.886846
      pz      :     0.035774  p :     0.083516
      px      :     0.031700
      py      :     0.016042
 85 H s       :     0.893110  s :     0.893110
      pz      :     0.022492  p :     0.079775
      px      :     0.014077
      py      :     0.043206
 86 H s       :     0.890980  s :     0.890980
      pz      :     0.024727  p :     0.078833
      px      :     0.032980
      py      :     0.021125
 87 H s       :     0.890037  s :     0.890037
      pz      :     0.047992  p :     0.078723
      px      :     0.015593
      py      :     0.015138
 88 H s       :     0.911333  s :     0.911333
      pz      :     0.021721  p :     0.086998
      px      :     0.042839
      py      :     0.022438
 89 H s       :     0.871865  s :     0.871865
      pz      :     0.037916  p :     0.083820
      px      :     0.030461
      py      :     0.015443


                      *****************************
                      * MAYER POPULATION ANALYSIS *
                      *****************************

  NA   - Mulliken gross atomic population
  ZA   - Total nuclear charge
  QA   - Mulliken gross atomic charge
  VA   - Mayer's total valence
  BVA  - Mayer's bonded valence
  FA   - Mayer's free valence

  ATOM       NA         ZA         QA         VA         BVA        FA
  0 C      5.7913     6.0000     0.2087     3.8380     3.8380     0.0000
  1 N      7.4542     7.0000    -0.4542     3.3337     3.3337    -0.0000
  2 C      6.0637     6.0000    -0.0637     3.9198     3.9198     0.0000
  3 N      7.3364     7.0000    -0.3364     3.4564     3.4564     0.0000
  4 C      6.0494     6.0000    -0.0494     4.0117     4.0117    -0.0000
  5 N      7.5634     7.0000    -0.5634     3.0931     3.0931    -0.0000
  6 C      6.1111     6.0000    -0.1111     4.0041     4.0041     0.0000
  7 N      7.3398     7.0000    -0.3398     3.4356     3.4356    -0.0000
  8 C      5.7941     6.0000     0.2059     3.8402     3.8402     0.0000
  9 N      7.5625     7.0000    -0.5625     3.0788     3.0788     0.0000
 10 C      5.8814     6.0000     0.1186     3.9072     3.9072    -0.0000
 11 N      7.4381     7.0000    -0.4381     3.3799     3.3799    -0.0000
 12 C      6.0838     6.0000    -0.0838     3.9069     3.9069    -0.0000
 13 N      7.4321     7.0000    -0.4321     3.4160     3.4160    -0.0000
 14 C      5.7630     6.0000     0.2370     3.7820     3.7820    -0.0000
 15 N      7.4411     7.0000    -0.4411     3.3712     3.3712    -0.0000
 16 C      5.7718     6.0000     0.2282     3.7817     3.7817     0.0000
 17 C      6.1101     6.0000    -0.1101     4.0003     4.0003    -0.0000
 18 C      6.2010     6.0000    -0.2010     3.7690     3.7690    -0.0000
 19 C      5.7695     6.0000     0.2305     3.8601     3.8601    -0.0000
 20 C      5.7875     6.0000     0.2125     3.8284     3.8284    -0.0000
 21 C      6.0950     6.0000    -0.0950     3.8938     3.8938    -0.0000
 22 C      6.0906     6.0000    -0.0906     3.9827     3.9827    -0.0000
 23 C      6.0414     6.0000    -0.0414     3.9922     3.9922    -0.0000
 24 C      5.8036     6.0000     0.1964     3.8217     3.8217    -0.0000
 25 C      5.8856     6.0000     0.1144     3.8910     3.8910     0.0000
 26 C      6.0773     6.0000    -0.0773     3.9095     3.9095    -0.0000
 27 C      5.7863     6.0000     0.2137     3.8669     3.8669    -0.0000
 28 C      6.0597     6.0000    -0.0597     3.9884     3.9884    -0.0000
 29 C      6.1804     6.0000    -0.1804     3.7436     3.7436     0.0000
 30 C      5.7564     6.0000     0.2436     3.7988     3.7988    -0.0000
 31 C      5.7743     6.0000     0.2257     3.8200     3.8200    -0.0000
 32 C      6.0625     6.0000    -0.0625     3.9221     3.9221     0.0000
 33 C      6.0656     6.0000    -0.0656     3.9756     3.9756     0.0000
 34 C      6.0505     6.0000    -0.0505     3.9858     3.9858    -0.0000
 35 C      5.7780     6.0000     0.2220     3.8189     3.8189    -0.0000
 36 C      5.8903     6.0000     0.1097     3.8790     3.8790    -0.0000
 37 C      6.0650     6.0000    -0.0650     3.9176     3.9176     0.0000
 38 C      5.7671     6.0000     0.2329     3.8002     3.8002    -0.0000
 39 C      6.0588     6.0000    -0.0588     3.9851     3.9851     0.0000
 40 C      6.1831     6.0000    -0.1831     3.7308     3.7308     0.0000
 41 C      5.7754     6.0000     0.2246     3.8852     3.8852    -0.0000
 42 C      5.8016     6.0000     0.1984     3.8264     3.8264    -0.0000
 43 C      6.0726     6.0000    -0.0726     3.9006     3.9006     0.0000
 44 C      6.0898     6.0000    -0.0898     3.9850     3.9850    -0.0000
 45 C      6.0593     6.0000    -0.0593     3.9925     3.9925     0.0000
 46 C      5.7906     6.0000     0.2094     3.8280     3.8280    -0.0000
 47 C      5.8845     6.0000     0.1155     3.8933     3.8933    -0.0000
 48 C      6.0687     6.0000    -0.0687     3.9085     3.9085    -0.0000
 49 C      5.7640     6.0000     0.2360     3.8915     3.8915    -0.0000
 50 C      6.0481     6.0000    -0.0481     3.9906     3.9906    -0.0000
 51 C      6.1912     6.0000    -0.1912     3.7358     3.7358    -0.0000
 52 H      0.9581     1.0000     0.0419     0.9860     0.9860    -0.0000
 53 H      1.0160     1.0000    -0.0160     0.9983     0.9983     0.0000
 54 H      0.9506     1.0000     0.0494     1.0121     1.0121     0.0000
 55 H      0.9599     1.0000     0.0401     0.9867     0.9867    -0.0000
 56 H      0.9495     1.0000     0.0505     0.9698     0.9698     0.0000
 57 H      0.9512     1.0000     0.0488     0.9830     0.9830    -0.0000
 58 H      0.9510     1.0000     0.0490     0.9849     0.9849    -0.0000
 59 H      0.9992     1.0000     0.0008     1.0035     1.0035     0.0000
 60 H      0.9480     1.0000     0.0520     1.0137     1.0137    -0.0000
 61 H      0.8286     1.0000     0.1714     1.0421     1.0421     0.0000
 62 H      0.8251     1.0000     0.1749     1.0435     1.0435     0.0000
 63 H      0.9443     1.0000     0.0557     0.9853     0.9853    -0.0000
 64 H      1.0081     1.0000    -0.0081     0.9980     0.9980     0.0000
 65 H      0.9524     1.0000     0.0476     1.0094     1.0094    -0.0000
 66 H      0.9436     1.0000     0.0564     0.9854     0.9854    -0.0000
 67 H      0.9374     1.0000     0.0626     0.9720     0.9720     0.0000
 68 H      0.9424     1.0000     0.0576     0.9868     0.9868    -0.0000
 69 H      0.9430     1.0000     0.0570     0.9828     0.9828    -0.0000
 70 H      1.0284     1.0000    -0.0284     0.9935     0.9935    -0.0000
 71 H      0.9545     1.0000     0.0455     1.0061     1.0061     0.0000
 72 H      0.9323     1.0000     0.0677     0.9839     0.9839     0.0000
 73 H      1.0093     1.0000    -0.0093     1.0004     1.0004     0.0000
 74 H      0.9429     1.0000     0.0571     1.0101     1.0101    -0.0000
 75 H      0.9330     1.0000     0.0670     0.9843     0.9843    -0.0000
 76 H      0.9282     1.0000     0.0718     0.9720     0.9720    -0.0000
 77 H      0.9344     1.0000     0.0656     0.9854     0.9854    -0.0000
 78 H      0.9352     1.0000     0.0648     0.9852     0.9852     0.0000
 79 H      1.0158     1.0000    -0.0158     0.9980     0.9980     0.0000
 80 H      0.9422     1.0000     0.0578     1.0072     1.0072    -0.0000
 81 H      0.9462     1.0000     0.0538     0.9856     0.9856     0.0000
 82 H      1.0245     1.0000    -0.0245     0.9936     0.9936     0.0000
 83 H      0.9579     1.0000     0.0421     1.0085     1.0085    -0.0000
 84 H      0.9462     1.0000     0.0538     0.9853     0.9853     0.0000
 85 H      0.9397     1.0000     0.0603     0.9716     0.9716    -0.0000
 86 H      0.9444     1.0000     0.0556     0.9839     0.9839    -0.0000
 87 H      0.9431     1.0000     0.0569     0.9856     0.9856    -0.0000
 88 H      1.0160     1.0000    -0.0160     0.9962     0.9962    -0.0000
 89 H      0.9546     1.0000     0.0454     1.0074     1.0074     0.0000

  Mayer bond orders larger than 0.100000
B(  0-C ,  1-N ) :   1.0926 B(  0-C , 17-C ) :   1.6972 B(  0-C , 52-H ) :   0.9675 
B(  1-N ,  8-C ) :   1.0911 B(  1-N , 10-C ) :   0.9756 B(  2-C , 12-C ) :   1.5127 
B(  2-C , 16-C ) :   1.3511 B(  2-C , 53-H ) :   0.9758 B(  3-N , 14-C ) :   1.2168 
B(  3-N , 16-C ) :   1.1915 B(  3-N , 61-H ) :   0.8990 B(  4-C ,  6-C ) :   1.2182 
B(  4-C , 17-C ) :   1.2179 B(  4-C , 18-C ) :   1.4132 B(  5-N , 19-C ) :   1.4480 
B(  5-N , 27-C ) :   1.3824 B(  6-C ,  8-C ) :   1.6949 B(  6-C , 54-H ) :   0.9620 
B(  7-N , 30-C ) :   1.1953 B(  7-N , 38-C ) :   1.1930 B(  7-N , 62-H ) :   0.8971 
B(  8-C , 55-H ) :   0.9683 B(  9-N , 41-C ) :   1.3965 B(  9-N , 49-C ) :   1.4240 
B( 10-C , 56-H ) :   0.9769 B( 10-C , 57-H ) :   0.9821 B( 10-C , 58-H ) :   0.9843 
B( 11-N , 20-C ) :   1.1300 B( 11-N , 24-C ) :   1.1105 B( 11-N , 25-C ) :   0.9596 
B( 12-C , 14-C ) :   1.3518 B( 12-C , 59-H ) :   0.9742 B( 13-N , 31-C ) :   1.1522 
B( 13-N , 35-C ) :   1.1486 B( 13-N , 36-C ) :   0.9459 B( 14-C , 18-C ) :   1.1395 
B( 15-N , 42-C ) :   1.1089 B( 15-N , 46-C ) :   1.1211 B( 15-N , 47-C ) :   0.9618 
B( 16-C , 51-C ) :   1.1756 B( 17-C , 60-H ) :   0.9607 B( 18-C , 19-C ) :   1.1460 
B( 19-C , 21-C ) :   1.2394 B( 20-C , 28-C ) :   1.6270 B( 20-C , 63-H ) :   0.9703 
B( 21-C , 26-C ) :   1.6159 B( 21-C , 64-H ) :   0.9694 B( 22-C , 23-C ) :   1.2889 
B( 22-C , 28-C ) :   1.2665 B( 22-C , 29-C ) :   1.2228 B( 23-C , 24-C ) :   1.6191 
B( 23-C , 65-H ) :   0.9704 B( 24-C , 66-H ) :   0.9694 B( 25-C , 67-H ) :   0.9760 
B( 25-C , 68-H ) :   0.9828 B( 25-C , 69-H ) :   0.9823 B( 26-C , 27-C ) :   1.2351 
B( 26-C , 70-H ) :   0.9713 B( 27-C , 29-C ) :   1.2178 B( 28-C , 71-H ) :   0.9718 
B( 29-C , 30-C ) :   1.2357 B( 30-C , 32-C ) :   1.2883 B( 31-C , 39-C ) :   1.5987 
B( 31-C , 72-H ) :   0.9685 B( 32-C , 37-C ) :   1.5706 B( 32-C , 73-H ) :   0.9784 
B( 33-C , 34-C ) :   1.2997 B( 33-C , 39-C ) :   1.2947 B( 33-C , 40-C ) :   1.1936 
B( 34-C , 35-C ) :   1.5957 B( 34-C , 74-H ) :   0.9698 B( 35-C , 75-H ) :   0.9685 
B( 36-C , 76-H ) :   0.9766 B( 36-C , 77-H ) :   0.9817 B( 36-C , 78-H ) :   0.9825 
B( 37-C , 38-C ) :   1.2923 B( 37-C , 79-H ) :   0.9768 B( 38-C , 40-C ) :   1.2268 
B( 39-C , 80-H ) :   0.9708 B( 40-C , 41-C ) :   1.2435 B( 41-C , 43-C ) :   1.1915 
B( 42-C , 50-C ) :   1.6340 B( 42-C , 81-H ) :   0.9697 B( 43-C , 48-C ) :   1.6607 
B( 43-C , 82-H ) :   0.9725 B( 44-C , 45-C ) :   1.2646 B( 44-C , 50-C ) :   1.2705 
B( 44-C , 51-C ) :   1.2607 B( 45-C , 46-C ) :   1.6351 B( 45-C , 83-H ) :   0.9717 
B( 46-C , 84-H ) :   0.9701 B( 47-C , 85-H ) :   0.9762 B( 47-C , 86-H ) :   0.9829 
B( 47-C , 87-H ) :   0.9825 B( 48-C , 49-C ) :   1.1945 B( 48-C , 88-H ) :   0.9747 
B( 49-C , 51-C ) :   1.2368 B( 50-C , 89-H ) :   0.9711 

-------
TIMINGS
-------

Total SCF time: 0 days 0 hours 28 min 31 sec 

Total time                  ....    1711.853 sec
Sum of individual times     ....    1707.066 sec  ( 99.7%)

Fock matrix formation       ....    1679.439 sec  ( 98.1%)
Diagonalization             ....       8.772 sec  (  0.5%)
Density matrix formation    ....       0.523 sec  (  0.0%)
Population analysis         ....       0.588 sec  (  0.0%)
Initial guess               ....       2.513 sec  (  0.1%)
Orbital Transformation      ....       0.000 sec  (  0.0%)
Orbital Orthonormalization  ....       0.000 sec  (  0.0%)
DIIS solution               ....       3.961 sec  (  0.2%)
SOSCF solution              ....       9.973 sec  (  0.6%)

Maximum memory used throughout the entire SCF-calculation: 302.6 MB


           ************************************************************
           *        Program running with 16 parallel MPI-processes    *
           *              working on a common directory               *
           ************************************************************

------------------------------------------------------------------------------
                                ORCA  MP2 
------------------------------------------------------------------------------

Freezing NCore=104 chemical core electrons

----------
MP2 ENERGY (disk based algorithm)
----------

Dimension of the basis                    ...  918
Memory devoted to MP2                     ... 2000 MB   
Data format for buffers                   ... DOUBLE
Compression type for matrix containers    ... UNCOMPRESSED

-------------------------------
PARTIAL EXCHANGE TRANSFORMATION
-------------------------------

Transformation type                        ... one-operator
Generation of integrals (i,mue|j,nue)      ... ON
Generation of integrals (mue,kappa|nue,tau)... OFF
Generation of integrals (i,mue|a,nue)      ... OFF
Dimension of the basis                     ...  918
Number of internal MOs                     ...  127 (  52- 178)
Pair cutoff                                ... 2.500e-12 Eh
Number of AO pairs in the trafo            ... 421821
Total Number of distinct AO pairs          ... 421821
Memory devoted for trafo                   ... 2000.0 MB 
Max. Number of MO pairs treated together   ...  311      
Number Format for Storage                  ... Double (8 Byte)
Integral package used                      ... LIBINT

Starting integral evaluation:
    ... done with AO integral generation
Closing buffer AOK     (38.25 GB; CompressionRatio= 1.33)
Collecting buffer AOK 
Number of MO pairs included in the trafo   ... 8128
------------------------
SORTING OF (i,mue|j,nue)
------------------------

IBATCH = 1 of  2
IBATCH = 2 of  2
Closing buffer KAO     (51.03 GB; CompressionRatio= 1.00)
Collecting buffer KAO 
N(AO-Batches) Done                         ...  85829329 
N(AO-Batches) Skipped                      ...  82446978 
N(IJ)-pairs Skipped                        ...         0 
TOTAL TIME for half transformation         ...  2571.186 sec
AO-integral generation                     ...   211.302 sec
Half transformation                        ...   424.036 sec
K-integral sorting                         ...  1712.164 sec
Process 10:   Internal MO 132
Process  4:   Internal MO  84
Process 13:   Internal MO 156
Process  7:   Internal MO 108

Finished integral transformation - now doing MP2 part

OPERATOR COMBINATION   0   0: ij=( 52..178, 52..178)
Process  1:   Internal MO  60
Process  2:   Internal MO  69
Process  5:   Internal MO  93
Process  1:   Internal MO  63
Process  3:   Internal MO  78
Process  2:   Internal MO  72
Process  1:   Internal MO  66
Process  8:   Internal MO 117
Process 11:   Internal MO 141
Process  6:   Internal MO 102
Process  4:   Internal MO  87
Process 14:   Internal MO 165
Process  9:   Internal MO 126
Process  2:   Internal MO  75
Process  3:   Internal MO  81
Process  5:   Internal MO  96
Process 15:   Internal MO 174
Process  0:   Internal MO  54
Process 10:   Internal MO 135
Process  4:   Internal MO  90
Process 12:   Internal MO 150
Process  6:   Internal MO 105
Process  0:   Internal MO  57
Process  8:   Internal MO 120
Process  5:   Internal MO  99
Process  7:   Internal MO 111
Process 13:   Internal MO 159
Process  9:   Internal MO 129
Process 11:   Internal MO 144
Process 14:   Internal MO 168
Process 10:   Internal MO 138
Process  7:   Internal MO 114
Process  8:   Internal MO 123
Process 12:   Internal MO 153
Process 15:   Internal MO 177
Process 13:   Internal MO 162
Process 11:   Internal MO 147
Process 14:   Internal MO 171
-----------------------------------------------
 MP2 CORRELATION ENERGY   :     -7.283924318 Eh
-----------------------------------------------


-------
TIMINGS
-------
Total time                : 2910.861 sec
Integral trafo            : 2574.120 sec ( 88.4%)
K(i,j)                    :  115.496 sec (  4.0%)
T(i,j)                    :    1.222 sec (  0.0%)

---------------------------------------
MP2 TOTAL ENERGY:    -2130.897070738 Eh
---------------------------------------

Maximum memory used throughout the entire MP2-calculation: 2275.3 MB

-------------------------   --------------------
FINAL SINGLE POINT ENERGY     -2130.897070737724
-------------------------   --------------------


                            ***************************************
                            *     ORCA property calculations      *
                            ***************************************


  WARNING: The energy has been calculated at the MP2 level but the densities
           used in the property calculations are still SCF densities
           MP2 response densities have not been calculated 
           use %mp2 Density relaxed end
           or  %mp2 Density unrelaxed end

                                    ---------------------
                                    Active property flags
                                    ---------------------
   (+) Dipole Moment


------------------------------------------------------------------------------
                       ORCA ELECTRIC PROPERTIES CALCULATION
------------------------------------------------------------------------------

Dipole Moment Calculation                       ... on
Quadrupole Moment Calculation                   ... off
Polarizability Calculation                      ... off
GBWName                                         ... /scratch/allen/tmpyp4_amber_gaff2/conf1/conf1/Conf217.orca.gbw
Electron density                                ... /scratch/allen/tmpyp4_amber_gaff2/conf1/conf1/Conf217.orca.scfp
The origin for moment calculation is the CENTER OF MASS  = ( 0.002424, -0.002408 -0.001153)

-------------
DIPOLE MOMENT
-------------
                                X             Y             Z
Electronic contribution:      1.93908      -3.55980      -0.15308
Nuclear contribution   :      0.07907       0.24045       0.15586
                        -----------------------------------------
Total Dipole Moment    :      2.01815      -3.31935       0.00278
                        -----------------------------------------
Magnitude (a.u.)       :      3.88472
Magnitude (Debye)      :      9.87417



--------------------
Rotational spectrum 
--------------------
 
Rotational constants in cm-1:     0.001500     0.001478     0.000761 
Rotational constants in MHz :    44.968666    44.296016    22.808853 

 Dipole components along the rotational axes: 
x,y,z [a.u.] :     2.782612    -2.710739     0.001510 
x,y,z [Debye]:     7.072838    -6.890152     0.003839 

 

Timings for individual modules:

Sum of individual times         ...     4648.089 sec (=  77.468 min)
GTO integral calculation        ...        3.725 sec (=   0.062 min)   0.1 %
SCF iterations                  ...     1713.095 sec (=  28.552 min)  36.9 %
MP2 module                      ...     2931.269 sec (=  48.854 min)  63.1 %
                             ****ORCA TERMINATED NORMALLY****
TOTAL RUN TIME: 0 days 1 hours 17 minutes 31 seconds 759 msec
# of primitive gaussian functions

