
                                 *****************
                                 * O   R   C   A *
                                 *****************

                                            #,                                       
                                            ###                                      
                                            ####                                     
                                            #####                                    
                                            ######                                   
                                           ########,                                 
                                     ,,################,,,,,                         
                               ,,#################################,,                 
                          ,,##########################################,,             
                       ,#########################################, ''#####,          
                    ,#############################################,,   '####,        
                  ,##################################################,,,,####,       
                ,###########''''           ''''###############################       
              ,#####''   ,,,,##########,,,,          '''####'''          '####       
            ,##' ,,,,###########################,,,                        '##       
           ' ,,###''''                  '''############,,,                           
         ,,##''                                '''############,,,,        ,,,,,,###''
      ,#''                                            '''#######################'''  
     '                                                          ''''####''''         
             ,#######,   #######,   ,#######,      ##                                
            ,#'     '#,  ##    ##  ,#'     '#,    #''#        ######   ,####,        
            ##       ##  ##   ,#'  ##            #'  '#       #        #'  '#        
            ##       ##  #######   ##           ,######,      #####,   #    #        
            '#,     ,#'  ##    ##  '#,     ,#' ,#      #,         ##   #,  ,#        
             '#######'   ##     ##  '#######'  #'      '#     #####' # '####'        



                  #######################################################
                  #                        -***-                        #
                  #          Department of theory and spectroscopy      #
                  #    Directorship and core code : Frank Neese         #
                  #        Max Planck Institute fuer Kohlenforschung    #
                  #                Kaiser Wilhelm Platz 1               #
                  #                 D-45470 Muelheim/Ruhr               #
                  #                      Germany                        #
                  #                                                     #
                  #                  All rights reserved                #
                  #                        -***-                        #
                  #######################################################


                         Program Version 5.0.4 -  RELEASE  -


 With contributions from (in alphabetic order):
   Daniel Aravena         : Magnetic Suceptibility
   Michael Atanasov       : Ab Initio Ligand Field Theory (pilot matlab implementation)
   Alexander A. Auer      : GIAO ZORA, VPT2 properties, NMR spectrum
   Ute Becker             : Parallelization
   Giovanni Bistoni       : ED, misc. LED, open-shell LED, HFLD
   Martin Brehm           : Molecular dynamics
   Dmytro Bykov           : SCF Hessian
   Vijay G. Chilkuri      : MRCI spin determinant printing, contributions to CSF-ICE
   Dipayan Datta          : RHF DLPNO-CCSD density
   Achintya Kumar Dutta   : EOM-CC, STEOM-CC
   Dmitry Ganyushin       : Spin-Orbit,Spin-Spin,Magnetic field MRCI
   Miquel Garcia          : C-PCM and meta-GGA Hessian, CC/C-PCM, Gaussian charge scheme
   Yang Guo               : DLPNO-NEVPT2, F12-NEVPT2, CIM, IAO-localization
   Andreas Hansen         : Spin unrestricted coupled pair/coupled cluster methods
   Benjamin Helmich-Paris : MC-RPA, TRAH-SCF, COSX integrals
   Lee Huntington         : MR-EOM, pCC
   Robert Izsak           : Overlap fitted RIJCOSX, COSX-SCS-MP3, EOM
   Marcus Kettner         : VPT2
   Christian Kollmar      : KDIIS, OOCD, Brueckner-CCSD(T), CCSD density, CASPT2, CASPT2-K
   Simone Kossmann        : Meta GGA functionals, TD-DFT gradient, OOMP2, MP2 Hessian
   Martin Krupicka        : Initial AUTO-CI
   Lucas Lang             : DCDCAS
   Marvin Lechner         : AUTO-CI (C++ implementation), FIC-MRCC
   Dagmar Lenk            : GEPOL surface, SMD
   Dimitrios Liakos       : Extrapolation schemes; Compound Job, initial MDCI parallelization
   Dimitrios Manganas     : Further ROCIS development; embedding schemes
   Dimitrios Pantazis     : SARC Basis sets
   Anastasios Papadopoulos: AUTO-CI, single reference methods and gradients
   Taras Petrenko         : DFT Hessian,TD-DFT gradient, ASA, ECA, R-Raman, ABS, FL, XAS/XES, NRVS
   Peter Pinski           : DLPNO-MP2, DLPNO-MP2 Gradient
   Christoph Reimann      : Effective Core Potentials
   Marius Retegan         : Local ZFS, SOC
   Christoph Riplinger    : Optimizer, TS searches, QM/MM, DLPNO-CCSD(T), (RO)-DLPNO pert. Triples
   Tobias Risthaus        : Range-separated hybrids, TD-DFT gradient, RPA, STAB
   Michael Roemelt        : Original ROCIS implementation
   Masaaki Saitow         : Open-shell DLPNO-CCSD energy and density
   Barbara Sandhoefer     : DKH picture change effects
   Avijit Sen             : IP-ROCIS
   Kantharuban Sivalingam : CASSCF convergence, NEVPT2, FIC-MRCI
   Bernardo de Souza      : ESD, SOC TD-DFT
   Georgi Stoychev        : AutoAux, RI-MP2 NMR, DLPNO-MP2 response
   Willem Van den Heuvel  : Paramagnetic NMR
   Boris Wezisla          : Elementary symmetry handling
   Frank Wennmohs         : Technical directorship


 We gratefully acknowledge several colleagues who have allowed us to
 interface, adapt or use parts of their codes:
   Stefan Grimme, W. Hujo, H. Kruse, P. Pracht,  : VdW corrections, initial TS optimization,
                  C. Bannwarth, S. Ehlert          DFT functionals, gCP, sTDA/sTD-DF
   Ed Valeev, F. Pavosevic, A. Kumar             : LibInt (2-el integral package), F12 methods
   Garnet Chan, S. Sharma, J. Yang, R. Olivares  : DMRG
   Ulf Ekstrom                                   : XCFun DFT Library
   Mihaly Kallay                                 : mrcc  (arbitrary order and MRCC methods)
   Jiri Pittner, Ondrej Demel                    : Mk-CCSD
   Frank Weinhold                                : gennbo (NPA and NBO analysis)
   Christopher J. Cramer and Donald G. Truhlar   : smd solvation model
   Lars Goerigk                                  : TD-DFT with DH, B97 family of functionals
   V. Asgeirsson, H. Jonsson                     : NEB implementation
   FAccTs GmbH                                   : IRC, NEB, NEB-TS, DLPNO-Multilevel, CI-OPT
                                                   MM, QMMM, 2- and 3-layer-ONIOM, Crystal-QMMM,
                                                   LR-CPCM, SF, NACMEs, symmetry and pop. for TD-DFT,
                                                   nearIR, NL-DFT gradient (VV10), updates on ESD,
                                                   ML-optimized integration grids
   S Lehtola, MJT Oliveira, MAL Marques          : LibXC Library
   Liviu Ungur et al                             : ANISO software


 Your calculation uses the libint2 library for the computation of 2-el integrals
 For citations please refer to: http://libint.valeyev.net

 Your ORCA version has been built with support for libXC version: 5.1.0
 For citations please refer to: https://tddft.org/programs/libxc/

 This ORCA versions uses:
   CBLAS   interface :  Fast vector & matrix operations
   LAPACKE interface :  Fast linear algebra routines
   SCALAPACK package :  Parallel linear algebra routines
   Shared memory     :  Shared parallel matrices
   BLAS/LAPACK       :  OpenBLAS 0.3.15  USE64BITINT DYNAMIC_ARCH NO_AFFINITY Sandybridge SINGLE_THREADED
        Core in use  :  Sandybridge
   Copyright (c) 2011-2014, The OpenBLAS Project


================================================================================

----- Orbital basis set information -----
Your calculation utilizes the basis: cc-pVDZ 
       H, B-Ne : Obtained from the ccRepo (grant-hill.group.shef.ac.uk/ccrepo) Feb. 2017
                 T. H. Dunning, Jr., J. Chem. Phys. 90, 1007 (1989)
            He : Obtained from the ccRepo (grant-hill.group.shef.ac.uk/ccrepo) Feb. 2017
                 D. E. Woon, T. H. Dunning, Jr., J. Chem. Phys. 100, 2975 (1994)
  Li-Be, Na-Mg : Obtained from the ccRepo (grant-hill.group.shef.ac.uk/ccrepo) Feb. 2017
                 B. P. Prascher, D. E. Woon, K. A. Peterson, T. H. Dunning, Jr., A. K. Wilson, Theor. Chem. Acc. 128, 69 (2011)
         Al-Ar : Obtained from the ccRepo (grant-hill.group.shef.ac.uk/ccrepo) Feb. 2017
                 D. E. Woon, T. H. Dunning, Jr., J. Chem. Phys. 98, 1358 (1993)
            Ca : Obtained from the Peterson Research Group Website (tyr0.chem.wsu.edu/~kipeters) Feb. 2017
                 J. Koput, K. A. Peterson, J. Phys. Chem. 106, 9595 (2002)
         Sc-Zn : Obtained from the ccRepo (grant-hill.group.shef.ac.uk/ccrepo) Feb. 2017
                 N. B. Balabanov, K. A. Peterson, J. Chem. Phys. 123, 064107 (2005)
                 N. B. Balabanov, K. A. Peterson, J. Chem. Phys. 125, 074110 (2006)
         Ga-Kr : Obtained from the ccRepo (grant-hill.group.shef.ac.uk/ccrepo) Feb. 2017
                 A. K. Wilson, D. E. Woon, K. A. Peterson, T. H. Dunning, Jr., J. Chem. Phys. 110, 7667 (1999)

================================================================================
                                        WARNINGS
                       Please study these warnings very carefully!
================================================================================


WARNING: No MP2 level density has been requested!
         To caclulate MP2 level properties use
         %mp2 Density relaxed end
         or
         %mp2 Density unrelaxed end

WARNING: Post HF methods need fully converged wavefunctions
  ===> : Setting SCFConvForced true
         You can overwrite this default with %scf ConvForced false 


INFO   : the flag for use of the SHARK integral package has been found!

================================================================================
                                       INPUT FILE
================================================================================
NAME = /scratch/allen/tmpyp4_amber_gaff2/2.Mdgx/conf11/conf11/Conf350.orca
|  1> ! PAL2
|  2> ! mp2 cc-pvdz TightSCF  NoKeepInts
|  3> 
|  4> %scf
|  5>   MaxCore 2000
|  6> end
|  7> %mp2
|  8>   MaxCore 2000
|  9> end
| 10> * xyz 0 1
| 11>    C       -3.05400         6.47600         0.33500
| 12>    C        1.47400         4.04100         0.05700
| 13>    C       -2.80200         4.09300         0.04900
| 14>    C       -4.18500         4.02600        -0.18200
| 15>    C       -4.94900         5.17500        -0.15000
| 16>    C       -5.22400         7.59500         0.09900
| 17>    C        0.13200         4.30700         0.06100
| 18>    C       -0.56900         3.05600         0.04700
| 19>    C        1.64900         2.61800         0.02300
| 20>    C       -2.24600         5.35600         0.30800
| 21>    N       -4.38400         6.37700         0.10900
| 22>    N        0.38800         2.06700         0.02500
| 23>    N       -2.01000         0.39500        -0.07500
| 24>    N       -0.38800        -2.07400        -0.02700
| 25>    N        2.01000        -0.40100         0.06500
| 26>    C       -1.96000         2.86100         0.02400
| 27>    C       -2.62300         1.61500        -0.01800
| 28>    C       -5.57300        -4.32900         1.06600
| 29>    C       -4.07300         1.47100         0.05600
| 30>    C       -4.10600        -2.75600        -0.02600
| 31>    C       -4.99500        -2.75700        -1.11100
| 32>    C       -6.13200        -3.54200        -1.07600
| 33>    C       -7.65100        -5.11300         0.04000
| 34>    C       -4.32400         0.14100         0.03700
| 35>    C       -3.02500        -0.52000        -0.04800
| 36>    C       -4.42200        -3.56600         1.07500
| 37>    N       -6.40700        -4.31300         0.00100
| 38>    C       -2.86700        -1.92200        -0.04000
| 39>    C       -1.65000        -2.62400        -0.02700
| 40>    C        3.56800        -6.14200        -1.04000
| 41>    C       -1.47600        -4.04900        -0.03400
| 42>    C        2.80300        -4.09900        -0.00800
| 43>    C        3.65700        -4.38400         1.06900
| 44>    C        4.42700        -5.53000         1.05900
| 45>    C        5.24500        -7.58800         0.01400
| 46>    C       -0.13400        -4.31500        -0.02200
| 47>    C        0.56800        -3.06400        -0.02700
| 48>    C        2.77500        -5.01200        -1.07400
| 49>    N        4.37600        -6.39100         0.01700
| 50>    C        1.95900        -2.86900        -0.00900
| 51>    C        2.62100        -1.62200         0.00900
| 52>    C        5.54300         4.33900        -1.13000
| 53>    C        4.07000        -1.47900        -0.09400
| 54>    C        4.10400         2.75100        -0.02100
| 55>    C        5.02700         2.72900         1.03600
| 56>    C        6.16600         3.50900         0.97800
| 57>    C        7.61900         5.15300        -0.11500
| 58>    C        4.32100        -0.14800        -0.09200
| 59>    C        3.02500         0.51400         0.01500
| 60>    C        4.38700         3.58200        -1.11500
| 61>    C        2.86600         1.91600         0.01300
| 62>    N        6.41300         4.29600        -0.09500
| 63>    H       -2.67100         7.46800         0.54300
| 64>    H        2.27400         4.76600         0.08100
| 65>    H       -4.67100         3.08200        -0.39600
| 66>    H       -6.01700         5.17500        -0.33000
| 67>    H       -5.29800         7.96700        -0.92600
| 68>    H       -6.21400         7.34100         0.47800
| 69>    H       -4.76100         8.34600         0.73800
| 70>    H       -0.33200         5.28200         0.06900
| 71>    H       -1.18700         5.47100         0.50800
| 72>    H        0.18200         1.07200         0.00500
| 73>    H       -0.18300        -1.08000        -0.02100
| 74>    H       -5.86400        -4.96200         1.89500
| 75>    H       -4.79400         2.27200         0.13900
| 76>    H       -4.80000        -2.16000        -1.99400
| 77>    H       -6.84100        -3.58200        -1.89300
| 78>    H       -8.42800        -4.53600         0.54600
| 79>    H       -7.95600        -5.33700        -0.98100
| 80>    H       -7.45600        -6.03700         0.58400
| 81>    H       -5.28700        -0.34400         0.10000
| 82>    H       -3.78000        -3.60100         1.94700
| 83>    H        3.58700        -6.86800        -1.84300
| 84>    H       -2.27600        -4.77400        -0.05000
| 85>    H        3.71400        -3.72400         1.92600
| 86>    H        5.09200        -5.79500         1.87100
| 87>    H        6.20500        -7.32900        -0.43900
| 88>    H        5.39300        -7.91700         1.04200
| 89>    H        4.75900        -8.37300        -0.56400
| 90>    H        0.32900        -5.29000        -0.00800
| 91>    H        2.14600        -4.84200        -1.94000
| 92>    H        5.80800         4.98600        -1.95600
| 93>    H        4.78800        -2.28100        -0.18500
| 94>    H        4.86000         2.11400         1.91200
| 95>    H        6.90100         3.53100         1.77200
| 96>    H        7.38300         6.10900         0.35600
| 97>    H        8.41400         4.65200         0.43500
| 98>    H        7.92100         5.31000        -1.15000
| 99>    H        5.28300         0.33600        -0.17900
|100>    H        3.72000         3.63200        -1.96700
|101> *
|102> 
|103>                          ****END OF INPUT****
================================================================================

                       ****************************
                       * Single Point Calculation *
                       ****************************

---------------------------------
CARTESIAN COORDINATES (ANGSTROEM)
---------------------------------
  C     -3.054000    6.476000    0.335000
  C      1.474000    4.041000    0.057000
  C     -2.802000    4.093000    0.049000
  C     -4.185000    4.026000   -0.182000
  C     -4.949000    5.175000   -0.150000
  C     -5.224000    7.595000    0.099000
  C      0.132000    4.307000    0.061000
  C     -0.569000    3.056000    0.047000
  C      1.649000    2.618000    0.023000
  C     -2.246000    5.356000    0.308000
  N     -4.384000    6.377000    0.109000
  N      0.388000    2.067000    0.025000
  N     -2.010000    0.395000   -0.075000
  N     -0.388000   -2.074000   -0.027000
  N      2.010000   -0.401000    0.065000
  C     -1.960000    2.861000    0.024000
  C     -2.623000    1.615000   -0.018000
  C     -5.573000   -4.329000    1.066000
  C     -4.073000    1.471000    0.056000
  C     -4.106000   -2.756000   -0.026000
  C     -4.995000   -2.757000   -1.111000
  C     -6.132000   -3.542000   -1.076000
  C     -7.651000   -5.113000    0.040000
  C     -4.324000    0.141000    0.037000
  C     -3.025000   -0.520000   -0.048000
  C     -4.422000   -3.566000    1.075000
  N     -6.407000   -4.313000    0.001000
  C     -2.867000   -1.922000   -0.040000
  C     -1.650000   -2.624000   -0.027000
  C      3.568000   -6.142000   -1.040000
  C     -1.476000   -4.049000   -0.034000
  C      2.803000   -4.099000   -0.008000
  C      3.657000   -4.384000    1.069000
  C      4.427000   -5.530000    1.059000
  C      5.245000   -7.588000    0.014000
  C     -0.134000   -4.315000   -0.022000
  C      0.568000   -3.064000   -0.027000
  C      2.775000   -5.012000   -1.074000
  N      4.376000   -6.391000    0.017000
  C      1.959000   -2.869000   -0.009000
  C      2.621000   -1.622000    0.009000
  C      5.543000    4.339000   -1.130000
  C      4.070000   -1.479000   -0.094000
  C      4.104000    2.751000   -0.021000
  C      5.027000    2.729000    1.036000
  C      6.166000    3.509000    0.978000
  C      7.619000    5.153000   -0.115000
  C      4.321000   -0.148000   -0.092000
  C      3.025000    0.514000    0.015000
  C      4.387000    3.582000   -1.115000
  C      2.866000    1.916000    0.013000
  N      6.413000    4.296000   -0.095000
  H     -2.671000    7.468000    0.543000
  H      2.274000    4.766000    0.081000
  H     -4.671000    3.082000   -0.396000
  H     -6.017000    5.175000   -0.330000
  H     -5.298000    7.967000   -0.926000
  H     -6.214000    7.341000    0.478000
  H     -4.761000    8.346000    0.738000
  H     -0.332000    5.282000    0.069000
  H     -1.187000    5.471000    0.508000
  H      0.182000    1.072000    0.005000
  H     -0.183000   -1.080000   -0.021000
  H     -5.864000   -4.962000    1.895000
  H     -4.794000    2.272000    0.139000
  H     -4.800000   -2.160000   -1.994000
  H     -6.841000   -3.582000   -1.893000
  H     -8.428000   -4.536000    0.546000
  H     -7.956000   -5.337000   -0.981000
  H     -7.456000   -6.037000    0.584000
  H     -5.287000   -0.344000    0.100000
  H     -3.780000   -3.601000    1.947000
  H      3.587000   -6.868000   -1.843000
  H     -2.276000   -4.774000   -0.050000
  H      3.714000   -3.724000    1.926000
  H      5.092000   -5.795000    1.871000
  H      6.205000   -7.329000   -0.439000
  H      5.393000   -7.917000    1.042000
  H      4.759000   -8.373000   -0.564000
  H      0.329000   -5.290000   -0.008000
  H      2.146000   -4.842000   -1.940000
  H      5.808000    4.986000   -1.956000
  H      4.788000   -2.281000   -0.185000
  H      4.860000    2.114000    1.912000
  H      6.901000    3.531000    1.772000
  H      7.383000    6.109000    0.356000
  H      8.414000    4.652000    0.435000
  H      7.921000    5.310000   -1.150000
  H      5.283000    0.336000   -0.179000
  H      3.720000    3.632000   -1.967000

----------------------------
CARTESIAN COORDINATES (A.U.)
----------------------------
  NO LB      ZA    FRAG     MASS         X           Y           Z
   0 C     6.0000    0    12.011   -5.771224   12.237866    0.633058
   1 C     6.0000    0    12.011    2.785456    7.636383    0.107714
   2 C     6.0000    0    12.011   -5.295013    7.734649    0.092597
   3 C     6.0000    0    12.011   -7.908504    7.608037   -0.343930
   4 C     6.0000    0    12.011   -9.352255    9.779333   -0.283459
   5 C     6.0000    0    12.011   -9.871929   14.352470    0.187083
   6 C     6.0000    0    12.011    0.249444    8.139050    0.115273
   7 C     6.0000    0    12.011   -1.075254    5.775003    0.088817
   8 C     6.0000    0    12.011    3.116158    4.947303    0.043464
   9 C     6.0000    0    12.011   -4.244325   10.121373    0.582036
  10 N     7.0000    0    14.007   -8.284559   12.050784    0.205980
  11 N     7.0000    0    14.007    0.733214    3.906064    0.047243
  12 N     7.0000    0    14.007   -3.798350    0.746442   -0.141729
  13 N     7.0000    0    14.007   -0.733214   -3.919292   -0.051023
  14 N     7.0000    0    14.007    3.798350   -0.757780    0.122832
  15 C     6.0000    0    12.011   -3.703863    5.406506    0.045353
  16 C     6.0000    0    12.011   -4.956752    3.051908   -0.034015
  17 C     6.0000    0    12.011  -10.531444   -8.180624    2.014448
  18 C     6.0000    0    12.011   -7.696855    2.779787    0.105825
  19 C     6.0000    0    12.011   -7.759216   -5.208085   -0.049133
  20 C     6.0000    0    12.011   -9.439182   -5.209975   -2.099486
  21 C     6.0000    0    12.011  -11.587801   -6.693410   -2.033345
  22 C     6.0000    0    12.011  -14.458295   -9.662170    0.075589
  23 C     6.0000    0    12.011   -8.171176    0.266451    0.069920
  24 C     6.0000    0    12.011   -5.716422   -0.982658   -0.090707
  25 C     6.0000    0    12.011   -8.356369   -6.738763    2.031456
  26 N     7.0000    0    14.007  -12.107475   -8.150389    0.001890
  27 C     6.0000    0    12.011   -5.417845   -3.632054   -0.075589
  28 C     6.0000    0    12.011   -3.118048   -4.958641   -0.051023
  29 C     6.0000    0    12.011    6.742543  -11.606698   -1.965315
  30 C     6.0000    0    12.011   -2.789236   -7.651501   -0.064251
  31 C     6.0000    0    12.011    5.296902   -7.745987   -0.015118
  32 C     6.0000    0    12.011    6.910728   -8.284559    2.020117
  33 C     6.0000    0    12.011    8.365818  -10.450186    2.001220
  34 C     6.0000    0    12.011    9.911614  -14.339242    0.026456
  35 C     6.0000    0    12.011   -0.253223   -8.154168   -0.041574
  36 C     6.0000    0    12.011    1.073364   -5.790121   -0.051023
  37 C     6.0000    0    12.011    5.243990   -9.471307   -2.029566
  38 N     7.0000    0    14.007    8.269442  -12.077240    0.032125
  39 C     6.0000    0    12.011    3.701973   -5.421624   -0.017008
  40 C     6.0000    0    12.011    4.952972   -3.065136    0.017008
  41 C     6.0000    0    12.011   10.474752    8.199522   -2.135391
  42 C     6.0000    0    12.011    7.691185   -2.794905   -0.177634
  43 C     6.0000    0    12.011    7.755436    5.198637   -0.039684
  44 C     6.0000    0    12.011    9.499653    5.157063    1.957756
  45 C     6.0000    0    12.011   11.652051    6.631049    1.848152
  46 C     6.0000    0    12.011   14.397823    9.737759   -0.217319
  47 C     6.0000    0    12.011    8.165507   -0.279679   -0.173855
  48 C     6.0000    0    12.011    5.716422    0.971319    0.028346
  49 C     6.0000    0    12.011    8.290229    6.768999   -2.107045
  50 C     6.0000    0    12.011    5.415955    3.620715    0.024566
  51 N     7.0000    0    14.007   12.118814    8.118263   -0.179524
  52 H     1.0000    0     1.008   -5.047459   14.112475    1.026121
  53 H     1.0000    0     1.008    4.297237    9.006435    0.153068
  54 H     1.0000    0     1.008   -8.826911    5.824136   -0.748332
  55 H     1.0000    0     1.008  -11.370482    9.779333   -0.623610
  56 H     1.0000    0     1.008  -10.011769   15.055448   -1.749886
  57 H     1.0000    0     1.008  -11.742758   13.872480    0.903289
  58 H     1.0000    0     1.008   -8.996986   15.771654    1.394618
  59 H     1.0000    0     1.008   -0.627389    9.981533    0.130391
  60 H     1.0000    0     1.008   -2.243105   10.338692    0.959981
  61 H     1.0000    0     1.008    0.343930    2.025786    0.009449
  62 H     1.0000    0     1.008   -0.345820   -2.040904   -0.039684
  63 H     1.0000    0     1.008  -11.081354   -9.376821    3.581031
  64 H     1.0000    0     1.008   -9.059347    4.293458    0.262672
  65 H     1.0000    0     1.008   -9.070685   -4.081808   -3.768114
  66 H     1.0000    0     1.008  -12.927616   -6.768999   -3.577252
  67 H     1.0000    0     1.008  -15.926612   -8.571798    1.031790
  68 H     1.0000    0     1.008  -15.034661  -10.085468   -1.853821
  69 H     1.0000    0     1.008  -14.089798  -11.408277    1.103600
  70 H     1.0000    0     1.008   -9.990982   -0.650066    0.188973
  71 H     1.0000    0     1.008   -7.143165   -6.804904    3.679297
  72 H     1.0000    0     1.008    6.778448  -12.978639   -3.482765
  73 H     1.0000    0     1.008   -4.301017   -9.021553   -0.094486
  74 H     1.0000    0     1.008    7.018443   -7.037340    3.639613
  75 H     1.0000    0     1.008    9.622485  -10.950963    3.535678
  76 H     1.0000    0     1.008   11.725751  -13.849803   -0.829590
  77 H     1.0000    0     1.008   10.191293  -14.960962    1.969095
  78 H     1.0000    0     1.008    8.993207  -15.822677   -1.065806
  79 H     1.0000    0     1.008    0.621720   -9.996651   -0.015118
  80 H     1.0000    0     1.008    4.055352   -9.150054   -3.666069
  81 H     1.0000    0     1.008   10.975529    9.422175   -3.696304
  82 H     1.0000    0     1.008    9.048009   -4.310465   -0.349599
  83 H     1.0000    0     1.008    9.184069    3.994881    3.613156
  84 H     1.0000    0     1.008   13.041000    6.672623    3.348595
  85 H     1.0000    0     1.008   13.951848   11.544337    0.672743
  86 H     1.0000    0     1.008   15.900156    8.791006    0.822031
  87 H     1.0000    0     1.008   14.968521   10.034446   -2.173185
  88 H     1.0000    0     1.008    9.983423    0.634948   -0.338261
  89 H     1.0000    0     1.008    7.029781    6.863485   -3.717091

--------------------------------
INTERNAL COORDINATES (ANGSTROEM)
--------------------------------
 C      0   0   0     0.000000000000     0.00000000     0.00000000
 C      1   0   0     5.148717607327     0.00000000     0.00000000
 C      1   2   0     2.413294221598    55.58186490     0.00000000
 C      3   1   2     1.403758882430    87.92281851   188.88859620
 C      4   3   1     1.380188755207   120.11996121     0.13375068
 C      5   4   3     2.448270001450   152.55042852     1.61690773
 C      2   1   3     1.368114030335    17.29913522     3.29377402
 C      7   2   1     1.434084376876   108.05010202   189.27232710
 C      2   1   3     1.434123425651   125.30015299   353.34112452
 C      1   2   3     1.381301198146    25.97849269     9.93254714
 N      1   2   3     1.352692500164   145.19056226   344.36229706
 N      9   2   1     1.376127174356   106.58526707     2.33915510
 N     12   9   2     2.925062050624   168.53581413   171.12065651
 N     13  12   9     2.954513327098    91.55032014    11.12112580
 N     14  13  12     2.925371258490    88.43092389   359.84326247
 C      8   7   2     1.404790019896   127.24786865   181.11170171
 C     13  12   9     1.366535034311    81.72106996   188.00453233
 C     14  13  12     5.758810554272    80.56209567   166.76250791
 C     17  13  12     1.459010623676   111.08861209   183.82872609
 C     18  14  13     2.412235892279    27.27532823    36.33507194
 C     20  18  14     1.402692767501    87.95206320   148.94598259
 C     21  20  18     1.382106725257   120.14573887   359.70382047
 C     18  14  13     2.446510985056   144.15733107    82.80075377
 C     19  17  13     1.353610726908   106.29293361   359.75308708
 C     13  12   9     1.366813447402   172.21332906    33.46711076
 C     18  14  13     1.380960173213    15.08449437   309.23336894
 N     22  21  20     1.352773077792   120.73759875     0.27865223
 C     25  13  17     1.410897586645   125.60330303   182.37774668
 C     14  13  12     1.376642291955    80.24689249   177.85461986
 C     14  13  12     5.764089607215   164.51507311   312.20821879
 C     29  14  13     1.435600919476   106.58649366   178.76395472
 C     30  14  13     2.413316804732    27.10625047    82.12560436
 C     32  30  14     1.403734305344    87.90059683   149.76154742
 C     33  32  30     1.380694028378   120.14881443   359.74174632
 C     34  33  32     2.448777858443   152.49203239     2.45173620
 C     31  29  14     1.368160809262   108.16950133     0.70383075
 C     14  13  12     1.376239804685   169.26375223   353.09862627
 C     30  14  13     1.380907310430    14.68948582   353.70041132
 N     34  33  32     1.352658863128   120.85575621     0.19603406
 C     37  14  29     1.404717053360   126.01551127   180.90772073
 C     15  14  13     1.366491126938    81.61824056   183.09049352
 C      2   1   3     4.249062720177   145.49627675   149.33505266
 C     41  15  14     1.459677704153   111.05201287   175.08990246
 C     42   2   1     2.412953791518    41.78584867   175.77718561
 C     44  42   2     1.403446472082    87.95153797   233.97558675
 C     45  44  42     1.381696421071   120.11137308     0.19721020
 C     42   2   1     2.450019795838   135.97209175    86.09203471
 C     43  41  15     1.354461516618   106.26758155     0.30894352
 C     15  14  13     1.367461151185   171.87382904   332.35056460
 C     42   2   1     1.381886391857    32.59078432   224.63246480
 C      9   2   1     1.404988612053   126.98745415   183.34349263
 N     42   2   1     1.352765315936   113.57249190   113.82862390
 H      1   2   3     1.083520650472    97.61342589   175.37008345
 H      2   1   3     1.079907866440   109.43813708   176.31432420
 H      4   3   1     1.083110336023   121.07665237   179.59254783
 H      5   4   3     1.083062325076   122.81961337   179.47155207
 H      6   5   4     1.092924974552   104.39837977   100.11642002
 H      6   5   4     1.090072015970    84.66676837   209.54446854
 H      6   5   4     1.089353477986   133.89646774   322.36332558
 H      7   2   1     1.079807853278   126.66122480     9.51074089
 H     60   7   2     0.979523863926   123.54708355   212.30540743
 H     12   9   2     1.016297692608   125.29023241   180.00180175
 H     14  13  12     1.014936943854    44.97226959   359.42596618
 H     18  14  13     1.082871645210   128.03556573   234.20482432
 H     55   4   3     0.978495784355   132.05609394    64.63804954
 H     21  20  18     1.083569563987   121.05669627   180.67006309
 H     22  21  20     1.082483256222   122.73097286   180.59748951
 H     23  18  14     1.092105306278   103.92715769   234.93429879
 H     23  18  14     1.088871893291   134.19244188    12.25587044
 H     23  18  14     1.089833473518    84.85857450   125.45241208
 H     24  19  17     1.080075460327   127.28078426   178.44613241
 H     26  18  14     1.083408048706   118.76995697   244.94906660
 H     30  14  13     1.082703098730   127.99711412   279.66882698
 H     31  29  14     1.079759695488   125.22293469   180.92530585
 H     33  32  30     1.083188810873   121.01964473   180.74284758
 H     34  33  32     1.082494341787   122.70821597   180.59516895
 H     35  34  33     1.092652735319   105.73575241    97.19771933
 H     35  34  33     1.089462711615    84.05943581   206.43036958
 H     35  34  33     1.089268102902   133.08365142   318.50306270
 H     36  31  29     1.079439669458   126.61599965   178.98859863
 H     38  30  73     1.083742127999   118.77264435   359.90091293
 H     42   2   1     1.082178358682   119.31790784   330.46015436
 H     43  41  15     1.080281907652   126.36969097   182.06329380
 H     45  44  42     1.083277434455   121.10105945   179.58025624
 H     46  45  44     1.082194529648   122.72144639   179.46906377
 H     47  42   2     1.091546151109   106.65128841   315.16475048
 H     47  42   2     1.088818625851   132.46019523    94.52397119
 H     47  42   2     1.089531091801    83.63838232   206.04504406
 H     48  43  41     1.080402239909   127.23657387   181.62955349
 H     50  42   2     1.083186502870   118.77001737    94.71359229

---------------------------
INTERNAL COORDINATES (A.U.)
---------------------------
 C      0   0   0     0.000000000000     0.00000000     0.00000000
 C      1   0   0     9.729666218746     0.00000000     0.00000000
 C      1   2   0     4.560465159396    55.58186490     0.00000000
 C      3   1   2     2.652719845851    87.92281851   188.88859620
 C      4   3   1     2.608178760459   120.11996121     0.13375068
 C      5   4   3     4.626559804635   152.55042852     1.61690773
 C      2   1   3     2.585360837309    17.29913522     3.29377402
 C      7   2   1     2.710026725231   108.05010202   189.27232710
 C      2   1   3     2.710100516721   125.30015299   353.34112452
 C      1   2   3     2.610280972954    25.97849269     9.93254714
 N      1   2   3     2.556218368719   145.19056226   344.36229706
 N      9   2   1     2.600503484979   106.58526707     2.33915510
 N     12   9   2     5.527566200405   168.53581413   171.12065651
 N     13  12   9     5.583221047236    91.55032014    11.12112580
 N     14  13  12     5.528150518591    88.43092389   359.84326247
 C      8   7   2     2.654668413270   127.24786865   181.11170171
 C     13  12   9     2.582376967257    81.72106996   188.00453233
 C     14  13  12    10.882574804710    80.56209567   166.76250791
 C     17  13  12     2.757130505230   111.08861209   183.82872609
 C     18  14  13     4.558465206823    27.27532823    36.33507194
 C     20  18  14     2.650705180609    87.95206320   148.94598259
 C     21  20  18     2.611803198586   120.14573887   359.70382047
 C     18  14  13     4.623235745386   144.15733107    82.80075377
 C     19  17  13     2.557953565794   106.29293361   359.75308708
 C     13  12   9     2.582903091751   172.21332906    33.46711076
 C     18  14  13     2.609636529225    15.08449437   309.23336894
 N     22  21  20     2.556370638369   120.73759875     0.27865223
 C     25  13  17     2.666210041769   125.60330303   182.37774668
 C     14  13  12     2.601476916169    80.24689249   177.85461986
 C     14  13  12    10.892550769017   164.51507311   312.20821879
 C     29  14  13     2.712892575415   106.58649366   178.76395472
 C     30  14  13     4.560507835333    27.10625047    82.12560436
 C     32  30  14     2.652673401891    87.90059683   149.76154742
 C     33  32  30     2.609133588376   120.14881443   359.74174632
 C     34  33  32     4.627519515267   152.49203239     2.45173620
 C     31  29  14     2.585449236669   108.16950133     0.70383075
 C     14  13  12     2.600716325456   169.26375223   353.09862627
 C     30  14  13     2.609536633043    14.68948582   353.70041132
 N     34  33  32     2.556154803934   120.85575621     0.19603406
 C     37  14  29     2.654530526499   126.01551127   180.90772073
 C     15  14  13     2.582293994346    81.61824056   183.09049352
 C      2   1   3     8.029564866989   145.49627675   149.33505266
 C     41  15  14     2.758391104639   111.05201287   175.08990246
 C     42   2   1     4.559821839776    41.78584867   175.77718561
 C     44  42   2     2.652129475853    87.95153797   233.97558675
 C     45  44  42     2.611027836043   120.11137308     0.19721020
 C     42   2   1     4.629866436820   135.97209175    86.09203471
 C     43  41  15     2.559561325344   106.26758155     0.30894352
 C     15  14  13     2.584127074516   171.87382904   332.35056460
 C     42   2   1     2.611386828803    32.59078432   224.63246480
 C      9   2   1     2.655043698059   126.98745415   183.34349263
 N     42   2   1     2.556355970587   113.57249190   113.82862390
 H      1   2   3     2.047557289841    97.61342589   175.37008345
 H      2   1   3     2.040730117440   109.43813708   176.31432420
 H      4   3   1     2.046781907903   121.07665237   179.59254783
 H      5   4   3     2.046691180362   122.81961337   179.47155207
 H      6   5   4     2.065328886827   104.39837977   100.11642002
 H      6   5   4     2.059937576434    84.66676837   209.54446854
 H      6   5   4     2.058579736428   133.89646774   322.36332558
 H      7   2   1     2.040541119952   126.66122480     9.51074089
 H     60   7   2     1.851031844460   123.54708355   212.30540743
 H     12   9   2     1.920524309565   125.29023241   180.00180175
 H     14  13  12     1.917952867083    44.97226959   359.42596618
 H     18  14  13     2.046330847636   128.03556573   234.20482432
 H     55   4   3     1.849089055627   132.05609394    64.63804954
 H     21  20  18     2.047649722989   121.05669627   180.67006309
 H     22  21  20     2.045596898814   122.73097286   180.59748951
 H     23  18  14     2.063779938267   103.92715769   234.93429879
 H     23  18  14     2.057669673245   134.19244188    12.25587044
 H     23  18  14     2.059486796529    84.85857450   125.45241208
 H     24  19  17     2.041046823986   127.28078426   178.44613241
 H     26  18  14     2.047344503340   118.76995697   244.94906660
 H     30  14  13     2.046012340948   127.99711412   279.66882698
 H     31  29  14     2.040450114918   125.22293469   180.92530585
 H     33  32  30     2.046930203877   121.01964473   180.74284758
 H     34  33  32     2.045617847496   122.70821597   180.59516895
 H     35  34  33     2.064814429233   105.73575241    97.19771933
 H     35  34  33     2.058786158072    84.05943581   206.43036958
 H     35  34  33     2.058418400901   133.08365142   318.50306270
 H     36  31  29     2.039845353366   126.61599965   178.98859863
 H     38  30  73     2.047975821711   118.77264435   359.90091293
 H     42   2   1     2.045020725966   119.31790784   330.46015436
 H     43  41  15     2.041436952892   126.36969097   182.06329380
 H     45  44  42     2.047097678177   121.10105945   179.58025624
 H     46  45  44     2.045051284662   122.72144639   179.46906377
 H     47  42   2     2.062723288131   106.65128841   315.16475048
 H     47  42   2     2.057569012371   132.46019523    94.52397119
 H     47  42   2     2.058915377895    83.63838232   206.04504406
 H     48  43  41     2.041664347903   127.23657387   181.62955349
 H     50  42   2     2.046925842384   118.77001737    94.71359229

---------------------
BASIS SET INFORMATION
---------------------
There are 3 groups of distinct atoms

 Group   1 Type C   : 17s4p1d contracted to 3s2p1d pattern {881/31/1}
 Group   2 Type N   : 17s4p1d contracted to 3s2p1d pattern {881/31/1}
 Group   3 Type H   : 4s1p contracted to 2s1p pattern {31/1}

Atom   0C    basis set group =>   1
Atom   1N    basis set group =>   2
Atom   2C    basis set group =>   1
Atom   3N    basis set group =>   2
Atom   4C    basis set group =>   1
Atom   5N    basis set group =>   2
Atom   6C    basis set group =>   1
Atom   7N    basis set group =>   2
Atom   8C    basis set group =>   1
Atom   9N    basis set group =>   2
Atom  10C    basis set group =>   1
Atom  11N    basis set group =>   2
Atom  12C    basis set group =>   1
Atom  13N    basis set group =>   2
Atom  14C    basis set group =>   1
Atom  15N    basis set group =>   2
Atom  16C    basis set group =>   1
Atom  17C    basis set group =>   1
Atom  18C    basis set group =>   1
Atom  19C    basis set group =>   1
Atom  20C    basis set group =>   1
Atom  21C    basis set group =>   1
Atom  22C    basis set group =>   1
Atom  23C    basis set group =>   1
Atom  24C    basis set group =>   1
Atom  25C    basis set group =>   1
Atom  26C    basis set group =>   1
Atom  27C    basis set group =>   1
Atom  28C    basis set group =>   1
Atom  29C    basis set group =>   1
Atom  30C    basis set group =>   1
Atom  31C    basis set group =>   1
Atom  32C    basis set group =>   1
Atom  33C    basis set group =>   1
Atom  34C    basis set group =>   1
Atom  35C    basis set group =>   1
Atom  36C    basis set group =>   1
Atom  37C    basis set group =>   1
Atom  38C    basis set group =>   1
Atom  39C    basis set group =>   1
Atom  40C    basis set group =>   1
Atom  41C    basis set group =>   1
Atom  42C    basis set group =>   1
Atom  43C    basis set group =>   1
Atom  44C    basis set group =>   1
Atom  45C    basis set group =>   1
Atom  46C    basis set group =>   1
Atom  47C    basis set group =>   1
Atom  48C    basis set group =>   1
Atom  49C    basis set group =>   1
Atom  50C    basis set group =>   1
Atom  51C    basis set group =>   1
Atom  52H    basis set group =>   3
Atom  53H    basis set group =>   3
Atom  54H    basis set group =>   3
Atom  55H    basis set group =>   3
Atom  56H    basis set group =>   3
Atom  57H    basis set group =>   3
Atom  58H    basis set group =>   3
Atom  59H    basis set group =>   3
Atom  60H    basis set group =>   3
Atom  61H    basis set group =>   3
Atom  62H    basis set group =>   3
Atom  63H    basis set group =>   3
Atom  64H    basis set group =>   3
Atom  65H    basis set group =>   3
Atom  66H    basis set group =>   3
Atom  67H    basis set group =>   3
Atom  68H    basis set group =>   3
Atom  69H    basis set group =>   3
Atom  70H    basis set group =>   3
Atom  71H    basis set group =>   3
Atom  72H    basis set group =>   3
Atom  73H    basis set group =>   3
Atom  74H    basis set group =>   3
Atom  75H    basis set group =>   3
Atom  76H    basis set group =>   3
Atom  77H    basis set group =>   3
Atom  78H    basis set group =>   3
Atom  79H    basis set group =>   3
Atom  80H    basis set group =>   3
Atom  81H    basis set group =>   3
Atom  82H    basis set group =>   3
Atom  83H    basis set group =>   3
Atom  84H    basis set group =>   3
Atom  85H    basis set group =>   3
Atom  86H    basis set group =>   3
Atom  87H    basis set group =>   3
Atom  88H    basis set group =>   3
Atom  89H    basis set group =>   3


           ************************************************************
           *        Program running with 8 parallel MPI-processes     *
           *              working on a common directory               *
           ************************************************************
------------------------------------------------------------------------------
                           ORCA GTO INTEGRAL CALCULATION
------------------------------------------------------------------------------
------------------------------------------------------------------------------
                   ___                                                        
                  /   \      - P O W E R E D   B Y -                         
                 /     \                                                     
                 |  |  |   _    _      __       _____    __    __             
                 |  |  |  | |  | |    /  \     |  _  \  |  |  /  |          
                  \  \/   | |  | |   /    \    | | | |  |  | /  /          
                 / \  \   | |__| |  /  /\  \   | |_| |  |  |/  /          
                |  |  |   |  __  | /  /__\  \  |    /   |      \           
                |  |  |   | |  | | |   __   |  |    \   |  |\   \          
                \     /   | |  | | |  |  |  |  | |\  \  |  | \   \       
                 \___/    |_|  |_| |__|  |__|  |_| \__\ |__|  \__/        
                                                                              
                      - O R C A' S   B I G   F R I E N D -                    
                                      &                                       
                       - I N T E G R A L  F E E D E R -                       
                                                                              
 v1 FN, 2020, v2 2021                                                         
------------------------------------------------------------------------------


Reading SHARK input file /scratch/chu_02/allen/tmpyp4_amber_gaff2/conf1/conf1/Conf350.orca.SHARKINP.tmp ... ok
----------------------
SHARK INTEGRAL PACKAGE
----------------------

Number of atoms                             ...     90
Number of basis functions                   ...   1230
Number of shells                            ...    738
Maximum angular momentum                    ...      2
Integral batch strategy                     ... SHARK/LIBINT Hybrid
RI-J (if used) integral strategy            ... SPLIT-RIJ (Revised 2003 algorithm where possible)
Printlevel                                  ...      1
Contraction scheme used                     ... PARTIAL GENERAL contraction
Coulomb Range Separation                    ... NOT USED
Exchange Range Separation                   ... NOT USED
Finite Nucleus Model                        ... NOT USED
Auxiliary Coulomb fitting basis             ... NOT available
Auxiliary J/K fitting basis                 ... NOT available
Auxiliary Correlation fitting basis         ... NOT available
Auxiliary 'external' fitting basis          ... NOT available
Integral threshold                          ...     2.500000e-11
Primitive cut-off                           ...     2.500000e-12
Primitive pair pre-selection threshold      ...     2.500000e-12

Calculating pre-screening integrals         ... done (  0.1 sec) Dimension = 738
Calculating pre-screening integrals (ORCA)  ... done (  0.3 sec) Dimension = 426
Organizing shell pair data                  ... done (  0.5 sec)
Shell pair information
Total number of shell pairs                 ...    272691
Shell pairs after pre-screening             ...     71721
Total number of primitive shell pairs       ...    422091
Primitive shell pairs kept                  ...     92632
          la=0 lb=0:  29437 shell pairs
          la=1 lb=0:  26041 shell pairs
          la=1 lb=1:   4700 shell pairs
          la=2 lb=0:   7888 shell pairs
          la=2 lb=1:   3126 shell pairs
          la=2 lb=2:    529 shell pairs

Calculating one electron integrals          ... done (  0.2 sec)
Calculating Nuclear repulsion               ... done (  0.0 sec) ENN=   6234.977411319754 Eh

SHARK setup successfully completed in   1.7 seconds

Maximum memory used throughout the entire GTOINT-calculation: 99.1 MB


           ************************************************************
           *        Program running with 8 parallel MPI-processes     *
           *              working on a common directory               *
           ************************************************************
-------------------------------------------------------------------------------
                                 ORCA SCF
-------------------------------------------------------------------------------

------------
SCF SETTINGS
------------
Hamiltonian:
 Ab initio Hamiltonian  Method          .... Hartree-Fock(GTOs)


General Settings:
 Integral files         IntName         .... /scratch/chu_02/allen/tmpyp4_amber_gaff2/conf1/conf1/Conf350.orca
 Hartree-Fock type      HFTyp           .... RHF
 Total Charge           Charge          ....    0
 Multiplicity           Mult            ....    1
 Number of Electrons    NEL             ....  358
 Basis Dimension        Dim             ....  918
 Nuclear Repulsion      ENuc            ....   6234.9774113198 Eh

Convergence Acceleration:
 DIIS                   CNVDIIS         .... on
   Start iteration      DIISMaxIt       ....    12
   Startup error        DIISStart       ....  0.200000
   # of expansion vecs  DIISMaxEq       ....     5
   Bias factor          DIISBfac        ....   1.050
   Max. coefficient     DIISMaxC        ....  10.000
 Trust-Rad. Augm. Hess. CNVTRAH         .... auto
   Auto Start mean grad. ratio tolernc. ....  1.125000
   Auto Start start iteration           ....    20
   Auto Start num. interpolation iter.  ....    10
   Max. Number of Micro iterations      ....    16
   Max. Number of Macro iterations      .... Maxiter - #DIIS iter
   Number of Davidson start vectors     ....     2
   Converg. threshold I  (grad. norm)   ....   1.000e-05
   Converg. threshold II (energy diff.) ....   1.000e-08
   Grad. Scal. Fac. for Micro threshold ....   0.100
   Minimum threshold for Micro iter.    ....   0.010
   NR start threshold (gradient norm)   ....   0.001
   Initial trust radius                 ....   0.400
   Minimum AH scaling param. (alpha)    ....   1.000
   Maximum AH scaling param. (alpha)    .... 1000.000
   Orbital update algorithm             .... Taylor
   White noise on init. David. guess    .... on
   Maximum white noise                  ....   0.010
   Quad. conv. algorithm                .... NR
 SOSCF                  CNVSOSCF        .... on
   Start iteration      SOSCFMaxIt      ....   150
   Startup grad/error   SOSCFStart      ....  0.003300
 Level Shifting         CNVShift        .... on
   Level shift para.    LevelShift      ....    0.2500
   Turn off err/grad.   ShiftErr        ....    0.0010
 Zerner damping         CNVZerner       .... off
 Static damping         CNVDamp         .... on
   Fraction old density DampFac         ....    0.7000
   Max. Damping (<1)    DampMax         ....    0.9800
   Min. Damping (>=0)   DampMin         ....    0.0000
   Turn off err/grad.   DampErr         ....    0.1000
 Fernandez-Rico         CNVRico         .... off

SCF Procedure:
 Maximum # iterations   MaxIter         ....   125
 SCF integral mode      SCFMode         .... Direct
   Integral package                     .... SHARK and LIBINT hybrid scheme
 Reset frequency        DirectResetFreq ....    20
 Integral Threshold     Thresh          ....  2.500e-11 Eh
 Primitive CutOff       TCut            ....  2.500e-12 Eh

Convergence Tolerance:
 Convergence Check Mode ConvCheckMode   .... Total+1el-Energy
 Convergence forced     ConvForced      .... 1
 Energy Change          TolE            ....  1.000e-08 Eh
 1-El. energy change                    ....  1.000e-05 Eh
 Orbital Gradient       TolG            ....  1.000e-05
 Orbital Rotation angle TolX            ....  1.000e-05
 DIIS Error             TolErr          ....  5.000e-07


Diagonalization of the overlap matrix:
Smallest eigenvalue                        ... 1.721e-04
Time for diagonalization                   ...    0.228 sec
Threshold for overlap eigenvalues          ... 1.000e-08
Number of eigenvalues below threshold      ... 0
Time for construction of square roots      ...    0.133 sec
Total time needed                          ...    0.366 sec

Time for model grid setup =    1.330 sec

------------------------------
INITIAL GUESS: MODEL POTENTIAL
------------------------------
Loading Hartree-Fock densities                     ... done
Calculating cut-offs                               ... done
Initializing the effective Hamiltonian             ... done
Setting up the integral package (SHARK)            ... done
Starting the Coulomb interaction                   ... done (   1.6 sec)
Reading the grid                                   ... done
Mapping shells                                     ... done
Starting the XC term evaluation                    ... done (   0.3 sec)
Transforming the Hamiltonian                       ... done (   0.1 sec)
Diagonalizing the Hamiltonian                      ... done (   0.2 sec)
Back transforming the eigenvectors                 ... done (   0.0 sec)
Now organizing SCF variables                       ... done
                      ------------------
                      INITIAL GUESS DONE (   3.6 sec)
                      ------------------
--------------
SCF ITERATIONS
--------------
ITER       Energy         Delta-E        Max-DP      RMS-DP      [F,P]     Damp
               ***  Starting incremental Fock matrix formation  ***
  0  -2121.6126197227   0.000000000000 0.08063585  0.00127879  0.2311585 0.7000
  1  -2122.2547091356  -0.642089412866 0.06111004  0.00104288  0.1434640 0.7000
                               ***Turning on DIIS***
  2  -2122.6553920162  -0.400682880629 0.14218473  0.00236490  0.0803127 0.0000
  3  -2118.0485518555   4.606840160690 0.07157259  0.00070855  0.0434222 0.0000
  4  -2123.3534284470  -5.304876591459 0.02068552  0.00023411  0.0092764 0.0000
  5  -2123.4839715030  -0.130543055968 0.01007963  0.00013449  0.0048291 0.0000
  6  -2123.4681069393   0.015864563715 0.00633828  0.00008590  0.0022385 0.0000
  7  -2123.5600796580  -0.091972718721 0.00397360  0.00006747  0.0016286 0.0000
  8  -2123.5664228320  -0.006343174069 0.00334827  0.00006445  0.0015248 0.0000
  9  -2123.5398424074   0.026580424621 0.00268572  0.00004602  0.0012271 0.0000
 10  -2123.5474200327  -0.007577625262 0.00541020  0.00009677  0.0009611 0.0000
                      *** Initiating the SOSCF procedure ***
                           *** Shutting down DIIS ***
                      *** Re-Reading the Fockian *** 
                      *** Removing any level shift *** 
ITER      Energy       Delta-E        Grad      Rot      Max-DP    RMS-DP
 11  -2123.44225831   0.1051617187  0.000179  0.000179  0.000244  0.000005
               *** Restarting incremental Fock matrix formation ***
 12  -2123.50764735  -0.0653890320  0.000912  0.006280  0.001502  0.000036
 13  -2123.50775993  -0.0001125859  0.001122  0.030520  0.006824  0.000138
 14  -2123.50794571  -0.0001857757  0.000392  0.001958  0.000613  0.000013
 15  -2123.50796076  -0.0000150551  0.000170  0.002000  0.000491  0.000013
 16  -2123.50796726  -0.0000064954  0.000135  0.002077  0.000484  0.000008
 17  -2123.50796972  -0.0000024604  0.000119  0.001721  0.000283  0.000007
 18  -2123.50797080  -0.0000010812  0.000056  0.000844  0.000209  0.000003
 19  -2123.50797142  -0.0000006156  0.000042  0.001323  0.000218  0.000005
 20  -2123.50797180  -0.0000003799  0.000023  0.000798  0.000114  0.000003
 21  -2123.50797197  -0.0000001718  0.000026  0.001063  0.000152  0.000003
 22  -2123.50797214  -0.0000001712  0.000020  0.000977  0.000149  0.000003
 23  -2123.50797225  -0.0000001084  0.000015  0.000436  0.000072  0.000001
 24  -2123.50797229  -0.0000000481  0.000008  0.000312  0.000053  0.000001
 25  -2123.50797233  -0.0000000316  0.000008  0.000129  0.000039  0.000001
 26  -2123.50797234  -0.0000000163  0.000006  0.000078  0.000029  0.000000
 27  -2123.50797235  -0.0000000060  0.000003  0.000059  0.000020  0.000000
                  ***Gradient check signals convergence***
              ***Rediagonalizing the Fockian in SOSCF/NRSCF***

               *****************************************************
               *                     SUCCESS                       *
               *           SCF CONVERGED AFTER  28 CYCLES          *
               *****************************************************


----------------
TOTAL SCF ENERGY
----------------

Total Energy       :        -2123.50797235 Eh          -57783.58959 eV

Components:
Nuclear Repulsion  :         6234.97741132 Eh          169662.36083 eV
Electronic Energy  :        -8358.48538367 Eh         -227445.95042 eV
One Electron Energy:       -15310.47422371 Eh         -416619.18414 eV
Two Electron Energy:         6951.98884004 Eh          189173.23372 eV

Virial components:
Potential Energy   :        -4246.02265119 Eh         -115540.15029 eV
Kinetic Energy     :         2122.51467884 Eh           57756.56070 eV
Virial Ratio       :            2.00046798


---------------
SCF CONVERGENCE
---------------

  Last Energy change         ...   -5.0895e-09  Tolerance :   1.0000e-08
  Last MAX-Density change    ...    9.3828e-06  Tolerance :   1.0000e-07
  Last RMS-Density change    ...    1.8283e-07  Tolerance :   5.0000e-09
  Last Orbital Gradient      ...    1.7443e-06  Tolerance :   1.0000e-05
  Last Orbital Rotation      ...    4.3656e-05  Tolerance :   1.0000e-05

             **** THE GBW FILE WAS UPDATED (/scratch/chu_02/allen/tmpyp4_amber_gaff2/conf1/conf1/Conf350.orca.gbw) ****
             **** DENSITY /scratch/chu_02/allen/tmpyp4_amber_gaff2/conf1/conf1/Conf350.orca.scfp WAS UPDATED ****
             **** ENERGY FILE WAS UPDATED (/scratch/chu_02/allen/tmpyp4_amber_gaff2/conf1/conf1/Conf350.orca.en.tmp) ****
             **** THE GBW FILE WAS UPDATED (/scratch/chu_02/allen/tmpyp4_amber_gaff2/conf1/conf1/Conf350.orca.gbw) ****
             **** DENSITY /scratch/chu_02/allen/tmpyp4_amber_gaff2/conf1/conf1/Conf350.orca.scfp WAS UPDATED ****
----------------
ORBITAL ENERGIES
----------------

  NO   OCC          E(Eh)            E(eV) 
   0   2.0000     -15.680501      -426.6881 
   1   2.0000     -15.634604      -425.4392 
   2   2.0000     -15.631446      -425.3533 
   3   2.0000     -15.587141      -424.1477 
   4   2.0000     -15.525395      -422.4675 
   5   2.0000     -15.515367      -422.1946 
   6   2.0000     -15.453828      -420.5200 
   7   2.0000     -15.440056      -420.1453 
   8   2.0000     -11.330069      -308.3069 
   9   2.0000     -11.328885      -308.2746 
  10   2.0000     -11.328367      -308.2605 
  11   2.0000     -11.299713      -307.4808 
  12   2.0000     -11.298120      -307.4375 
  13   2.0000     -11.293544      -307.3130 
  14   2.0000     -11.290936      -307.2420 
  15   2.0000     -11.287131      -307.1384 
  16   2.0000     -11.286145      -307.1116 
  17   2.0000     -11.282717      -307.0183 
  18   2.0000     -11.269383      -306.6555 
  19   2.0000     -11.263871      -306.5055 
  20   2.0000     -11.262877      -306.4785 
  21   2.0000     -11.251357      -306.1650 
  22   2.0000     -11.247715      -306.0659 
  23   2.0000     -11.238371      -305.8116 
  24   2.0000     -11.236244      -305.7537 
  25   2.0000     -11.231602      -305.6274 
  26   2.0000     -11.230944      -305.6095 
  27   2.0000     -11.229451      -305.5689 
  28   2.0000     -11.229160      -305.5610 
  29   2.0000     -11.211537      -305.0814 
  30   2.0000     -11.210133      -305.0432 
  31   2.0000     -11.193316      -304.5856 
  32   2.0000     -11.191848      -304.5457 
  33   2.0000     -11.191007      -304.5228 
  34   2.0000     -11.188421      -304.4524 
  35   2.0000     -11.188012      -304.4413 
  36   2.0000     -11.187010      -304.4140 
  37   2.0000     -11.175253      -304.0941 
  38   2.0000     -11.174814      -304.0821 
  39   2.0000     -11.172676      -304.0240 
  40   2.0000     -11.171649      -303.9960 
  41   2.0000     -11.170323      -303.9599 
  42   2.0000     -11.168956      -303.9227 
  43   2.0000     -11.161987      -303.7331 
  44   2.0000     -11.160411      -303.6902 
  45   2.0000     -11.156754      -303.5907 
  46   2.0000     -11.156566      -303.5856 
  47   2.0000     -11.152260      -303.4684 
  48   2.0000     -11.146315      -303.3067 
  49   2.0000     -11.134854      -302.9948 
  50   2.0000     -11.129580      -302.8513 
  51   2.0000     -11.116823      -302.5041 
  52   2.0000      -1.360980       -37.0341 
  53   2.0000      -1.321766       -35.9671 
  54   2.0000      -1.319283       -35.8995 
  55   2.0000      -1.279801       -34.8252 
  56   2.0000      -1.226589       -33.3772 
  57   2.0000      -1.210040       -32.9269 
  58   2.0000      -1.173504       -31.9327 
  59   2.0000      -1.150867       -31.3167 
  60   2.0000      -1.144149       -31.1339 
  61   2.0000      -1.110665       -30.2227 
  62   2.0000      -1.108724       -30.1699 
  63   2.0000      -1.082631       -29.4599 
  64   2.0000      -1.076518       -29.2935 
  65   2.0000      -1.045933       -28.4613 
  66   2.0000      -1.043939       -28.4070 
  67   2.0000      -1.041520       -28.3412 
  68   2.0000      -1.015138       -27.6233 
  69   2.0000      -1.012820       -27.5602 
  70   2.0000      -1.008724       -27.4488 
  71   2.0000      -0.993990       -27.0479 
  72   2.0000      -0.985391       -26.8138 
  73   2.0000      -0.982062       -26.7233 
  74   2.0000      -0.972947       -26.4752 
  75   2.0000      -0.962022       -26.1779 
  76   2.0000      -0.954643       -25.9772 
  77   2.0000      -0.945687       -25.7334 
  78   2.0000      -0.937288       -25.5049 
  79   2.0000      -0.916766       -24.9465 
  80   2.0000      -0.911033       -24.7905 
  81   2.0000      -0.897196       -24.4140 
  82   2.0000      -0.877028       -23.8652 
  83   2.0000      -0.872822       -23.7507 
  84   2.0000      -0.870348       -23.6834 
  85   2.0000      -0.859815       -23.3967 
  86   2.0000      -0.841844       -22.9077 
  87   2.0000      -0.836863       -22.7722 
  88   2.0000      -0.827747       -22.5242 
  89   2.0000      -0.796530       -21.6747 
  90   2.0000      -0.788705       -21.4618 
  91   2.0000      -0.764309       -20.7979 
  92   2.0000      -0.753330       -20.4992 
  93   2.0000      -0.733998       -19.9731 
  94   2.0000      -0.727017       -19.7831 
  95   2.0000      -0.724296       -19.7091 
  96   2.0000      -0.719036       -19.5660 
  97   2.0000      -0.717167       -19.5151 
  98   2.0000      -0.712512       -19.3884 
  99   2.0000      -0.698634       -19.0108 
 100   2.0000      -0.697434       -18.9782 
 101   2.0000      -0.691859       -18.8264 
 102   2.0000      -0.685612       -18.6565 
 103   2.0000      -0.684696       -18.6315 
 104   2.0000      -0.679009       -18.4768 
 105   2.0000      -0.674363       -18.3504 
 106   2.0000      -0.672611       -18.3027 
 107   2.0000      -0.660122       -17.9628 
 108   2.0000      -0.657921       -17.9029 
 109   2.0000      -0.653268       -17.7763 
 110   2.0000      -0.651664       -17.7327 
 111   2.0000      -0.646657       -17.5964 
 112   2.0000      -0.645539       -17.5660 
 113   2.0000      -0.637726       -17.3534 
 114   2.0000      -0.635723       -17.2989 
 115   2.0000      -0.627833       -17.0842 
 116   2.0000      -0.622437       -16.9374 
 117   2.0000      -0.620407       -16.8821 
 118   2.0000      -0.613447       -16.6927 
 119   2.0000      -0.612756       -16.6739 
 120   2.0000      -0.611870       -16.6498 
 121   2.0000      -0.611094       -16.6287 
 122   2.0000      -0.600577       -16.3425 
 123   2.0000      -0.588259       -16.0074 
 124   2.0000      -0.582011       -15.8373 
 125   2.0000      -0.580786       -15.8040 
 126   2.0000      -0.580067       -15.7844 
 127   2.0000      -0.571615       -15.5544 
 128   2.0000      -0.567954       -15.4548 
 129   2.0000      -0.559841       -15.2340 
 130   2.0000      -0.554087       -15.0775 
 131   2.0000      -0.548261       -14.9189 
 132   2.0000      -0.543056       -14.7773 
 133   2.0000      -0.541120       -14.7246 
 134   2.0000      -0.538924       -14.6649 
 135   2.0000      -0.535727       -14.5779 
 136   2.0000      -0.530937       -14.4475 
 137   2.0000      -0.518299       -14.1036 
 138   2.0000      -0.517789       -14.0897 
 139   2.0000      -0.514249       -13.9934 
 140   2.0000      -0.512303       -13.9405 
 141   2.0000      -0.510328       -13.8867 
 142   2.0000      -0.508851       -13.8465 
 143   2.0000      -0.504292       -13.7225 
 144   2.0000      -0.501748       -13.6532 
 145   2.0000      -0.495251       -13.4765 
 146   2.0000      -0.489362       -13.3162 
 147   2.0000      -0.481313       -13.0972 
 148   2.0000      -0.476984       -12.9794 
 149   2.0000      -0.467913       -12.7325 
 150   2.0000      -0.466138       -12.6843 
 151   2.0000      -0.456746       -12.4287 
 152   2.0000      -0.451470       -12.2851 
 153   2.0000      -0.445255       -12.1160 
 154   2.0000      -0.438478       -11.9316 
 155   2.0000      -0.427429       -11.6309 
 156   2.0000      -0.409432       -11.1412 
 157   2.0000      -0.397837       -10.8257 
 158   2.0000      -0.391636       -10.6570 
 159   2.0000      -0.388067       -10.5598 
 160   2.0000      -0.380917       -10.3653 
 161   2.0000      -0.376509       -10.2453 
 162   2.0000      -0.369793       -10.0626 
 163   2.0000      -0.357095        -9.7171 
 164   2.0000      -0.355584        -9.6759 
 165   2.0000      -0.341856        -9.3024 
 166   2.0000      -0.337820        -9.1926 
 167   2.0000      -0.325141        -8.8475 
 168   2.0000      -0.320192        -8.7129 
 169   2.0000      -0.305853        -8.3227 
 170   2.0000      -0.299276        -8.1437 
 171   2.0000      -0.285202        -7.7607 
 172   2.0000      -0.278486        -7.5780 
 173   2.0000      -0.263443        -7.1686 
 174   2.0000      -0.241551        -6.5729 
 175   2.0000      -0.190078        -5.1723 
 176   2.0000      -0.181167        -4.9298 
 177   2.0000      -0.080009        -2.1771 
 178   2.0000      -0.059794        -1.6271 
 179   0.0000       0.028216         0.7678 
 180   0.0000       0.065094         1.7713 
 181   0.0000       0.090148         2.4531 
 182   0.0000       0.105781         2.8785 
 183   0.0000       0.115705         3.1485 
 184   0.0000       0.136642         3.7182 
 185   0.0000       0.139614         3.7991 
 186   0.0000       0.140584         3.8255 
 187   0.0000       0.164456         4.4751 
 188   0.0000       0.164917         4.4876 
 189   0.0000       0.165901         4.5144 
 190   0.0000       0.174016         4.7352 
 191   0.0000       0.179992         4.8978 
 192   0.0000       0.183404         4.9907 
 193   0.0000       0.189735         5.1630 
 194   0.0000       0.204490         5.5644 
 195   0.0000       0.205775         5.5994 
 196   0.0000       0.207862         5.6562 
 197   0.0000       0.208941         5.6856 
 198   0.0000       0.216187         5.8828 
 199   0.0000       0.228619         6.2210 
 200   0.0000       0.233378         6.3505 
 201   0.0000       0.235158         6.3990 
 202   0.0000       0.238861         6.4997 
 203   0.0000       0.239820         6.5258 
 204   0.0000       0.245858         6.6901 
 205   0.0000       0.254604         6.9281 
 206   0.0000       0.256426         6.9777 
 207   0.0000       0.257712         7.0127 
 208   0.0000       0.259314         7.0563 
 209   0.0000       0.260471         7.0878 
 210   0.0000       0.264478         7.1968 
 211   0.0000       0.265346         7.2204 
 212   0.0000       0.268425         7.3042 
 213   0.0000       0.269296         7.3279 
 214   0.0000       0.273186         7.4338 
 215   0.0000       0.276078         7.5125 
 216   0.0000       0.278533         7.5793 
 217   0.0000       0.281549         7.6613 
 218   0.0000       0.286539         7.7971 
 219   0.0000       0.288124         7.8402 
 220   0.0000       0.289580         7.8799 
 221   0.0000       0.291965         7.9448 
 222   0.0000       0.294903         8.0247 
 223   0.0000       0.296253         8.0615 
 224   0.0000       0.297581         8.0976 
 225   0.0000       0.300186         8.1685 
 226   0.0000       0.304476         8.2852 
 227   0.0000       0.308781         8.4024 
 228   0.0000       0.312861         8.5134 
 229   0.0000       0.324557         8.8316 
 230   0.0000       0.328300         8.9335 
 231   0.0000       0.335263         9.1230 
 232   0.0000       0.343337         9.3427 
 233   0.0000       0.356317         9.6959 
 234   0.0000       0.363272         9.8851 
 235   0.0000       0.366474         9.9723 
 236   0.0000       0.375461        10.2168 
 237   0.0000       0.390830        10.6350 
 238   0.0000       0.395704        10.7677 
 239   0.0000       0.399241        10.8639 
 240   0.0000       0.406817        11.0701 
 241   0.0000       0.410842        11.1796 
 242   0.0000       0.412330        11.2201 
 243   0.0000       0.419802        11.4234 
 244   0.0000       0.428515        11.6605 
 245   0.0000       0.435020        11.8375 
 246   0.0000       0.437063        11.8931 
 247   0.0000       0.440871        11.9967 
 248   0.0000       0.441451        12.0125 
 249   0.0000       0.448372        12.2008 
 250   0.0000       0.456763        12.4291 
 251   0.0000       0.464035        12.6270 
 252   0.0000       0.468221        12.7409 
 253   0.0000       0.470408        12.8005 
 254   0.0000       0.471212        12.8223 
 255   0.0000       0.474255        12.9051 
 256   0.0000       0.478438        13.0190 
 257   0.0000       0.479753        13.0547 
 258   0.0000       0.490111        13.3366 
 259   0.0000       0.494705        13.4616 
 260   0.0000       0.504027        13.7153 
 261   0.0000       0.505278        13.7493 
 262   0.0000       0.506096        13.7716 
 263   0.0000       0.513035        13.9604 
 264   0.0000       0.516434        14.0529 
 265   0.0000       0.520306        14.1582 
 266   0.0000       0.524677        14.2772 
 267   0.0000       0.528686        14.3863 
 268   0.0000       0.530996        14.4491 
 269   0.0000       0.535744        14.5783 
 270   0.0000       0.542034        14.7495 
 271   0.0000       0.550187        14.9713 
 272   0.0000       0.557830        15.1793 
 273   0.0000       0.560077        15.2405 
 274   0.0000       0.560778        15.2595 
 275   0.0000       0.566825        15.4241 
 276   0.0000       0.572890        15.5891 
 277   0.0000       0.573591        15.6082 
 278   0.0000       0.579701        15.7745 
 279   0.0000       0.585563        15.9340 
 280   0.0000       0.590885        16.0788 
 281   0.0000       0.593241        16.1429 
 282   0.0000       0.594813        16.1857 
 283   0.0000       0.595284        16.1985 
 284   0.0000       0.597889        16.2694 
 285   0.0000       0.602695        16.4002 
 286   0.0000       0.605530        16.4773 
 287   0.0000       0.609814        16.5939 
 288   0.0000       0.615381        16.7454 
 289   0.0000       0.623946        16.9784 
 290   0.0000       0.625689        17.0259 
 291   0.0000       0.629435        17.1278 
 292   0.0000       0.632056        17.1991 
 293   0.0000       0.636799        17.3282 
 294   0.0000       0.645076        17.5534 
 295   0.0000       0.648173        17.6377 
 296   0.0000       0.653211        17.7748 
 297   0.0000       0.655759        17.8441 
 298   0.0000       0.660972        17.9860 
 299   0.0000       0.664497        18.0819 
 300   0.0000       0.670258        18.2386 
 301   0.0000       0.675022        18.3683 
 302   0.0000       0.677330        18.4311 
 303   0.0000       0.678802        18.4712 
 304   0.0000       0.680587        18.5197 
 305   0.0000       0.684124        18.6160 
 306   0.0000       0.689025        18.7493 
 307   0.0000       0.692946        18.8560 
 308   0.0000       0.695711        18.9313 
 309   0.0000       0.700413        19.0592 
 310   0.0000       0.702736        19.1224 
 311   0.0000       0.704512        19.1708 
 312   0.0000       0.707443        19.2505 
 313   0.0000       0.710571        19.3356 
 314   0.0000       0.710727        19.3399 
 315   0.0000       0.714733        19.4489 
 316   0.0000       0.716871        19.5071 
 317   0.0000       0.718826        19.5602 
 318   0.0000       0.724612        19.7177 
 319   0.0000       0.727139        19.7865 
 320   0.0000       0.728282        19.8175 
 321   0.0000       0.729365        19.8470 
 322   0.0000       0.730549        19.8793 
 323   0.0000       0.732505        19.9325 
 324   0.0000       0.737710        20.0741 
 325   0.0000       0.741903        20.1882 
 326   0.0000       0.744163        20.2497 
 327   0.0000       0.749270        20.3887 
 328   0.0000       0.754048        20.5187 
 329   0.0000       0.756490        20.5852 
 330   0.0000       0.758704        20.6454 
 331   0.0000       0.764030        20.7903 
 332   0.0000       0.764742        20.8097 
 333   0.0000       0.767565        20.8865 
 334   0.0000       0.769122        20.9289 
 335   0.0000       0.774659        21.0795 
 336   0.0000       0.778267        21.1777 
 337   0.0000       0.781875        21.2759 
 338   0.0000       0.786666        21.4063 
 339   0.0000       0.788974        21.4691 
 340   0.0000       0.792160        21.5558 
 341   0.0000       0.796192        21.6655 
 342   0.0000       0.797904        21.7121 
 343   0.0000       0.803939        21.8763 
 344   0.0000       0.806984        21.9592 
 345   0.0000       0.808101        21.9895 
 346   0.0000       0.809536        22.0286 
 347   0.0000       0.814182        22.1550 
 348   0.0000       0.815957        22.2033 
 349   0.0000       0.816575        22.2201 
 350   0.0000       0.819237        22.2926 
 351   0.0000       0.821753        22.3610 
 352   0.0000       0.827015        22.5042 
 353   0.0000       0.828006        22.5312 
 354   0.0000       0.831167        22.6172 
 355   0.0000       0.831557        22.6278 
 356   0.0000       0.833186        22.6721 
 357   0.0000       0.836139        22.7525 
 358   0.0000       0.839075        22.8324 
 359   0.0000       0.841961        22.9109 
 360   0.0000       0.842691        22.9308 
 361   0.0000       0.843142        22.9431 
 362   0.0000       0.846409        23.0320 
 363   0.0000       0.849061        23.1041 
 364   0.0000       0.849873        23.1262 
 365   0.0000       0.856818        23.3152 
 366   0.0000       0.858157        23.3516 
 367   0.0000       0.863263        23.4906 
 368   0.0000       0.865058        23.5394 
 369   0.0000       0.869059        23.6483 
 370   0.0000       0.870479        23.6869 
 371   0.0000       0.874968        23.8091 
 372   0.0000       0.875688        23.8287 
 373   0.0000       0.877117        23.8676 
 374   0.0000       0.878887        23.9157 
 375   0.0000       0.881701        23.9923 
 376   0.0000       0.889123        24.1943 
 377   0.0000       0.890779        24.2393 
 378   0.0000       0.891871        24.2690 
 379   0.0000       0.895221        24.3602 
 380   0.0000       0.897188        24.4137 
 381   0.0000       0.898220        24.4418 
 382   0.0000       0.900651        24.5080 
 383   0.0000       0.902077        24.5468 
 384   0.0000       0.905183        24.6313 
 385   0.0000       0.907193        24.6860 
 386   0.0000       0.909461        24.7477 
 387   0.0000       0.910947        24.7881 
 388   0.0000       0.913881        24.8680 
 389   0.0000       0.917451        24.9651 
 390   0.0000       0.920008        25.0347 
 391   0.0000       0.925587        25.1865 
 392   0.0000       0.926769        25.2187 
 393   0.0000       0.928441        25.2642 
 394   0.0000       0.930045        25.3078 
 395   0.0000       0.932437        25.3729 
 396   0.0000       0.936315        25.4784 
 397   0.0000       0.941340        25.6152 
 398   0.0000       0.943845        25.6833 
 399   0.0000       0.945989        25.7417 
 400   0.0000       0.948864        25.8199 
 401   0.0000       0.952391        25.9159 
 402   0.0000       0.955739        26.0070 
 403   0.0000       0.956709        26.0334 
 404   0.0000       0.960640        26.1403 
 405   0.0000       0.964681        26.2503 
 406   0.0000       0.969538        26.3825 
 407   0.0000       0.979004        26.6400 
 408   0.0000       0.981714        26.7138 
 409   0.0000       0.986108        26.8334 
 410   0.0000       0.988147        26.8889 
 411   0.0000       0.992896        27.0181 
 412   0.0000       0.996195        27.1078 
 413   0.0000       1.003503        27.3067 
 414   0.0000       1.007716        27.4214 
 415   0.0000       1.014424        27.6039 
 416   0.0000       1.015173        27.6243 
 417   0.0000       1.021689        27.8016 
 418   0.0000       1.025081        27.8939 
 419   0.0000       1.029712        28.0199 
 420   0.0000       1.033514        28.1234 
 421   0.0000       1.038431        28.2571 
 422   0.0000       1.049730        28.5646 
 423   0.0000       1.051224        28.6052 
 424   0.0000       1.054357        28.6905 
 425   0.0000       1.072440        29.1826 
 426   0.0000       1.077318        29.3153 
 427   0.0000       1.078414        29.3451 
 428   0.0000       1.082394        29.4534 
 429   0.0000       1.083351        29.4795 
 430   0.0000       1.087045        29.5800 
 431   0.0000       1.092557        29.7300 
 432   0.0000       1.096098        29.8264 
 433   0.0000       1.103799        30.0359 
 434   0.0000       1.105838        30.0914 
 435   0.0000       1.111844        30.2548 
 436   0.0000       1.113665        30.3044 
 437   0.0000       1.116411        30.3791 
 438   0.0000       1.118846        30.4453 
 439   0.0000       1.120552        30.4918 
 440   0.0000       1.124444        30.5977 
 441   0.0000       1.129408        30.7328 
 442   0.0000       1.130938        30.7744 
 443   0.0000       1.134747        30.8780 
 444   0.0000       1.136615        30.9289 
 445   0.0000       1.139753        31.0143 
 446   0.0000       1.145574        31.1727 
 447   0.0000       1.149855        31.2891 
 448   0.0000       1.154165        31.4064 
 449   0.0000       1.157093        31.4861 
 450   0.0000       1.161385        31.6029 
 451   0.0000       1.164609        31.6906 
 452   0.0000       1.165760        31.7219 
 453   0.0000       1.167678        31.7741 
 454   0.0000       1.170350        31.8468 
 455   0.0000       1.174426        31.9578 
 456   0.0000       1.182311        32.1723 
 457   0.0000       1.188824        32.3495 
 458   0.0000       1.192230        32.4422 
 459   0.0000       1.197409        32.5832 
 460   0.0000       1.201188        32.6860 
 461   0.0000       1.202920        32.7331 
 462   0.0000       1.205763        32.8105 
 463   0.0000       1.206976        32.8435 
 464   0.0000       1.209647        32.9162 
 465   0.0000       1.215152        33.0660 
 466   0.0000       1.220056        33.1994 
 467   0.0000       1.223425        33.2911 
 468   0.0000       1.224825        33.3292 
 469   0.0000       1.230528        33.4844 
 470   0.0000       1.236919        33.6583 
 471   0.0000       1.237868        33.6841 
 472   0.0000       1.240428        33.7538 
 473   0.0000       1.241213        33.7751 
 474   0.0000       1.242969        33.8229 
 475   0.0000       1.247017        33.9331 
 476   0.0000       1.250468        34.0270 
 477   0.0000       1.252843        34.0916 
 478   0.0000       1.255381        34.1607 
 479   0.0000       1.258060        34.2335 
 480   0.0000       1.262170        34.3454 
 481   0.0000       1.269703        34.5504 
 482   0.0000       1.270985        34.5853 
 483   0.0000       1.272928        34.6381 
 484   0.0000       1.274522        34.6815 
 485   0.0000       1.281524        34.8720 
 486   0.0000       1.286454        35.0062 
 487   0.0000       1.287415        35.0323 
 488   0.0000       1.291343        35.1392 
 489   0.0000       1.297606        35.3097 
 490   0.0000       1.298476        35.3333 
 491   0.0000       1.303267        35.4637 
 492   0.0000       1.304794        35.5052 
 493   0.0000       1.309373        35.6298 
 494   0.0000       1.313164        35.7330 
 495   0.0000       1.317410        35.8486 
 496   0.0000       1.319714        35.9112 
 497   0.0000       1.324212        36.0336 
 498   0.0000       1.326998        36.1095 
 499   0.0000       1.328877        36.1606 
 500   0.0000       1.333233        36.2791 
 501   0.0000       1.338233        36.4152 
 502   0.0000       1.342415        36.5290 
 503   0.0000       1.346161        36.6309 
 504   0.0000       1.349087        36.7105 
 505   0.0000       1.350478        36.7484 
 506   0.0000       1.353407        36.8281 
 507   0.0000       1.355821        36.8938 
 508   0.0000       1.360476        37.0204 
[...]
 76 H s       :     0.885209  s :     0.885209
      pz      :     0.022124  p :     0.079789
      px      :     0.043623
      py      :     0.014042
 77 H s       :     0.884384  s :     0.884384
      pz      :     0.047989  p :     0.079305
      px      :     0.015024
      py      :     0.016291
 78 H s       :     0.884741  s :     0.884741
      pz      :     0.025889  p :     0.079274
      px      :     0.020452
      py      :     0.032933
 79 H s       :     0.910739  s :     0.910739
      pz      :     0.021781  p :     0.086294
      px      :     0.021658
      py      :     0.042855
 80 H s       :     0.864252  s :     0.864252
      pz      :     0.039406  p :     0.084856
      px      :     0.030300
      py      :     0.015150
 81 H s       :     0.886759  s :     0.886759
      pz      :     0.037830  p :     0.084127
      px      :     0.016179
      py      :     0.030118
 82 H s       :     0.916129  s :     0.916129
      pz      :     0.021955  p :     0.086720
      px      :     0.031659
      py      :     0.033107
 83 H s       :     0.873517  s :     0.873517
      pz      :     0.039267  p :     0.084098
      px      :     0.015278
      py      :     0.029553
 84 H s       :     0.886732  s :     0.886732
      pz      :     0.035763  p :     0.083420
      px      :     0.031694
      py      :     0.015963
 85 H s       :     0.892842  s :     0.892842
      pz      :     0.022488  p :     0.079783
      px      :     0.014070
      py      :     0.043225
 86 H s       :     0.891039  s :     0.891039
      pz      :     0.024729  p :     0.078824
      px      :     0.032978
      py      :     0.021117
 87 H s       :     0.889833  s :     0.889833
      pz      :     0.048020  p :     0.078742
      px      :     0.015585
      py      :     0.015137
 88 H s       :     0.910496  s :     0.910496
      pz      :     0.021627  p :     0.087029
      px      :     0.042944
      py      :     0.022458
 89 H s       :     0.870919  s :     0.870919
      pz      :     0.037968  p :     0.083862
      px      :     0.030508
      py      :     0.015386


                      *****************************
                      * MAYER POPULATION ANALYSIS *
                      *****************************

  NA   - Mulliken gross atomic population
  ZA   - Total nuclear charge
  QA   - Mulliken gross atomic charge
  VA   - Mayer's total valence
  BVA  - Mayer's bonded valence
  FA   - Mayer's free valence

  ATOM       NA         ZA         QA         VA         BVA        FA
  0 C      5.7766     6.0000     0.2234     3.8499     3.8499     0.0000
  1 N      7.4565     7.0000    -0.4565     3.3426     3.3426    -0.0000
  2 C      6.0772     6.0000    -0.0772     3.9252     3.9252    -0.0000
  3 N      7.3413     7.0000    -0.3413     3.4566     3.4566     0.0000
  4 C      6.0733     6.0000    -0.0733     4.1268     4.1268     0.0000
  5 N      7.5679     7.0000    -0.5679     3.0958     3.0958    -0.0000
  6 C      6.1113     6.0000    -0.1113     3.9317     3.9317     0.0000
  7 N      7.3411     7.0000    -0.3411     3.4320     3.4320    -0.0000
  8 C      5.7874     6.0000     0.2126     3.8470     3.8470    -0.0000
  9 N      7.5624     7.0000    -0.5624     3.0769     3.0769    -0.0000
 10 C      5.8808     6.0000     0.1192     3.9096     3.9096     0.0000
 11 N      7.4383     7.0000    -0.4383     3.3788     3.3788    -0.0000
 12 C      6.0513     6.0000    -0.0513     3.8418     3.8418    -0.0000
 13 N      7.4292     7.0000    -0.4292     3.4292     3.4292     0.0000
 14 C      5.7891     6.0000     0.2109     3.7974     3.7974    -0.0000
 15 N      7.4410     7.0000    -0.4410     3.3722     3.3722    -0.0000
 16 C      5.7659     6.0000     0.2341     3.7760     3.7760     0.0000
 17 C      6.1246     6.0000    -0.1246     3.9483     3.9483    -0.0000
 18 C      6.1570     6.0000    -0.1570     3.7477     3.7477     0.0000
 19 C      5.7983     6.0000     0.2017     3.8717     3.8717    -0.0000
 20 C      5.7858     6.0000     0.2142     3.8289     3.8289    -0.0000
 21 C      6.0609     6.0000    -0.0609     3.8344     3.8344     0.0000
 22 C      6.0896     6.0000    -0.0896     3.9823     3.9823    -0.0000
 23 C      6.0396     6.0000    -0.0396     3.9926     3.9926    -0.0000
 24 C      5.8063     6.0000     0.1937     3.8211     3.8211    -0.0000
 25 C      5.8855     6.0000     0.1145     3.8913     3.8913    -0.0000
 26 C      6.0925     6.0000    -0.0925     3.9097     3.9097     0.0000
 27 C      5.7849     6.0000     0.2151     3.8612     3.8612     0.0000
 28 C      6.0618     6.0000    -0.0618     3.9888     3.9888    -0.0000
 29 C      6.1836     6.0000    -0.1836     3.7472     3.7472    -0.0000
 30 C      5.7536     6.0000     0.2464     3.7995     3.7995    -0.0000
 31 C      5.7692     6.0000     0.2308     3.8169     3.8169     0.0000
 32 C      6.0615     6.0000    -0.0615     3.9234     3.9234     0.0000
 33 C      6.0598     6.0000    -0.0598     3.9708     3.9708     0.0000
 34 C      6.0510     6.0000    -0.0510     3.9833     3.9833     0.0000
 35 C      5.7712     6.0000     0.2288     3.8162     3.8162    -0.0000
 36 C      5.8919     6.0000     0.1081     3.8744     3.8744     0.0000
 37 C      6.0642     6.0000    -0.0642     3.9178     3.9178     0.0000
 38 C      5.7689     6.0000     0.2311     3.8015     3.8015    -0.0000
 39 C      6.0578     6.0000    -0.0578     3.9829     3.9829     0.0000
 40 C      6.1811     6.0000    -0.1811     3.7262     3.7262    -0.0000
 41 C      5.7743     6.0000     0.2257     3.8876     3.8876     0.0000
 42 C      5.8027     6.0000     0.1973     3.8256     3.8256     0.0000
 43 C      6.0726     6.0000    -0.0726     3.8999     3.8999    -0.0000
 44 C      6.0900     6.0000    -0.0900     3.9856     3.9856     0.0000
 45 C      6.0618     6.0000    -0.0618     3.9918     3.9918    -0.0000
 46 C      5.7883     6.0000     0.2117     3.8286     3.8286    -0.0000
 47 C      5.8846     6.0000     0.1154     3.8930     3.8930     0.0000
 48 C      6.0667     6.0000    -0.0667     3.9093     3.9093    -0.0000
 49 C      5.7616     6.0000     0.2384     3.8963     3.8963    -0.0000
 50 C      6.0460     6.0000    -0.0460     3.9902     3.9902     0.0000
 51 C      6.1947     6.0000    -0.1947     3.7374     3.7374    -0.0000
 52 H      0.9644     1.0000     0.0356     0.9855     0.9855     0.0000
 53 H      1.0181     1.0000    -0.0181     0.9992     0.9992     0.0000
 54 H      0.9536     1.0000     0.0464     1.0290     1.0290     0.0000
 55 H      0.9663     1.0000     0.0337     0.9865     0.9865     0.0000
 56 H      0.9510     1.0000     0.0490     0.9695     0.9695    -0.0000
 57 H      0.9519     1.0000     0.0481     0.9824     0.9824    -0.0000
 58 H      0.9539     1.0000     0.0461     0.9847     0.9847     0.0000
 59 H      1.0124     1.0000    -0.0124     0.9972     0.9972     0.0000
 60 H      0.9544     1.0000     0.0456     1.0113     1.0113    -0.0000
 61 H      0.8290     1.0000     0.1710     1.0422     1.0422    -0.0000
 62 H      0.8243     1.0000     0.1757     1.0436     1.0436    -0.0000
 63 H      0.9445     1.0000     0.0555     0.9852     0.9852    -0.0000
 64 H      1.0195     1.0000    -0.0195     0.9956     0.9956     0.0000
 65 H      0.9531     1.0000     0.0469     1.0101     1.0101     0.0000
 66 H      0.9443     1.0000     0.0557     0.9855     0.9855     0.0000
 67 H      0.9373     1.0000     0.0627     0.9719     0.9719     0.0000
 68 H      0.9427     1.0000     0.0573     0.9868     0.9868     0.0000
 69 H      0.9435     1.0000     0.0565     0.9828     0.9828    -0.0000
 70 H      1.0300     1.0000    -0.0300     0.9941     0.9941    -0.0000
 71 H      0.9550     1.0000     0.0450     1.0058     1.0058     0.0000
 72 H      0.9283     1.0000     0.0717     0.9835     0.9835     0.0000
 73 H      1.0078     1.0000    -0.0078     1.0010     1.0010     0.0000
 74 H      0.9392     1.0000     0.0608     1.0101     1.0101     0.0000
 75 H      0.9289     1.0000     0.0711     0.9838     0.9838    -0.0000
 76 H      0.9247     1.0000     0.0753     0.9721     0.9721    -0.0000
 77 H      0.9317     1.0000     0.0683     0.9855     0.9855    -0.0000
 78 H      0.9325     1.0000     0.0675     0.9854     0.9854     0.0000
 79 H      1.0166     1.0000    -0.0166     0.9975     0.9975     0.0000
 80 H      0.9383     1.0000     0.0617     1.0072     1.0072    -0.0000
 81 H      0.9455     1.0000     0.0545     0.9856     0.9856     0.0000
 82 H      1.0251     1.0000    -0.0251     0.9934     0.9934     0.0000
 83 H      0.9583     1.0000     0.0417     1.0083     1.0083    -0.0000
 84 H      0.9459     1.0000     0.0541     0.9852     0.9852     0.0000
 85 H      0.9391     1.0000     0.0609     0.9716     0.9716    -0.0000
 86 H      0.9446     1.0000     0.0554     0.9839     0.9839    -0.0000
 87 H      0.9427     1.0000     0.0573     0.9857     0.9857    -0.0000
 88 H      1.0143     1.0000    -0.0143     0.9968     0.9968     0.0000
 89 H      0.9527     1.0000     0.0473     1.0074     1.0074     0.0000

  Mayer bond orders larger than 0.100000
B(  0-C ,  1-N ) :   1.1006 B(  0-C , 17-C ) :   1.7174 B(  0-C , 52-H ) :   0.9617 
B(  1-N ,  8-C ) :   1.0878 B(  1-N , 10-C ) :   0.9780 B(  2-C , 12-C ) :   1.4865 
B(  2-C , 16-C ) :   1.3735 B(  2-C , 53-H ) :   0.9729 B(  3-N , 14-C ) :   1.2217 
B(  3-N , 16-C ) :   1.1816 B(  3-N , 61-H ) :   0.8987 B(  4-C ,  6-C ) :   1.2176 
B(  4-C , 17-C ) :   1.2183 B(  4-C , 18-C ) :   1.4772 B(  5-N , 19-C ) :   1.4582 
B(  5-N , 27-C ) :   1.3708 B(  6-C ,  8-C ) :   1.7235 B(  6-C , 54-H ) :   0.8877 
B(  7-N , 30-C ) :   1.1951 B(  7-N , 38-C ) :   1.1895 B(  7-N , 62-H ) :   0.8967 
B(  8-C , 55-H ) :   0.9628 B(  9-N , 41-C ) :   1.3933 B(  9-N , 49-C ) :   1.4263 
B( 10-C , 56-H ) :   0.9775 B( 10-C , 57-H ) :   0.9830 B( 10-C , 58-H ) :   0.9834 
B( 11-N , 20-C ) :   1.1317 B( 11-N , 24-C ) :   1.1072 B( 11-N , 25-C ) :   0.9599 
B( 12-C , 14-C ) :   1.3595 B( 12-C , 59-H ) :   0.9331 B( 13-N , 31-C ) :   1.1627 
B( 13-N , 35-C ) :   1.1610 B( 13-N , 36-C ) :   0.9409 B( 14-C , 18-C ) :   1.1164 
B( 15-N , 42-C ) :   1.1074 B( 15-N , 46-C ) :   1.1246 B( 15-N , 47-C ) :   0.9613 
B( 16-C , 51-C ) :   1.1668 B( 17-C , 60-H ) :   0.8941 B( 18-C , 19-C ) :   1.1139 
B( 19-C , 21-C ) :   1.2535 B( 20-C , 28-C ) :   1.6281 B( 20-C , 63-H ) :   0.9702 
B( 21-C , 26-C ) :   1.5814 B( 21-C , 64-H ) :   0.9284 B( 22-C , 23-C ) :   1.2901 
B( 22-C , 28-C ) :   1.2642 B( 22-C , 29-C ) :   1.2260 B( 23-C , 24-C ) :   1.6195 
B( 23-C , 65-H ) :   0.9703 B( 24-C , 66-H ) :   0.9695 B( 25-C , 67-H ) :   0.9761 
B( 25-C , 68-H ) :   0.9828 B( 25-C , 69-H ) :   0.9823 B( 26-C , 27-C ) :   1.2612 
B( 26-C , 70-H ) :   0.9668 B( 27-C , 29-C ) :   1.2050 B( 28-C , 71-H ) :   0.9720 
B( 29-C , 30-C ) :   1.2482 B( 30-C , 32-C ) :   1.2773 B( 31-C , 39-C ) :   1.5868 
B( 31-C , 72-H ) :   0.9681 B( 32-C , 37-C ) :   1.5815 B( 32-C , 73-H ) :   0.9786 
B( 33-C , 34-C ) :   1.3080 B( 33-C , 39-C ) :   1.3047 B( 33-C , 40-C ) :   1.1741 
B( 34-C , 35-C ) :   1.5843 B( 34-C , 74-H ) :   0.9696 B( 35-C , 75-H ) :   0.9681 
B( 36-C , 76-H ) :   0.9768 B( 36-C , 77-H ) :   0.9815 B( 36-C , 78-H ) :   0.9823 
B( 37-C , 38-C ) :   1.2835 B( 37-C , 79-H ) :   0.9764 B( 38-C , 40-C ) :   1.2353 
B( 39-C , 80-H ) :   0.9705 B( 40-C , 41-C ) :   1.2511 B( 41-C , 43-C ) :   1.1843 
B( 42-C , 50-C ) :   1.6335 B( 42-C , 81-H ) :   0.9696 B( 43-C , 48-C ) :   1.6685 
B( 43-C , 82-H ) :   0.9720 B( 44-C , 45-C ) :   1.2630 B( 44-C , 50-C ) :   1.2721 
B( 44-C , 51-C ) :   1.2616 B( 45-C , 46-C ) :   1.6349 B( 45-C , 83-H ) :   0.9719 
B( 46-C , 84-H ) :   0.9700 B( 47-C , 85-H ) :   0.9762 B( 47-C , 86-H ) :   0.9829 
B( 47-C , 87-H ) :   0.9824 B( 48-C , 49-C ) :   1.1878 B( 48-C , 88-H ) :   0.9749 
B( 49-C , 51-C ) :   1.2452 B( 50-C , 89-H ) :   0.9708 

-------
TIMINGS
-------

Total SCF time: 0 days 0 hours 44 min 19 sec 

Total time                  ....    2659.440 sec
Sum of individual times     ....    2656.427 sec  ( 99.9%)

Fock matrix formation       ....    2638.844 sec  ( 99.2%)
Diagonalization             ....       4.711 sec  (  0.2%)
Density matrix formation    ....       0.489 sec  (  0.0%)
Population analysis         ....       0.299 sec  (  0.0%)
Initial guess               ....       2.312 sec  (  0.1%)
Orbital Transformation      ....       0.000 sec  (  0.0%)
Orbital Orthonormalization  ....       0.000 sec  (  0.0%)
DIIS solution               ....       2.618 sec  (  0.1%)
SOSCF solution              ....       5.824 sec  (  0.2%)

Maximum memory used throughout the entire SCF-calculation: 304.3 MB


           ************************************************************
           *        Program running with 8 parallel MPI-processes     *
           *              working on a common directory               *
           ************************************************************

------------------------------------------------------------------------------
                                ORCA  MP2 
------------------------------------------------------------------------------

Freezing NCore=104 chemical core electrons

----------
MP2 ENERGY (disk based algorithm)
----------

Dimension of the basis                    ...  918
Memory devoted to MP2                     ... 7000 MB   
Data format for buffers                   ... DOUBLE
Compression type for matrix containers    ... UNCOMPRESSED

-------------------------------
PARTIAL EXCHANGE TRANSFORMATION
-------------------------------

Transformation type                        ... one-operator
Generation of integrals (i,mue|j,nue)      ... ON
Generation of integrals (mue,kappa|nue,tau)... OFF
Generation of integrals (i,mue|a,nue)      ... OFF
Dimension of the basis                     ...  918
Number of internal MOs                     ...  127 (  52- 178)
Pair cutoff                                ... 2.500e-12 Eh
Number of AO pairs in the trafo            ... 421821
Total Number of distinct AO pairs          ... 421821
Memory devoted for trafo                   ... 7000.0 MB 
Max. Number of MO pairs treated together   ... 1088      
Number Format for Storage                  ... Double (8 Byte)
Integral package used                      ... LIBINT

Starting integral evaluation:
    ... done with AO integral generation
Closing buffer AOK     (38.24 GB; CompressionRatio= 1.33)
Collecting buffer AOK 
Number of MO pairs included in the trafo   ... 8128
------------------------
SORTING OF (i,mue|j,nue)
------------------------

IBATCH = 1 of  1
Closing buffer KAO     (51.03 GB; CompressionRatio= 1.00)
Collecting buffer KAO 
N(AO-Batches) Done                         ... 175199384 
N(AO-Batches) Skipped                      ... 167295604 
N(IJ)-pairs Skipped                        ...         0 
TOTAL TIME for half transformation         ...  1112.826 sec
AO-integral generation                     ...   255.909 sec
Half transformation                        ...   470.020 sec
K-integral sorting                         ...    96.275 sec

Finished integral transformation - now doing MP2 part

OPERATOR COMBINATION   0   0: ij=( 52..178, 52..178)
Process 2:   Internal MO  84
Process 5:   Internal MO 132
Process 0:   Internal MO  54
Process 0:   Internal MO  57
Process 1:   Internal MO  69
Process 0:   Internal MO  60
Process 4:   Internal MO 117
Process 0:   Internal MO  63
Process 1:   Internal MO  72
Process 3:   Internal MO 102
Process 2:   Internal MO  87
Process 0:   Internal MO  66
Process 7:   Internal MO 165
Process 1:   Internal MO  75
Process 6:   Internal MO 150
Process 2:   Internal MO  90
Process 1:   Internal MO  78
Process 5:   Internal MO 135
Process 3:   Internal MO 105
Process 4:   Internal MO 120
Process 1:   Internal MO  81
Process 2:   Internal MO  93
Process 3:   Internal MO 108
Process 2:   Internal MO  96
Process 7:   Internal MO 168
Process 4:   Internal MO 123
Process 6:   Internal MO 153
Process 5:   Internal MO 138
Process 3:   Internal MO 111
Process 2:   Internal MO  99
Process 4:   Internal MO 126
Process 5:   Internal MO 141
Process 3:   Internal MO 114
Process 6:   Internal MO 156
Process 7:   Internal MO 171
Process 4:   Internal MO 129
Process 5:   Internal MO 144
Process 6:   Internal MO 159
Process 7:   Internal MO 174
Process 5:   Internal MO 147
Process 6:   Internal MO 162
Process 7:   Internal MO 177
-----------------------------------------------
 MP2 CORRELATION ENERGY   :     -7.288626363 Eh
-----------------------------------------------


-------
TIMINGS
-------
Total time                : 1273.094 sec
Integral trafo            : 1122.057 sec ( 88.1%)
K(i,j)                    :    9.469 sec (  0.7%)
T(i,j)                    :    0.138 sec (  0.0%)

---------------------------------------
MP2 TOTAL ENERGY:    -2130.796598716 Eh
---------------------------------------

Maximum memory used throughout the entire MP2-calculation: 6735.8 MB

-------------------------   --------------------
FINAL SINGLE POINT ENERGY     -2130.796598716418
-------------------------   --------------------


                            ***************************************
                            *     ORCA property calculations      *
                            ***************************************


  WARNING: The energy has been calculated at the MP2 level but the densities
           used in the property calculations are still SCF densities
           MP2 response densities have not been calculated 
           use %mp2 Density relaxed end
           or  %mp2 Density unrelaxed end

                                    ---------------------
                                    Active property flags
                                    ---------------------
   (+) Dipole Moment


------------------------------------------------------------------------------
                       ORCA ELECTRIC PROPERTIES CALCULATION
------------------------------------------------------------------------------

Dipole Moment Calculation                       ... on
Quadrupole Moment Calculation                   ... off
Polarizability Calculation                      ... off
GBWName                                         ... /scratch/chu_02/allen/tmpyp4_amber_gaff2/conf1/conf1/Conf350.orca.gbw
Electron density                                ... /scratch/chu_02/allen/tmpyp4_amber_gaff2/conf1/conf1/Conf350.orca.scfp
The origin for moment calculation is the CENTER OF MASS  = (-0.001375, -0.005035  0.001498)

-------------
DIPOLE MOMENT
-------------
                                X             Y             Z
Electronic contribution:      2.84598      -4.41353      -0.07553
Nuclear contribution   :     -0.02752       0.16992       0.08908
                        -----------------------------------------
Total Dipole Moment    :      2.81846      -4.24360       0.01355
                        -----------------------------------------
Magnitude (a.u.)       :      5.09432
Magnitude (Debye)      :     12.94872



--------------------
Rotational spectrum 
--------------------
 
Rotational constants in cm-1:     0.001503     0.001477     0.000760 
Rotational constants in MHz :    45.069640    44.292185    22.783844 

 Dipole components along the rotational axes: 
x,y,z [a.u.] :     3.536256    -3.666971     0.016350 
x,y,z [Debye]:     8.988449    -9.320700     0.041557 

 

Timings for individual modules:

Sum of individual times         ...     3938.070 sec (=  65.635 min)
GTO integral calculation        ...        3.008 sec (=   0.050 min)   0.1 %
SCF iterations                  ...     2660.760 sec (=  44.346 min)  67.6 %
MP2 module                      ...     1274.303 sec (=  21.238 min)  32.4 %
                             ****ORCA TERMINATED NORMALLY****
TOTAL RUN TIME: 0 days 1 hours 5 minutes 40 seconds 447 msec
# of primitive gaussian functions

