
                                 *****************
                                 * O   R   C   A *
                                 *****************

                                            #,                                       
                                            ###                                      
                                            ####                                     
                                            #####                                    
                                            ######                                   
                                           ########,                                 
                                     ,,################,,,,,                         
                               ,,#################################,,                 
                          ,,##########################################,,             
                       ,#########################################, ''#####,          
                    ,#############################################,,   '####,        
                  ,##################################################,,,,####,       
                ,###########''''           ''''###############################       
              ,#####''   ,,,,##########,,,,          '''####'''          '####       
            ,##' ,,,,###########################,,,                        '##       
           ' ,,###''''                  '''############,,,                           
         ,,##''                                '''############,,,,        ,,,,,,###''
      ,#''                                            '''#######################'''  
     '                                                          ''''####''''         
             ,#######,   #######,   ,#######,      ##                                
            ,#'     '#,  ##    ##  ,#'     '#,    #''#        ######   ,####,        
            ##       ##  ##   ,#'  ##            #'  '#       #        #'  '#        
            ##       ##  #######   ##           ,######,      #####,   #    #        
            '#,     ,#'  ##    ##  '#,     ,#' ,#      #,         ##   #,  ,#        
             '#######'   ##     ##  '#######'  #'      '#     #####' # '####'        



                  #######################################################
                  #                        -***-                        #
                  #          Department of theory and spectroscopy      #
                  #    Directorship and core code : Frank Neese         #
                  #        Max Planck Institute fuer Kohlenforschung    #
                  #                Kaiser Wilhelm Platz 1               #
                  #                 D-45470 Muelheim/Ruhr               #
                  #                      Germany                        #
                  #                                                     #
                  #                  All rights reserved                #
                  #                        -***-                        #
                  #######################################################


                         Program Version 5.0.4 -  RELEASE  -


 With contributions from (in alphabetic order):
   Daniel Aravena         : Magnetic Suceptibility
   Michael Atanasov       : Ab Initio Ligand Field Theory (pilot matlab implementation)
   Alexander A. Auer      : GIAO ZORA, VPT2 properties, NMR spectrum
   Ute Becker             : Parallelization
   Giovanni Bistoni       : ED, misc. LED, open-shell LED, HFLD
   Martin Brehm           : Molecular dynamics
   Dmytro Bykov           : SCF Hessian
   Vijay G. Chilkuri      : MRCI spin determinant printing, contributions to CSF-ICE
   Dipayan Datta          : RHF DLPNO-CCSD density
   Achintya Kumar Dutta   : EOM-CC, STEOM-CC
   Dmitry Ganyushin       : Spin-Orbit,Spin-Spin,Magnetic field MRCI
   Miquel Garcia          : C-PCM and meta-GGA Hessian, CC/C-PCM, Gaussian charge scheme
   Yang Guo               : DLPNO-NEVPT2, F12-NEVPT2, CIM, IAO-localization
   Andreas Hansen         : Spin unrestricted coupled pair/coupled cluster methods
   Benjamin Helmich-Paris : MC-RPA, TRAH-SCF, COSX integrals
   Lee Huntington         : MR-EOM, pCC
   Robert Izsak           : Overlap fitted RIJCOSX, COSX-SCS-MP3, EOM
   Marcus Kettner         : VPT2
   Christian Kollmar      : KDIIS, OOCD, Brueckner-CCSD(T), CCSD density, CASPT2, CASPT2-K
   Simone Kossmann        : Meta GGA functionals, TD-DFT gradient, OOMP2, MP2 Hessian
   Martin Krupicka        : Initial AUTO-CI
   Lucas Lang             : DCDCAS
   Marvin Lechner         : AUTO-CI (C++ implementation), FIC-MRCC
   Dagmar Lenk            : GEPOL surface, SMD
   Dimitrios Liakos       : Extrapolation schemes; Compound Job, initial MDCI parallelization
   Dimitrios Manganas     : Further ROCIS development; embedding schemes
   Dimitrios Pantazis     : SARC Basis sets
   Anastasios Papadopoulos: AUTO-CI, single reference methods and gradients
   Taras Petrenko         : DFT Hessian,TD-DFT gradient, ASA, ECA, R-Raman, ABS, FL, XAS/XES, NRVS
   Peter Pinski           : DLPNO-MP2, DLPNO-MP2 Gradient
   Christoph Reimann      : Effective Core Potentials
   Marius Retegan         : Local ZFS, SOC
   Christoph Riplinger    : Optimizer, TS searches, QM/MM, DLPNO-CCSD(T), (RO)-DLPNO pert. Triples
   Tobias Risthaus        : Range-separated hybrids, TD-DFT gradient, RPA, STAB
   Michael Roemelt        : Original ROCIS implementation
   Masaaki Saitow         : Open-shell DLPNO-CCSD energy and density
   Barbara Sandhoefer     : DKH picture change effects
   Avijit Sen             : IP-ROCIS
   Kantharuban Sivalingam : CASSCF convergence, NEVPT2, FIC-MRCI
   Bernardo de Souza      : ESD, SOC TD-DFT
   Georgi Stoychev        : AutoAux, RI-MP2 NMR, DLPNO-MP2 response
   Willem Van den Heuvel  : Paramagnetic NMR
   Boris Wezisla          : Elementary symmetry handling
   Frank Wennmohs         : Technical directorship


 We gratefully acknowledge several colleagues who have allowed us to
 interface, adapt or use parts of their codes:
   Stefan Grimme, W. Hujo, H. Kruse, P. Pracht,  : VdW corrections, initial TS optimization,
                  C. Bannwarth, S. Ehlert          DFT functionals, gCP, sTDA/sTD-DF
   Ed Valeev, F. Pavosevic, A. Kumar             : LibInt (2-el integral package), F12 methods
   Garnet Chan, S. Sharma, J. Yang, R. Olivares  : DMRG
   Ulf Ekstrom                                   : XCFun DFT Library
   Mihaly Kallay                                 : mrcc  (arbitrary order and MRCC methods)
   Jiri Pittner, Ondrej Demel                    : Mk-CCSD
   Frank Weinhold                                : gennbo (NPA and NBO analysis)
   Christopher J. Cramer and Donald G. Truhlar   : smd solvation model
   Lars Goerigk                                  : TD-DFT with DH, B97 family of functionals
   V. Asgeirsson, H. Jonsson                     : NEB implementation
   FAccTs GmbH                                   : IRC, NEB, NEB-TS, DLPNO-Multilevel, CI-OPT
                                                   MM, QMMM, 2- and 3-layer-ONIOM, Crystal-QMMM,
                                                   LR-CPCM, SF, NACMEs, symmetry and pop. for TD-DFT,
                                                   nearIR, NL-DFT gradient (VV10), updates on ESD,
                                                   ML-optimized integration grids
   S Lehtola, MJT Oliveira, MAL Marques          : LibXC Library
   Liviu Ungur et al                             : ANISO software


 Your calculation uses the libint2 library for the computation of 2-el integrals
 For citations please refer to: http://libint.valeyev.net

 Your ORCA version has been built with support for libXC version: 5.1.0
 For citations please refer to: https://tddft.org/programs/libxc/

 This ORCA versions uses:
   CBLAS   interface :  Fast vector & matrix operations
   LAPACKE interface :  Fast linear algebra routines
   SCALAPACK package :  Parallel linear algebra routines
   Shared memory     :  Shared parallel matrices
   BLAS/LAPACK       :  OpenBLAS 0.3.15  USE64BITINT DYNAMIC_ARCH NO_AFFINITY Sandybridge SINGLE_THREADED
        Core in use  :  Sandybridge
   Copyright (c) 2011-2014, The OpenBLAS Project


================================================================================

----- Orbital basis set information -----
Your calculation utilizes the basis: cc-pVDZ 
       H, B-Ne : Obtained from the ccRepo (grant-hill.group.shef.ac.uk/ccrepo) Feb. 2017
                 T. H. Dunning, Jr., J. Chem. Phys. 90, 1007 (1989)
            He : Obtained from the ccRepo (grant-hill.group.shef.ac.uk/ccrepo) Feb. 2017
                 D. E. Woon, T. H. Dunning, Jr., J. Chem. Phys. 100, 2975 (1994)
  Li-Be, Na-Mg : Obtained from the ccRepo (grant-hill.group.shef.ac.uk/ccrepo) Feb. 2017
                 B. P. Prascher, D. E. Woon, K. A. Peterson, T. H. Dunning, Jr., A. K. Wilson, Theor. Chem. Acc. 128, 69 (2011)
         Al-Ar : Obtained from the ccRepo (grant-hill.group.shef.ac.uk/ccrepo) Feb. 2017
                 D. E. Woon, T. H. Dunning, Jr., J. Chem. Phys. 98, 1358 (1993)
            Ca : Obtained from the Peterson Research Group Website (tyr0.chem.wsu.edu/~kipeters) Feb. 2017
                 J. Koput, K. A. Peterson, J. Phys. Chem. 106, 9595 (2002)
         Sc-Zn : Obtained from the ccRepo (grant-hill.group.shef.ac.uk/ccrepo) Feb. 2017
                 N. B. Balabanov, K. A. Peterson, J. Chem. Phys. 123, 064107 (2005)
                 N. B. Balabanov, K. A. Peterson, J. Chem. Phys. 125, 074110 (2006)
         Ga-Kr : Obtained from the ccRepo (grant-hill.group.shef.ac.uk/ccrepo) Feb. 2017
                 A. K. Wilson, D. E. Woon, K. A. Peterson, T. H. Dunning, Jr., J. Chem. Phys. 110, 7667 (1999)

================================================================================
                                        WARNINGS
                       Please study these warnings very carefully!
================================================================================


WARNING: No MP2 level density has been requested!
         To caclulate MP2 level properties use
         %mp2 Density relaxed end
         or
         %mp2 Density unrelaxed end

WARNING: Post HF methods need fully converged wavefunctions
  ===> : Setting SCFConvForced true
         You can overwrite this default with %scf ConvForced false 


INFO   : the flag for use of the SHARK integral package has been found!

================================================================================
                                       INPUT FILE
================================================================================
NAME = /scratch/allen/tmpyp4_amber_gaff2/2.Mdgx/conf11/conf11/Conf44.orca
|  1> ! PAL2
|  2> ! mp2 cc-pvdz TightSCF  NoKeepInts
|  3> 
|  4> %scf
|  5>   MaxCore 2000
|  6> end
|  7> %mp2
|  8>   MaxCore 2000
|  9> end
| 10> * xyz 0 1
| 11>    C       -3.28000         6.34200        -0.68400
| 12>    C        1.47400         4.04100         0.05700
| 13>    C       -2.80200         4.09300         0.04900
| 14>    C       -3.93900         4.17300         0.86800
| 15>    C       -4.70300         5.32200         0.88300
| 16>    C       -5.23000         7.59000         0.12700
| 17>    C        0.13200         4.30700         0.06100
| 18>    C       -0.56900         3.05600         0.04700
| 19>    C        1.64900         2.61800         0.02300
| 20>    C       -2.48700         5.21200        -0.73700
| 21>    N       -4.36900         6.38700         0.11700
| 22>    N        0.38800         2.06700         0.02500
| 23>    N       -2.01000         0.39500        -0.07500
| 24>    N       -0.38800        -2.07400        -0.02700
| 25>    N        2.01000        -0.40100         0.06500
| 26>    C       -1.96000         2.86100         0.02400
| 27>    C       -2.62300         1.61500        -0.01800
| 28>    C       -5.57300        -4.32900         1.06600
| 29>    C       -4.07300         1.47100         0.05600
| 30>    C       -4.10600        -2.75600        -0.02600
| 31>    C       -4.99500        -2.75700        -1.11100
| 32>    C       -6.13200        -3.54200        -1.07600
| 33>    C       -7.65100        -5.11300         0.04000
| 34>    C       -4.32400         0.14100         0.03700
| 35>    C       -3.02500        -0.52000        -0.04800
| 36>    C       -4.42200        -3.56600         1.07500
| 37>    N       -6.40700        -4.31300         0.00100
| 38>    C       -2.86700        -1.92200        -0.04000
| 39>    C       -1.65000        -2.62400        -0.02700
| 40>    C        3.56800        -6.14200        -1.04000
| 41>    C       -1.47600        -4.04900        -0.03400
| 42>    C        2.80300        -4.09900        -0.00800
| 43>    C        3.65700        -4.38400         1.06900
| 44>    C        4.42700        -5.53000         1.05900
| 45>    C        5.24500        -7.58800         0.01400
| 46>    C       -0.13400        -4.31500        -0.02200
| 47>    C        0.56800        -3.06400        -0.02700
| 48>    C        2.77500        -5.01200        -1.07400
| 49>    N        4.37600        -6.39100         0.01700
| 50>    C        1.95900        -2.86900        -0.00900
| 51>    C        2.62100        -1.62200         0.00900
| 52>    C        5.54300         4.33900        -1.13000
| 53>    C        4.07000        -1.47900        -0.09400
| 54>    C        4.10400         2.75100        -0.02100
| 55>    C        5.02700         2.72900         1.03600
| 56>    C        6.16600         3.50900         0.97800
| 57>    C        7.61900         5.15300        -0.11500
| 58>    C        4.32100        -0.14800        -0.09200
| 59>    C        3.02500         0.51400         0.01500
| 60>    C        4.38700         3.58200        -1.11500
| 61>    C        2.86600         1.91600         0.01300
| 62>    N        6.41300         4.29600        -0.09500
| 63>    H       -3.06800         7.23300        -1.26300
| 64>    H        2.27400         4.76600         0.08100
| 65>    H       -4.23900         3.33900         1.49000
| 66>    H       -5.59300         5.42700         1.49100
| 67>    H       -6.03700         7.45500        -0.59700
| 68>    H       -5.64200         7.71900         1.12800
| 69>    H       -4.62600         8.45600        -0.14300
| 70>    H       -0.33200         5.28200         0.06900
| 71>    H       -1.61400         5.21800        -1.37900
| 72>    H        0.18200         1.07200         0.00500
| 73>    H       -0.18300        -1.08000        -0.02100
| 74>    H       -5.86400        -4.96200         1.89500
| 75>    H       -4.79400         2.27200         0.13900
| 76>    H       -4.80000        -2.16000        -1.99400
| 77>    H       -6.84100        -3.58200        -1.89300
| 78>    H       -8.42800        -4.53600         0.54600
| 79>    H       -7.95600        -5.33700        -0.98100
| 80>    H       -7.45600        -6.03700         0.58400
| 81>    H       -5.28700        -0.34400         0.10000
| 82>    H       -3.78000        -3.60100         1.94700
| 83>    H        3.58700        -6.86800        -1.84300
| 84>    H       -2.27600        -4.77400        -0.05000
| 85>    H        3.71400        -3.72400         1.92600
| 86>    H        5.09200        -5.79500         1.87100
| 87>    H        6.20500        -7.32900        -0.43900
| 88>    H        5.39300        -7.91700         1.04200
| 89>    H        4.75900        -8.37300        -0.56400
| 90>    H        0.32900        -5.29000        -0.00800
| 91>    H        2.14600        -4.84200        -1.94000
| 92>    H        5.80800         4.98600        -1.95600
| 93>    H        4.78800        -2.28100        -0.18500
| 94>    H        4.86000         2.11400         1.91200
| 95>    H        6.90100         3.53100         1.77200
| 96>    H        7.38300         6.10900         0.35600
| 97>    H        8.41400         4.65200         0.43500
| 98>    H        7.92100         5.31000        -1.15000
| 99>    H        5.28300         0.33600        -0.17900
|100>    H        3.72000         3.63200        -1.96700
|101> *
|102> 
|103>                          ****END OF INPUT****
================================================================================

                       ****************************
                       * Single Point Calculation *
                       ****************************

---------------------------------
CARTESIAN COORDINATES (ANGSTROEM)
---------------------------------
  C     -3.280000    6.342000   -0.684000
  C      1.474000    4.041000    0.057000
  C     -2.802000    4.093000    0.049000
  C     -3.939000    4.173000    0.868000
  C     -4.703000    5.322000    0.883000
  C     -5.230000    7.590000    0.127000
  C      0.132000    4.307000    0.061000
  C     -0.569000    3.056000    0.047000
  C      1.649000    2.618000    0.023000
  C     -2.487000    5.212000   -0.737000
  N     -4.369000    6.387000    0.117000
  N      0.388000    2.067000    0.025000
  N     -2.010000    0.395000   -0.075000
  N     -0.388000   -2.074000   -0.027000
  N      2.010000   -0.401000    0.065000
  C     -1.960000    2.861000    0.024000
  C     -2.623000    1.615000   -0.018000
  C     -5.573000   -4.329000    1.066000
  C     -4.073000    1.471000    0.056000
  C     -4.106000   -2.756000   -0.026000
  C     -4.995000   -2.757000   -1.111000
  C     -6.132000   -3.542000   -1.076000
  C     -7.651000   -5.113000    0.040000
  C     -4.324000    0.141000    0.037000
  C     -3.025000   -0.520000   -0.048000
  C     -4.422000   -3.566000    1.075000
  N     -6.407000   -4.313000    0.001000
  C     -2.867000   -1.922000   -0.040000
  C     -1.650000   -2.624000   -0.027000
  C      3.568000   -6.142000   -1.040000
  C     -1.476000   -4.049000   -0.034000
  C      2.803000   -4.099000   -0.008000
  C      3.657000   -4.384000    1.069000
  C      4.427000   -5.530000    1.059000
  C      5.245000   -7.588000    0.014000
  C     -0.134000   -4.315000   -0.022000
  C      0.568000   -3.064000   -0.027000
  C      2.775000   -5.012000   -1.074000
  N      4.376000   -6.391000    0.017000
  C      1.959000   -2.869000   -0.009000
  C      2.621000   -1.622000    0.009000
  C      5.543000    4.339000   -1.130000
  C      4.070000   -1.479000   -0.094000
  C      4.104000    2.751000   -0.021000
  C      5.027000    2.729000    1.036000
  C      6.166000    3.509000    0.978000
  C      7.619000    5.153000   -0.115000
  C      4.321000   -0.148000   -0.092000
  C      3.025000    0.514000    0.015000
  C      4.387000    3.582000   -1.115000
  C      2.866000    1.916000    0.013000
  N      6.413000    4.296000   -0.095000
  H     -3.068000    7.233000   -1.263000
  H      2.274000    4.766000    0.081000
  H     -4.239000    3.339000    1.490000
  H     -5.593000    5.427000    1.491000
  H     -6.037000    7.455000   -0.597000
  H     -5.642000    7.719000    1.128000
  H     -4.626000    8.456000   -0.143000
  H     -0.332000    5.282000    0.069000
  H     -1.614000    5.218000   -1.379000
  H      0.182000    1.072000    0.005000
  H     -0.183000   -1.080000   -0.021000
  H     -5.864000   -4.962000    1.895000
  H     -4.794000    2.272000    0.139000
  H     -4.800000   -2.160000   -1.994000
  H     -6.841000   -3.582000   -1.893000
  H     -8.428000   -4.536000    0.546000
  H     -7.956000   -5.337000   -0.981000
  H     -7.456000   -6.037000    0.584000
  H     -5.287000   -0.344000    0.100000
  H     -3.780000   -3.601000    1.947000
  H      3.587000   -6.868000   -1.843000
  H     -2.276000   -4.774000   -0.050000
  H      3.714000   -3.724000    1.926000
  H      5.092000   -5.795000    1.871000
  H      6.205000   -7.329000   -0.439000
  H      5.393000   -7.917000    1.042000
  H      4.759000   -8.373000   -0.564000
  H      0.329000   -5.290000   -0.008000
  H      2.146000   -4.842000   -1.940000
  H      5.808000    4.986000   -1.956000
  H      4.788000   -2.281000   -0.185000
  H      4.860000    2.114000    1.912000
  H      6.901000    3.531000    1.772000
  H      7.383000    6.109000    0.356000
  H      8.414000    4.652000    0.435000
  H      7.921000    5.310000   -1.150000
  H      5.283000    0.336000   -0.179000
  H      3.720000    3.632000   -1.967000

----------------------------
CARTESIAN COORDINATES (A.U.)
----------------------------
  NO LB      ZA    FRAG     MASS         X           Y           Z
   0 C     6.0000    0    12.011   -6.198302   11.984643   -1.292573
   1 C     6.0000    0    12.011    2.785456    7.636383    0.107714
   2 C     6.0000    0    12.011   -5.295013    7.734649    0.092597
   3 C     6.0000    0    12.011   -7.443631    7.885827    1.640282
   4 C     6.0000    0    12.011   -8.887382   10.057122    1.668628
   5 C     6.0000    0    12.011   -9.883268   14.343021    0.239995
   6 C     6.0000    0    12.011    0.249444    8.139050    0.115273
   7 C     6.0000    0    12.011   -1.075254    5.775003    0.088817
   8 C     6.0000    0    12.011    3.116158    4.947303    0.043464
   9 C     6.0000    0    12.011   -4.699749    9.849253   -1.392728
  10 N     7.0000    0    14.007   -8.256213   12.069681    0.221098
  11 N     7.0000    0    14.007    0.733214    3.906064    0.047243
  12 N     7.0000    0    14.007   -3.798350    0.746442   -0.141729
  13 N     7.0000    0    14.007   -0.733214   -3.919292   -0.051023
  14 N     7.0000    0    14.007    3.798350   -0.757780    0.122832
  15 C     6.0000    0    12.011   -3.703863    5.406506    0.045353
  16 C     6.0000    0    12.011   -4.956752    3.051908   -0.034015
  17 C     6.0000    0    12.011  -10.531444   -8.180624    2.014448
  18 C     6.0000    0    12.011   -7.696855    2.779787    0.105825
  19 C     6.0000    0    12.011   -7.759216   -5.208085   -0.049133
  20 C     6.0000    0    12.011   -9.439182   -5.209975   -2.099486
  21 C     6.0000    0    12.011  -11.587801   -6.693410   -2.033345
  22 C     6.0000    0    12.011  -14.458295   -9.662170    0.075589
  23 C     6.0000    0    12.011   -8.171176    0.266451    0.069920
  24 C     6.0000    0    12.011   -5.716422   -0.982658   -0.090707
  25 C     6.0000    0    12.011   -8.356369   -6.738763    2.031456
  26 N     7.0000    0    14.007  -12.107475   -8.150389    0.001890
  27 C     6.0000    0    12.011   -5.417845   -3.632054   -0.075589
  28 C     6.0000    0    12.011   -3.118048   -4.958641   -0.051023
  29 C     6.0000    0    12.011    6.742543  -11.606698   -1.965315
  30 C     6.0000    0    12.011   -2.789236   -7.651501   -0.064251
  31 C     6.0000    0    12.011    5.296902   -7.745987   -0.015118
  32 C     6.0000    0    12.011    6.910728   -8.284559    2.020117
  33 C     6.0000    0    12.011    8.365818  -10.450186    2.001220
  34 C     6.0000    0    12.011    9.911614  -14.339242    0.026456
  35 C     6.0000    0    12.011   -0.253223   -8.154168   -0.041574
  36 C     6.0000    0    12.011    1.073364   -5.790121   -0.051023
  37 C     6.0000    0    12.011    5.243990   -9.471307   -2.029566
  38 N     7.0000    0    14.007    8.269442  -12.077240    0.032125
  39 C     6.0000    0    12.011    3.701973   -5.421624   -0.017008
  40 C     6.0000    0    12.011    4.952972   -3.065136    0.017008
  41 C     6.0000    0    12.011   10.474752    8.199522   -2.135391
  42 C     6.0000    0    12.011    7.691185   -2.794905   -0.177634
  43 C     6.0000    0    12.011    7.755436    5.198637   -0.039684
  44 C     6.0000    0    12.011    9.499653    5.157063    1.957756
  45 C     6.0000    0    12.011   11.652051    6.631049    1.848152
  46 C     6.0000    0    12.011   14.397823    9.737759   -0.217319
  47 C     6.0000    0    12.011    8.165507   -0.279679   -0.173855
  48 C     6.0000    0    12.011    5.716422    0.971319    0.028346
  49 C     6.0000    0    12.011    8.290229    6.768999   -2.107045
  50 C     6.0000    0    12.011    5.415955    3.620715    0.024566
  51 N     7.0000    0    14.007   12.118814    8.118263   -0.179524
  52 H     1.0000    0     1.008   -5.797680   13.668389   -2.386724
  53 H     1.0000    0     1.008    4.297237    9.006435    0.153068
  54 H     1.0000    0     1.008   -8.010549    6.309796    2.815692
  55 H     1.0000    0     1.008  -10.569238   10.255544    2.817582
  56 H     1.0000    0     1.008  -11.408277   14.087908   -1.128167
  57 H     1.0000    0     1.008  -10.661835   14.586796    2.131611
  58 H     1.0000    0     1.008   -8.741873   15.979524   -0.270231
  59 H     1.0000    0     1.008   -0.627389    9.981533    0.130391
  60 H     1.0000    0     1.008   -3.050018    9.860591   -2.605932
  61 H     1.0000    0     1.008    0.343930    2.025786    0.009449
  62 H     1.0000    0     1.008   -0.345820   -2.040904   -0.039684
  63 H     1.0000    0     1.008  -11.081354   -9.376821    3.581031
  64 H     1.0000    0     1.008   -9.059347    4.293458    0.262672
  65 H     1.0000    0     1.008   -9.070685   -4.081808   -3.768114
  66 H     1.0000    0     1.008  -12.927616   -6.768999   -3.577252
  67 H     1.0000    0     1.008  -15.926612   -8.571798    1.031790
  68 H     1.0000    0     1.008  -15.034661  -10.085468   -1.853821
  69 H     1.0000    0     1.008  -14.089798  -11.408277    1.103600
  70 H     1.0000    0     1.008   -9.990982   -0.650066    0.188973
  71 H     1.0000    0     1.008   -7.143165   -6.804904    3.679297
  72 H     1.0000    0     1.008    6.778448  -12.978639   -3.482765
  73 H     1.0000    0     1.008   -4.301017   -9.021553   -0.094486
  74 H     1.0000    0     1.008    7.018443   -7.037340    3.639613
  75 H     1.0000    0     1.008    9.622485  -10.950963    3.535678
  76 H     1.0000    0     1.008   11.725751  -13.849803   -0.829590
  77 H     1.0000    0     1.008   10.191293  -14.960962    1.969095
  78 H     1.0000    0     1.008    8.993207  -15.822677   -1.065806
  79 H     1.0000    0     1.008    0.621720   -9.996651   -0.015118
  80 H     1.0000    0     1.008    4.055352   -9.150054   -3.666069
  81 H     1.0000    0     1.008   10.975529    9.422175   -3.696304
  82 H     1.0000    0     1.008    9.048009   -4.310465   -0.349599
  83 H     1.0000    0     1.008    9.184069    3.994881    3.613156
  84 H     1.0000    0     1.008   13.041000    6.672623    3.348595
  85 H     1.0000    0     1.008   13.951848   11.544337    0.672743
  86 H     1.0000    0     1.008   15.900156    8.791006    0.822031
  87 H     1.0000    0     1.008   14.968521   10.034446   -2.173185
  88 H     1.0000    0     1.008    9.983423    0.634948   -0.338261
  89 H     1.0000    0     1.008    7.029781    6.863485   -3.717091

--------------------------------
INTERNAL COORDINATES (ANGSTROEM)
--------------------------------
 C      0   0   0     0.000000000000     0.00000000     0.00000000
 C      1   0   0     5.333310229117     0.00000000     0.00000000
 C      1   2   0     2.413249676266    51.62292422     0.00000000
 C      3   1   2     1.403541948073    87.91755011   145.16798932
 C      4   3   1     1.379899271686   120.15383115     0.09703093
 C      5   4   3     2.448078634358   152.52965735     1.70563314
 C      2   1   3     1.368114030335    16.69604157   347.71137270
 C      7   2   1     1.434084376876   108.05010202   149.79551623
 C      2   1   3     1.434123425651   122.24700270    22.97695548
 C      1   2   3     1.381505700314    30.77016336   325.59058262
 N      1   2   3     1.352607481866   130.52165340    48.76850459
 N      9   2   1     1.376127174356   106.58526707   349.18034368
 N     12   9   2     2.925062050624   168.53581413   171.12065651
 N     13  12   9     2.954513327098    91.55032014    11.12112580
 N     14  13  12     2.925371258490    88.43092389   359.84326247
 C      8   7   2     1.404790019896   127.24786865   181.11170171
 C     13  12   9     1.366535034311    81.72106996   188.00453233
 C     14  13  12     5.758810554272    80.56209567   166.76250791
 C     17  13  12     1.459010623676   111.08861209   183.82872609
 C     18  14  13     2.412235892279    27.27532823    36.33507194
 C     20  18  14     1.402692767501    87.95206320   148.94598259
 C     21  20  18     1.382106725257   120.14573887   359.70382047
 C     18  14  13     2.446510985056   144.15733107    82.80075377
 C     19  17  13     1.353610726908   106.29293361   359.75308708
 C     13  12   9     1.366813447402   172.21332906    33.46711076
 C     18  14  13     1.380960173213    15.08449437   309.23336894
 N     22  21  20     1.352773077792   120.73759875     0.27865223
 C     25  13  17     1.410897586645   125.60330303   182.37774668
 C     14  13  12     1.376642291955    80.24689249   177.85461986
 C     14  13  12     5.764089607215   164.51507311   312.20821879
 C     29  14  13     1.435600919476   106.58649366   178.76395472
 C     30  14  13     2.413316804732    27.10625047    82.12560436
 C     32  30  14     1.403734305344    87.90059683   149.76154742
 C     33  32  30     1.380694028378   120.14881443   359.74174632
 C     34  33  32     2.448777858443   152.49203239     2.45173620
 C     31  29  14     1.368160809262   108.16950133     0.70383075
 C     14  13  12     1.376239804685   169.26375223   353.09862627
 C     30  14  13     1.380907310430    14.68948582   353.70041132
 N     34  33  32     1.352658863128   120.85575621     0.19603406
 C     37  14  29     1.404717053360   126.01551127   180.90772073
 C     15  14  13     1.366491126938    81.61824056   183.09049352
 C      2   1   3     4.249062720177   141.67755504   157.03888336
 C     41  15  14     1.459677704153   111.05201287   175.08990246
 C     42   2   1     2.412953791518    41.78584867   193.84656581
 C     44  42   2     1.403446472082    87.95153797   233.97558675
 C     45  44  42     1.381696421071   120.11137308     0.19721020
 C     42   2   1     2.450019795838   135.97209175   104.16141491
 C     43  41  15     1.354461516618   106.26758155     0.30894352
 C     15  14  13     1.367461151185   171.87382904   332.35056460
 C     42   2   1     1.381886391857    32.59078432   242.70184500
 C      9   2   1     1.404988612053   126.98745415   170.18468121
 N     42   2   1     1.352765315936   113.57249190   131.89800411
 H      1   2   3     1.083543261711   104.75071602   195.13366873
 H      2   1   3     1.079907866440   111.94870629   194.41503658
 H      4   3   1     1.082792685605   121.04713889   179.54380058
 H      5   4   3     1.082953830964   122.80976260   179.42104368
 H      6   5   4     1.092542905336   104.42873890   100.02752349
 H      6   5   4     1.090131184766    84.68818133   209.46431876
 H      6   5   4     1.089803652040   133.89868569   322.32511421
 H      7   2   1     1.079807853278   126.66122480   330.03393001
 H     10   1   2     1.083664616014   118.72608456   299.42861567
 H     12   9   2     1.016297692608   125.29023241   180.00180175
 H     14  13  12     1.014936943854    44.97226959   359.42596618
 H     18  14  13     1.082871645210   128.03556573   234.20482432
 H     19  17  13     1.080893611786   126.41830519   178.11313280
 H     21  20  18     1.083569563987   121.05669627   180.67006309
 H     22  21  20     1.082483256222   122.73097286   180.59748951
 H     23  18  14     1.092105306278   103.92715769   234.93429879
 H     23  18  14     1.088871893291   134.19244188    12.25587044
 H     23  18  14     1.089833473518    84.85857450   125.45241208
 H     24  19  17     1.080075460327   127.28078426   178.44613241
 H     26  18  14     1.083408048706   118.76995697   244.94906660
 H     30  14  13     1.082703098730   127.99711412   279.66882698
 H     31  29  14     1.079759695488   125.22293469   180.92530585
 H     33  32  30     1.083188810873   121.01964473   180.74284758
 H     34  33  32     1.082494341787   122.70821597   180.59516895
 H     35  34  33     1.092652735319   105.73575241    97.19771933
 H     35  34  33     1.089462711615    84.05943581   206.43036958
 H     35  34  33     1.089268102902   133.08365142   318.50306270
 H     36  31  29     1.079439669458   126.61599965   178.98859863
 H     38  30  73     1.083742127999   118.77264435   359.90091293
 H     42   2   1     1.082178358682   119.31790784   348.52953456
 H     43  41  15     1.080281907652   126.36969097   182.06329380
 H     45  44  42     1.083277434455   121.10105945   179.58025624
 H     46  45  44     1.082194529648   122.72144639   179.46906377
 H     47  42   2     1.091546151109   106.65128841   315.16475048
 H     47  42   2     1.088818625851   132.46019523    94.52397119
 H     47  42   2     1.089531091801    83.63838232   206.04504406
 H     48  43  41     1.080402239909   127.23657387   181.62955349
 H     50  42   2     1.083186502870   118.77001737    94.71359229

---------------------------
INTERNAL COORDINATES (A.U.)
---------------------------
 C      0   0   0     0.000000000000     0.00000000     0.00000000
 C      1   0   0    10.078495720271     0.00000000     0.00000000
 C      1   2   0     4.560380980918    51.62292422     0.00000000
 C      3   1   2     2.652309899328    87.91755011   145.16798932
 C      4   3   1     2.607631715884   120.15383115     0.09703093
 C      5   4   3     4.626198173241   152.52965735     1.70563314
 C      2   1   3     2.585360837309    16.69604157   347.71137270
 C      7   2   1     2.710026725231   108.05010202   149.79551623
 C      2   1   3     2.710100516721   122.24700270    22.97695548
 C      1   2   3     2.610667426044    30.77016336   325.59058262
 N      1   2   3     2.556057707420   130.52165340    48.76850459
 N      9   2   1     2.600503484979   106.58526707   349.18034368
 N     12   9   2     5.527566200405   168.53581413   171.12065651
 N     13  12   9     5.583221047236    91.55032014    11.12112580
 N     14  13  12     5.528150518591    88.43092389   359.84326247
 C      8   7   2     2.654668413270   127.24786865   181.11170171
 C     13  12   9     2.582376967257    81.72106996   188.00453233
 C     14  13  12    10.882574804710    80.56209567   166.76250791
 C     17  13  12     2.757130505230   111.08861209   183.82872609
 C     18  14  13     4.558465206823    27.27532823    36.33507194
 C     20  18  14     2.650705180609    87.95206320   148.94598259
 C     21  20  18     2.611803198586   120.14573887   359.70382047
 C     18  14  13     4.623235745386   144.15733107    82.80075377
 C     19  17  13     2.557953565794   106.29293361   359.75308708
 C     13  12   9     2.582903091751   172.21332906    33.46711076
 C     18  14  13     2.609636529225    15.08449437   309.23336894
 N     22  21  20     2.556370638369   120.73759875     0.27865223
 C     25  13  17     2.666210041769   125.60330303   182.37774668
 C     14  13  12     2.601476916169    80.24689249   177.85461986
 C     14  13  12    10.892550769017   164.51507311   312.20821879
 C     29  14  13     2.712892575415   106.58649366   178.76395472
 C     30  14  13     4.560507835333    27.10625047    82.12560436
 C     32  30  14     2.652673401891    87.90059683   149.76154742
 C     33  32  30     2.609133588376   120.14881443   359.74174632
 C     34  33  32     4.627519515267   152.49203239     2.45173620
 C     31  29  14     2.585449236669   108.16950133     0.70383075
 C     14  13  12     2.600716325456   169.26375223   353.09862627
 C     30  14  13     2.609536633043    14.68948582   353.70041132
 N     34  33  32     2.556154803934   120.85575621     0.19603406
 C     37  14  29     2.654530526499   126.01551127   180.90772073
 C     15  14  13     2.582293994346    81.61824056   183.09049352
 C      2   1   3     8.029564866989   141.67755504   157.03888336
 C     41  15  14     2.758391104639   111.05201287   175.08990246
 C     42   2   1     4.559821839776    41.78584867   193.84656581
 C     44  42   2     2.652129475853    87.95153797   233.97558675
 C     45  44  42     2.611027836043   120.11137308     0.19721020
 C     42   2   1     4.629866436820   135.97209175   104.16141491
 C     43  41  15     2.559561325344   106.26758155     0.30894352
 C     15  14  13     2.584127074516   171.87382904   332.35056460
 C     42   2   1     2.611386828803    32.59078432   242.70184500
 C      9   2   1     2.655043698059   126.98745415   170.18468121
 N     42   2   1     2.556355970587   113.57249190   131.89800411
 H      1   2   3     2.047600018890   104.75071602   195.13366873
 H      2   1   3     2.040730117440   111.94870629   194.41503658
 H      4   3   1     2.046181635607   121.04713889   179.54380058
 H      5   4   3     2.046486156203   122.80976260   179.42104368
 H      6   5   4     2.064606880644   104.42873890   100.02752349
 H      6   5   4     2.060049389255    84.68818133   209.46431876
 H      6   5   4     2.059430442103   133.89868569   322.32511421
 H      7   2   1     2.040541119952   126.66122480   330.03393001
 H     10   1   2     2.047829345287   118.72608456   299.42861567
 H     12   9   2     1.920524309565   125.29023241   180.00180175
 H     14  13  12     1.917952867083    44.97226959   359.42596618
 H     18  14  13     2.046330847636   128.03556573   234.20482432
 H     19  17  13     2.042592906181   126.41830519   178.11313280
 H     21  20  18     2.047649722989   121.05669627   180.67006309
 H     22  21  20     2.045596898814   122.73097286   180.59748951
 H     23  18  14     2.063779938267   103.92715769   234.93429879
 H     23  18  14     2.057669673245   134.19244188    12.25587044
 H     23  18  14     2.059486796529    84.85857450   125.45241208
 H     24  19  17     2.041046823986   127.28078426   178.44613241
 H     26  18  14     2.047344503340   118.76995697   244.94906660
 H     30  14  13     2.046012340948   127.99711412   279.66882698
 H     31  29  14     2.040450114918   125.22293469   180.92530585
 H     33  32  30     2.046930203877   121.01964473   180.74284758
 H     34  33  32     2.045617847496   122.70821597   180.59516895
 H     35  34  33     2.064814429233   105.73575241    97.19771933
 H     35  34  33     2.058786158072    84.05943581   206.43036958
 H     35  34  33     2.058418400901   133.08365142   318.50306270
 H     36  31  29     2.039845353366   126.61599965   178.98859863
 H     38  30  73     2.047975821711   118.77264435   359.90091293
 H     42   2   1     2.045020725966   119.31790784   348.52953456
 H     43  41  15     2.041436952892   126.36969097   182.06329380
 H     45  44  42     2.047097678177   121.10105945   179.58025624
 H     46  45  44     2.045051284662   122.72144639   179.46906377
 H     47  42   2     2.062723288131   106.65128841   315.16475048
 H     47  42   2     2.057569012371   132.46019523    94.52397119
 H     47  42   2     2.058915377895    83.63838232   206.04504406
 H     48  43  41     2.041664347903   127.23657387   181.62955349
 H     50  42   2     2.046925842384   118.77001737    94.71359229

---------------------
BASIS SET INFORMATION
---------------------
There are 3 groups of distinct atoms

 Group   1 Type C   : 17s4p1d contracted to 3s2p1d pattern {881/31/1}
 Group   2 Type N   : 17s4p1d contracted to 3s2p1d pattern {881/31/1}
 Group   3 Type H   : 4s1p contracted to 2s1p pattern {31/1}

Atom   0C    basis set group =>   1
Atom   1N    basis set group =>   2
Atom   2C    basis set group =>   1
Atom   3N    basis set group =>   2
Atom   4C    basis set group =>   1
Atom   5N    basis set group =>   2
Atom   6C    basis set group =>   1
Atom   7N    basis set group =>   2
Atom   8C    basis set group =>   1
Atom   9N    basis set group =>   2
Atom  10C    basis set group =>   1
Atom  11N    basis set group =>   2
Atom  12C    basis set group =>   1
Atom  13N    basis set group =>   2
Atom  14C    basis set group =>   1
Atom  15N    basis set group =>   2
Atom  16C    basis set group =>   1
Atom  17C    basis set group =>   1
Atom  18C    basis set group =>   1
Atom  19C    basis set group =>   1
Atom  20C    basis set group =>   1
Atom  21C    basis set group =>   1
Atom  22C    basis set group =>   1
Atom  23C    basis set group =>   1
Atom  24C    basis set group =>   1
Atom  25C    basis set group =>   1
Atom  26C    basis set group =>   1
Atom  27C    basis set group =>   1
Atom  28C    basis set group =>   1
Atom  29C    basis set group =>   1
Atom  30C    basis set group =>   1
Atom  31C    basis set group =>   1
Atom  32C    basis set group =>   1
Atom  33C    basis set group =>   1
Atom  34C    basis set group =>   1
Atom  35C    basis set group =>   1
Atom  36C    basis set group =>   1
Atom  37C    basis set group =>   1
Atom  38C    basis set group =>   1
Atom  39C    basis set group =>   1
Atom  40C    basis set group =>   1
Atom  41C    basis set group =>   1
Atom  42C    basis set group =>   1
Atom  43C    basis set group =>   1
Atom  44C    basis set group =>   1
Atom  45C    basis set group =>   1
Atom  46C    basis set group =>   1
Atom  47C    basis set group =>   1
Atom  48C    basis set group =>   1
Atom  49C    basis set group =>   1
Atom  50C    basis set group =>   1
Atom  51C    basis set group =>   1
Atom  52H    basis set group =>   3
Atom  53H    basis set group =>   3
Atom  54H    basis set group =>   3
Atom  55H    basis set group =>   3
Atom  56H    basis set group =>   3
Atom  57H    basis set group =>   3
Atom  58H    basis set group =>   3
Atom  59H    basis set group =>   3
Atom  60H    basis set group =>   3
Atom  61H    basis set group =>   3
Atom  62H    basis set group =>   3
Atom  63H    basis set group =>   3
Atom  64H    basis set group =>   3
Atom  65H    basis set group =>   3
Atom  66H    basis set group =>   3
Atom  67H    basis set group =>   3
Atom  68H    basis set group =>   3
Atom  69H    basis set group =>   3
Atom  70H    basis set group =>   3
Atom  71H    basis set group =>   3
Atom  72H    basis set group =>   3
Atom  73H    basis set group =>   3
Atom  74H    basis set group =>   3
Atom  75H    basis set group =>   3
Atom  76H    basis set group =>   3
Atom  77H    basis set group =>   3
Atom  78H    basis set group =>   3
Atom  79H    basis set group =>   3
Atom  80H    basis set group =>   3
Atom  81H    basis set group =>   3
Atom  82H    basis set group =>   3
Atom  83H    basis set group =>   3
Atom  84H    basis set group =>   3
Atom  85H    basis set group =>   3
Atom  86H    basis set group =>   3
Atom  87H    basis set group =>   3
Atom  88H    basis set group =>   3
Atom  89H    basis set group =>   3


           ************************************************************
           *        Program running with 16 parallel MPI-processes    *
           *              working on a common directory               *
           ************************************************************
------------------------------------------------------------------------------
                           ORCA GTO INTEGRAL CALCULATION
------------------------------------------------------------------------------
------------------------------------------------------------------------------
                   ___                                                        
                  /   \      - P O W E R E D   B Y -                         
                 /     \                                                     
                 |  |  |   _    _      __       _____    __    __             
                 |  |  |  | |  | |    /  \     |  _  \  |  |  /  |          
                  \  \/   | |  | |   /    \    | | | |  |  | /  /          
                 / \  \   | |__| |  /  /\  \   | |_| |  |  |/  /          
                |  |  |   |  __  | /  /__\  \  |    /   |      \           
                |  |  |   | |  | | |   __   |  |    \   |  |\   \          
                \     /   | |  | | |  |  |  |  | |\  \  |  | \   \       
                 \___/    |_|  |_| |__|  |__|  |_| \__\ |__|  \__/        
                                                                              
                      - O R C A' S   B I G   F R I E N D -                    
                                      &                                       
                       - I N T E G R A L  F E E D E R -                       
                                                                              
 v1 FN, 2020, v2 2021                                                         
------------------------------------------------------------------------------


Reading SHARK input file /scratch/allen/tmpyp4_amber_gaff2/conf1/conf1/Conf44.orca.SHARKINP.tmp ... ok
----------------------
SHARK INTEGRAL PACKAGE
----------------------

Number of atoms                             ...     90
Number of basis functions                   ...   1230
Number of shells                            ...    738
Maximum angular momentum                    ...      2
Integral batch strategy                     ... SHARK/LIBINT Hybrid
RI-J (if used) integral strategy            ... SPLIT-RIJ (Revised 2003 algorithm where possible)
Printlevel                                  ...      1
Contraction scheme used                     ... PARTIAL GENERAL contraction
Coulomb Range Separation                    ... NOT USED
Exchange Range Separation                   ... NOT USED
Finite Nucleus Model                        ... NOT USED
Auxiliary Coulomb fitting basis             ... NOT available
Auxiliary J/K fitting basis                 ... NOT available
Auxiliary Correlation fitting basis         ... NOT available
Auxiliary 'external' fitting basis          ... NOT available
Integral threshold                          ...     2.500000e-11
Primitive cut-off                           ...     2.500000e-12
Primitive pair pre-selection threshold      ...     2.500000e-12

Calculating pre-screening integrals         ... done (  0.1 sec) Dimension = 738
Calculating pre-screening integrals (ORCA)  ... done (  0.3 sec) Dimension = 426
Organizing shell pair data                  ... done (  0.5 sec)
Shell pair information
Total number of shell pairs                 ...    272691
Shell pairs after pre-screening             ...     71644
Total number of primitive shell pairs       ...    422091
Primitive shell pairs kept                  ...     92436
          la=0 lb=0:  29420 shell pairs
          la=1 lb=0:  25987 shell pairs
          la=1 lb=1:   4708 shell pairs
          la=2 lb=0:   7877 shell pairs
          la=2 lb=1:   3122 shell pairs
          la=2 lb=2:    530 shell pairs

Calculating one electron integrals          ... done (  0.2 sec)
Calculating Nuclear repulsion               ... done (  0.0 sec) ENN=   6228.650701153021 Eh

SHARK setup successfully completed in   1.7 seconds

Maximum memory used throughout the entire GTOINT-calculation: 99.0 MB


           ************************************************************
           *        Program running with 16 parallel MPI-processes    *
           *              working on a common directory               *
           ************************************************************
-------------------------------------------------------------------------------
                                 ORCA SCF
-------------------------------------------------------------------------------

------------
SCF SETTINGS
------------
Hamiltonian:
 Ab initio Hamiltonian  Method          .... Hartree-Fock(GTOs)


General Settings:
 Integral files         IntName         .... /scratch/allen/tmpyp4_amber_gaff2/conf1/conf1/Conf44.orca
 Hartree-Fock type      HFTyp           .... RHF
 Total Charge           Charge          ....    0
 Multiplicity           Mult            ....    1
 Number of Electrons    NEL             ....  358
 Basis Dimension        Dim             ....  918
 Nuclear Repulsion      ENuc            ....   6228.6507011530 Eh

Convergence Acceleration:
 DIIS                   CNVDIIS         .... on
   Start iteration      DIISMaxIt       ....    12
   Startup error        DIISStart       ....  0.200000
   # of expansion vecs  DIISMaxEq       ....     5
   Bias factor          DIISBfac        ....   1.050
   Max. coefficient     DIISMaxC        ....  10.000
 Trust-Rad. Augm. Hess. CNVTRAH         .... auto
   Auto Start mean grad. ratio tolernc. ....  1.125000
   Auto Start start iteration           ....    20
   Auto Start num. interpolation iter.  ....    10
   Max. Number of Micro iterations      ....    16
   Max. Number of Macro iterations      .... Maxiter - #DIIS iter
   Number of Davidson start vectors     ....     2
   Converg. threshold I  (grad. norm)   ....   1.000e-05
   Converg. threshold II (energy diff.) ....   1.000e-08
   Grad. Scal. Fac. for Micro threshold ....   0.100
   Minimum threshold for Micro iter.    ....   0.010
   NR start threshold (gradient norm)   ....   0.001
   Initial trust radius                 ....   0.400
   Minimum AH scaling param. (alpha)    ....   1.000
   Maximum AH scaling param. (alpha)    .... 1000.000
   Orbital update algorithm             .... Taylor
   White noise on init. David. guess    .... on
   Maximum white noise                  ....   0.010
   Quad. conv. algorithm                .... NR
 SOSCF                  CNVSOSCF        .... on
   Start iteration      SOSCFMaxIt      ....   150
   Startup grad/error   SOSCFStart      ....  0.003300
 Level Shifting         CNVShift        .... on
   Level shift para.    LevelShift      ....    0.2500
   Turn off err/grad.   ShiftErr        ....    0.0010
 Zerner damping         CNVZerner       .... off
 Static damping         CNVDamp         .... on
   Fraction old density DampFac         ....    0.7000
   Max. Damping (<1)    DampMax         ....    0.9800
   Min. Damping (>=0)   DampMin         ....    0.0000
   Turn off err/grad.   DampErr         ....    0.1000
 Fernandez-Rico         CNVRico         .... off

SCF Procedure:
 Maximum # iterations   MaxIter         ....   125
 SCF integral mode      SCFMode         .... Direct
   Integral package                     .... SHARK and LIBINT hybrid scheme
 Reset frequency        DirectResetFreq ....    20
 Integral Threshold     Thresh          ....  2.500e-11 Eh
 Primitive CutOff       TCut            ....  2.500e-12 Eh

Convergence Tolerance:
 Convergence Check Mode ConvCheckMode   .... Total+1el-Energy
 Convergence forced     ConvForced      .... 1
 Energy Change          TolE            ....  1.000e-08 Eh
 1-El. energy change                    ....  1.000e-05 Eh
 Orbital Gradient       TolG            ....  1.000e-05
 Orbital Rotation angle TolX            ....  1.000e-05
 DIIS Error             TolErr          ....  5.000e-07


Diagonalization of the overlap matrix:
Smallest eigenvalue                        ... 2.227e-04
Time for diagonalization                   ...    0.364 sec
Threshold for overlap eigenvalues          ... 1.000e-08
Number of eigenvalues below threshold      ... 0
Time for construction of square roots      ...    0.193 sec
Total time needed                          ...    0.562 sec

Time for model grid setup =    1.003 sec

------------------------------
INITIAL GUESS: MODEL POTENTIAL
------------------------------
Loading Hartree-Fock densities                     ... done
Calculating cut-offs                               ... done
Initializing the effective Hamiltonian             ... done
Setting up the integral package (SHARK)            ... done
Starting the Coulomb interaction                   ... done (   1.1 sec)
Reading the grid                                   ... done
Mapping shells                                     ... done
Starting the XC term evaluation                    ... done (   0.2 sec)
Transforming the Hamiltonian                       ... done (   0.2 sec)
Diagonalizing the Hamiltonian                      ... done (   0.3 sec)
Back transforming the eigenvectors                 ... done (   0.1 sec)
Now organizing SCF variables                       ... done
                      ------------------
                      INITIAL GUESS DONE (   2.9 sec)
                      ------------------
--------------
SCF ITERATIONS
--------------
ITER       Energy         Delta-E        Max-DP      RMS-DP      [F,P]     Damp
               ***  Starting incremental Fock matrix formation  ***
  0  -2121.6859498877   0.000000000000 0.06871461  0.00121220  0.2325584 0.7000
  1  -2122.3454993408  -0.659549453130 0.05209144  0.00098537  0.1439714 0.7000
                               ***Turning on DIIS***
  2  -2122.7552403816  -0.409741040832 0.11572152  0.00223419  0.0802312 0.0000
  3  -2117.8386698288   4.916570552794 0.03122746  0.00067845  0.0440766 0.0000
  4  -2123.4224444850  -5.583774656141 0.01002841  0.00022726  0.0071670 0.0000
  5  -2123.5912525167  -0.168808031751 0.00527656  0.00013390  0.0049645 0.0000
  6  -2123.5747586509   0.016493865811 0.00349387  0.00008621  0.0019805 0.0000
  7  -2123.6760020798  -0.101243428850 0.00295103  0.00006769  0.0015379 0.0000
  8  -2123.6899946696  -0.013992589795 0.00304669  0.00006344  0.0014330 0.0000
  9  -2123.6572041131   0.032790556435 0.00243520  0.00004358  0.0011398 0.0000
 10  -2123.6684549162  -0.011250803109 0.00492476  0.00008788  0.0008760 0.0000
                      *** Initiating the SOSCF procedure ***
                           *** Shutting down DIIS ***
                      *** Re-Reading the Fockian *** 
                      *** Removing any level shift *** 
ITER      Energy       Delta-E        Grad      Rot      Max-DP    RMS-DP
 11  -2123.55619618   0.1122587378  0.000238  0.000238  0.000251  0.000006
               *** Restarting incremental Fock matrix formation ***
 12  -2123.62191294  -0.0657167643  0.000891  0.005999  0.001184  0.000031
 13  -2123.62199670  -0.0000837617  0.001034  0.028195  0.005619  0.000117
 14  -2123.62213272  -0.0001360206  0.000390  0.001774  0.000546  0.000012
 15  -2123.62214805  -0.0000153237  0.000180  0.003652  0.001018  0.000019
 16  -2123.62215819  -0.0000101393  0.000165  0.003978  0.000642  0.000014
 17  -2123.62216252  -0.0000043303  0.000162  0.002635  0.000391  0.000009
 18  -2123.62216485  -0.0000023272  0.000082  0.001320  0.000315  0.000006
 19  -2123.62216597  -0.0000011241  0.000055  0.000720  0.000170  0.000003
 20  -2123.62216632  -0.0000003504  0.000027  0.000426  0.000115  0.000002
 21  -2123.62216652  -0.0000002028  0.000028  0.000473  0.000106  0.000002
 22  -2123.62216665  -0.0000001262  0.000020  0.000572  0.000118  0.000002
 23  -2123.62216673  -0.0000000793  0.000011  0.000310  0.000057  0.000001
 24  -2123.62216676  -0.0000000345  0.000006  0.000233  0.000044  0.000001
 25  -2123.62216679  -0.0000000240  0.000007  0.000150  0.000025  0.000001
 26  -2123.62216680  -0.0000000128  0.000005  0.000153  0.000025  0.000001
 27  -2123.62216681  -0.0000000085  0.000004  0.000150  0.000023  0.000001
 28  -2123.62216681  -0.0000000037  0.000003  0.000115  0.000016  0.000000
                  ***Gradient check signals convergence***
              ***Rediagonalizing the Fockian in SOSCF/NRSCF***

               *****************************************************
               *                     SUCCESS                       *
               *           SCF CONVERGED AFTER  29 CYCLES          *
               *****************************************************


----------------
TOTAL SCF ENERGY
----------------

Total Energy       :        -2123.62216682 Eh          -57786.69698 eV

Components:
Nuclear Repulsion  :         6228.65070115 Eh          169490.20229 eV
Electronic Energy  :        -8352.27286797 Eh         -227276.89927 eV
One Electron Energy:       -15298.20660632 Eh         -416285.36530 eV
Two Electron Energy:         6945.93373835 Eh          189008.46603 eV

Virial components:
Potential Energy   :        -4245.69838727 Eh         -115531.32662 eV
Kinetic Energy     :         2122.07622045 Eh           57744.62964 eV
Virial Ratio       :            2.00072851


---------------
SCF CONVERGENCE
---------------

  Last Energy change         ...   -8.3510e-09  Tolerance :   1.0000e-08
  Last MAX-Density change    ...    8.1278e-06  Tolerance :   1.0000e-07
  Last RMS-Density change    ...    1.8206e-07  Tolerance :   5.0000e-09
  Last Orbital Gradient      ...    1.5876e-06  Tolerance :   1.0000e-05
  Last Orbital Rotation      ...    4.7855e-05  Tolerance :   1.0000e-05

             **** THE GBW FILE WAS UPDATED (/scratch/allen/tmpyp4_amber_gaff2/conf1/conf1/Conf44.orca.gbw) ****
             **** DENSITY /scratch/allen/tmpyp4_amber_gaff2/conf1/conf1/Conf44.orca.scfp WAS UPDATED ****
             **** ENERGY FILE WAS UPDATED (/scratch/allen/tmpyp4_amber_gaff2/conf1/conf1/Conf44.orca.en.tmp) ****
             **** THE GBW FILE WAS UPDATED (/scratch/allen/tmpyp4_amber_gaff2/conf1/conf1/Conf44.orca.gbw) ****
             **** DENSITY /scratch/allen/tmpyp4_amber_gaff2/conf1/conf1/Conf44.orca.scfp WAS UPDATED ****
----------------
ORBITAL ENERGIES
----------------

  NO   OCC          E(Eh)            E(eV) 
   0   2.0000     -15.661758      -426.1781 
   1   2.0000     -15.636120      -425.4805 
   2   2.0000     -15.630375      -425.3241 
   3   2.0000     -15.600988      -424.5245 
   4   2.0000     -15.522899      -422.3995 
   5   2.0000     -15.516417      -422.2232 
   6   2.0000     -15.449832      -420.4113 
   7   2.0000     -15.442605      -420.2146 
   8   2.0000     -11.316782      -307.9453 
   9   2.0000     -11.314668      -307.8878 
  10   2.0000     -11.312871      -307.8389 
  11   2.0000     -11.300639      -307.5060 
  12   2.0000     -11.297302      -307.4152 
  13   2.0000     -11.293790      -307.3196 
  14   2.0000     -11.289433      -307.2011 
  15   2.0000     -11.288822      -307.1845 
  16   2.0000     -11.286099      -307.1104 
  17   2.0000     -11.279710      -306.9365 
  18   2.0000     -11.265222      -306.5423 
  19   2.0000     -11.265078      -306.5384 
  20   2.0000     -11.263473      -306.4947 
  21   2.0000     -11.250650      -306.1457 
  22   2.0000     -11.249727      -306.1206 
  23   2.0000     -11.239637      -305.8461 
  24   2.0000     -11.235036      -305.7209 
  25   2.0000     -11.232647      -305.6559 
  26   2.0000     -11.231850      -305.6342 
  27   2.0000     -11.228491      -305.5428 
  28   2.0000     -11.228379      -305.5397 
  29   2.0000     -11.210310      -305.0480 
  30   2.0000     -11.206549      -304.9457 
  31   2.0000     -11.205656      -304.9214 
  32   2.0000     -11.205268      -304.9109 
  33   2.0000     -11.203970      -304.8755 
  34   2.0000     -11.191546      -304.5375 
  35   2.0000     -11.190902      -304.5199 
  36   2.0000     -11.183250      -304.3117 
  37   2.0000     -11.181215      -304.2563 
  38   2.0000     -11.180489      -304.2366 
  39   2.0000     -11.172474      -304.0185 
  40   2.0000     -11.169337      -303.9331 
  41   2.0000     -11.167961      -303.8957 
  42   2.0000     -11.164499      -303.8015 
  43   2.0000     -11.164437      -303.7998 
  44   2.0000     -11.162874      -303.7572 
  45   2.0000     -11.161311      -303.7147 
  46   2.0000     -11.153938      -303.5141 
  47   2.0000     -11.150312      -303.4154 
  48   2.0000     -11.150137      -303.4106 
  49   2.0000     -11.145051      -303.2723 
  50   2.0000     -11.136387      -303.0365 
  51   2.0000     -11.130127      -302.8662 
  52   2.0000      -1.345031       -36.6001 
  53   2.0000      -1.323052       -36.0021 
  54   2.0000      -1.318250       -35.8714 
  55   2.0000      -1.293799       -35.2061 
  56   2.0000      -1.222680       -33.2708 
  57   2.0000      -1.211502       -32.9667 
  58   2.0000      -1.167831       -31.7783 
  59   2.0000      -1.154457       -31.4144 
  60   2.0000      -1.130680       -30.7674 
  61   2.0000      -1.111604       -30.2483 
  62   2.0000      -1.107688       -30.1417 
  63   2.0000      -1.088146       -29.6100 
  64   2.0000      -1.067808       -29.0565 
  65   2.0000      -1.047105       -28.4932 
  66   2.0000      -1.042939       -28.3798 
  67   2.0000      -1.032928       -28.1074 
  68   2.0000      -1.021267       -27.7901 
  69   2.0000      -1.013128       -27.5686 
  70   2.0000      -1.009841       -27.4792 
  71   2.0000      -0.993103       -27.0237 
  72   2.0000      -0.986821       -26.8528 
  73   2.0000      -0.976006       -26.5585 
  74   2.0000      -0.973238       -26.4832 
  75   2.0000      -0.959671       -26.1140 
  76   2.0000      -0.950846       -25.8738 
  77   2.0000      -0.948202       -25.8019 
  78   2.0000      -0.936673       -25.4882 
  79   2.0000      -0.921757       -25.0823 
  80   2.0000      -0.899066       -24.4648 
  81   2.0000      -0.889947       -24.2167 
  82   2.0000      -0.874572       -23.7983 
  83   2.0000      -0.870568       -23.6894 
  84   2.0000      -0.864934       -23.5360 
  85   2.0000      -0.855640       -23.2831 
  86   2.0000      -0.845723       -23.0133 
  87   2.0000      -0.838527       -22.8175 
  88   2.0000      -0.822622       -22.3847 
  89   2.0000      -0.798675       -21.7330 
  90   2.0000      -0.795142       -21.6369 
  91   2.0000      -0.744092       -20.2478 
  92   2.0000      -0.737206       -20.0604 
  93   2.0000      -0.731213       -19.8973 
  94   2.0000      -0.722354       -19.6562 
  95   2.0000      -0.720829       -19.6148 
  96   2.0000      -0.713699       -19.4207 
  97   2.0000      -0.706520       -19.2254 
  98   2.0000      -0.702424       -19.1139 
  99   2.0000      -0.695563       -18.9272 
 100   2.0000      -0.693291       -18.8654 
 101   2.0000      -0.681801       -18.5528 
 102   2.0000      -0.678609       -18.4659 
 103   2.0000      -0.675689       -18.3864 
 104   2.0000      -0.672611       -18.3027 
 105   2.0000      -0.671634       -18.2761 
 106   2.0000      -0.664225       -18.0745 
 107   2.0000      -0.662710       -18.0332 
 108   2.0000      -0.655319       -17.8321 
 109   2.0000      -0.654240       -17.8028 
 110   2.0000      -0.650626       -17.7044 
 111   2.0000      -0.647649       -17.6234 
 112   2.0000      -0.643115       -17.5001 
 113   2.0000      -0.637677       -17.3521 
 114   2.0000      -0.632998       -17.2248 
 115   2.0000      -0.631198       -17.1758 
 116   2.0000      -0.625304       -17.0154 
 117   2.0000      -0.615382       -16.7454 
 118   2.0000      -0.613937       -16.7061 
 119   2.0000      -0.611111       -16.6292 
 120   2.0000      -0.610125       -16.6023 
 121   2.0000      -0.601985       -16.3808 
 122   2.0000      -0.599646       -16.3172 
 123   2.0000      -0.589538       -16.0421 
 124   2.0000      -0.587294       -15.9811 
 125   2.0000      -0.582724       -15.8567 
 126   2.0000      -0.579573       -15.7710 
 127   2.0000      -0.576415       -15.6850 
 128   2.0000      -0.563669       -15.3382 
 129   2.0000      -0.558512       -15.1979 
 130   2.0000      -0.554552       -15.0901 
 131   2.0000      -0.549199       -14.9445 
 132   2.0000      -0.541289       -14.7292 
 133   2.0000      -0.537685       -14.6312 
 134   2.0000      -0.535194       -14.5634 
 135   2.0000      -0.533752       -14.5241 
 136   2.0000      -0.525841       -14.3089 
 137   2.0000      -0.524300       -14.2669 
 138   2.0000      -0.516789       -14.0625 
 139   2.0000      -0.516351       -14.0506 
 140   2.0000      -0.511240       -13.9116 
 141   2.0000      -0.509555       -13.8657 
 142   2.0000      -0.507881       -13.8202 
 143   2.0000      -0.502278       -13.6677 
 144   2.0000      -0.501095       -13.6355 
 145   2.0000      -0.498059       -13.5529 
 146   2.0000      -0.494342       -13.4517 
 147   2.0000      -0.487147       -13.2559 
 148   2.0000      -0.485611       -13.2141 
 149   2.0000      -0.468805       -12.7568 
 150   2.0000      -0.463616       -12.6156 
 151   2.0000      -0.455755       -12.4017 
 152   2.0000      -0.448574       -12.2063 
 153   2.0000      -0.446514       -12.1503 
 154   2.0000      -0.445177       -12.1139 
 155   2.0000      -0.440880       -11.9969 
 156   2.0000      -0.432535       -11.7699 
 157   2.0000      -0.426986       -11.6189 
 158   2.0000      -0.399159       -10.8617 
 159   2.0000      -0.387077       -10.5329 
 160   2.0000      -0.378447       -10.2981 
 161   2.0000      -0.375392       -10.2149 
 162   2.0000      -0.370407       -10.0793 
 163   2.0000      -0.357960        -9.7406 
 164   2.0000      -0.354614        -9.6495 
 165   2.0000      -0.337850        -9.1934 
 166   2.0000      -0.336813        -9.1652 
 167   2.0000      -0.333576        -9.0771 
 168   2.0000      -0.327647        -8.9157 
 169   2.0000      -0.301093        -8.1932 
 170   2.0000      -0.299916        -8.1611 
 171   2.0000      -0.287437        -7.8216 
 172   2.0000      -0.285047        -7.7565 
 173   2.0000      -0.259943        -7.0734 
 174   2.0000      -0.245660        -6.6848 
 175   2.0000      -0.189347        -5.1524 
 176   2.0000      -0.179521        -4.8850 
 177   2.0000      -0.071542        -1.9468 
 178   2.0000      -0.056770        -1.5448 
 179   0.0000       0.029306         0.7975 
 180   0.0000       0.068423         1.8619 
 181   0.0000       0.092185         2.5085 
 182   0.0000       0.104145         2.8339 
 183   0.0000       0.118280         3.2186 
 184   0.0000       0.135874         3.6973 
 185   0.0000       0.140242         3.8162 
 186   0.0000       0.150342         4.0910 
 187   0.0000       0.161516         4.3951 
 188   0.0000       0.162186         4.4133 
 189   0.0000       0.164030         4.4635 
 190   0.0000       0.166610         4.5337 
 191   0.0000       0.181283         4.9330 
 192   0.0000       0.189925         5.1681 
 193   0.0000       0.193313         5.2603 
 194   0.0000       0.203831         5.5465 
 195   0.0000       0.206545         5.6204 
 196   0.0000       0.207173         5.6375 
 197   0.0000       0.209595         5.7034 
 198   0.0000       0.221306         6.0220 
 199   0.0000       0.225266         6.1298 
 200   0.0000       0.225363         6.1324 
 201   0.0000       0.238252         6.4832 
 202   0.0000       0.240696         6.5497 
 203   0.0000       0.242990         6.6121 
 204   0.0000       0.252104         6.8601 
 205   0.0000       0.254159         6.9160 
 206   0.0000       0.256237         6.9726 
 207   0.0000       0.258236         7.0270 
 208   0.0000       0.261965         7.1284 
 209   0.0000       0.262655         7.1472 
 210   0.0000       0.265530         7.2254 
 211   0.0000       0.269999         7.3470 
 212   0.0000       0.272036         7.4025 
 213   0.0000       0.273162         7.4331 
 214   0.0000       0.275402         7.4941 
 215   0.0000       0.278529         7.5792 
 216   0.0000       0.279512         7.6059 
 217   0.0000       0.281902         7.6709 
 218   0.0000       0.284199         7.7335 
 219   0.0000       0.288943         7.8625 
 220   0.0000       0.290189         7.8964 
 221   0.0000       0.293295         7.9810 
 222   0.0000       0.294281         8.0078 
 223   0.0000       0.295757         8.0479 
 224   0.0000       0.297709         8.1011 
 225   0.0000       0.298949         8.1348 
 226   0.0000       0.305581         8.3153 
 227   0.0000       0.309233         8.4147 
 228   0.0000       0.309839         8.4312 
 229   0.0000       0.319224         8.6865 
 230   0.0000       0.323704         8.8084 
 231   0.0000       0.324373         8.8266 
 232   0.0000       0.326482         8.8840 
 233   0.0000       0.330956         9.0058 
 234   0.0000       0.343195         9.3388 
 235   0.0000       0.347062         9.4440 
 236   0.0000       0.357317         9.7231 
 237   0.0000       0.382151        10.3989 
 238   0.0000       0.394871        10.7450 
 239   0.0000       0.398150        10.8342 
 240   0.0000       0.402175        10.9437 
 241   0.0000       0.415561        11.3080 
 242   0.0000       0.418846        11.3974 
 243   0.0000       0.422884        11.5072 
 244   0.0000       0.429398        11.6845 
 245   0.0000       0.430496        11.7144 
 246   0.0000       0.434162        11.8142 
 247   0.0000       0.440229        11.9792 
 248   0.0000       0.442238        12.0339 
 249   0.0000       0.443745        12.0749 
 250   0.0000       0.451220        12.2783 
 251   0.0000       0.458736        12.4829 
 252   0.0000       0.461396        12.5552 
 253   0.0000       0.463379        12.6092 
 254   0.0000       0.470817        12.8116 
 255   0.0000       0.473438        12.8829 
 256   0.0000       0.482340        13.1251 
 257   0.0000       0.483219        13.1490 
 258   0.0000       0.489189        13.3115 
 259   0.0000       0.498879        13.5752 
 260   0.0000       0.502056        13.6616 
 261   0.0000       0.505310        13.7502 
 262   0.0000       0.506610        13.7856 
 263   0.0000       0.507300        13.8043 
 264   0.0000       0.513835        13.9822 
 265   0.0000       0.518901        14.1200 
 266   0.0000       0.519994        14.1498 
 267   0.0000       0.524562        14.2741 
 268   0.0000       0.534588        14.5469 
 269   0.0000       0.537249        14.6193 
 270   0.0000       0.540847        14.7172 
 271   0.0000       0.546278        14.8650 
 272   0.0000       0.550302        14.9745 
 273   0.0000       0.555563        15.1176 
 274   0.0000       0.559728        15.2310 
 275   0.0000       0.564312        15.3557 
 276   0.0000       0.570899        15.5350 
 277   0.0000       0.574867        15.6429 
 278   0.0000       0.580045        15.7838 
 279   0.0000       0.585213        15.9244 
 280   0.0000       0.587212        15.9788 
 281   0.0000       0.591819        16.1042 
 282   0.0000       0.593485        16.1495 
 283   0.0000       0.597052        16.2466 
 284   0.0000       0.598948        16.2982 
 285   0.0000       0.600059        16.3284 
 286   0.0000       0.607212        16.5231 
 287   0.0000       0.612816        16.6756 
 288   0.0000       0.614639        16.7252 
 289   0.0000       0.615662        16.7530 
 290   0.0000       0.627014        17.0619 
 291   0.0000       0.630196        17.1485 
 292   0.0000       0.633468        17.2376 
 293   0.0000       0.636269        17.3138 
 294   0.0000       0.644976        17.5507 
 295   0.0000       0.650015        17.6878 
 296   0.0000       0.654411        17.8074 
 297   0.0000       0.657582        17.8937 
 298   0.0000       0.666167        18.1273 
 299   0.0000       0.666742        18.1430 
 300   0.0000       0.669390        18.2150 
 301   0.0000       0.670667        18.2498 
 302   0.0000       0.678841        18.4722 
 303   0.0000       0.681547        18.5458 
 304   0.0000       0.682827        18.5807 
 305   0.0000       0.686066        18.6688 
 306   0.0000       0.690268        18.7831 
 307   0.0000       0.693421        18.8689 
 308   0.0000       0.696061        18.9408 
 309   0.0000       0.697984        18.9931 
 310   0.0000       0.700177        19.0528 
 311   0.0000       0.704093        19.1593 
 312   0.0000       0.705427        19.1957 
 313   0.0000       0.710589        19.3361 
 314   0.0000       0.711489        19.3606 
 315   0.0000       0.714376        19.4392 
 316   0.0000       0.717848        19.5336 
 317   0.0000       0.718025        19.5385 
 318   0.0000       0.719080        19.5672 
 319   0.0000       0.725640        19.7457 
 320   0.0000       0.726875        19.7793 
 321   0.0000       0.728222        19.8159 
 322   0.0000       0.732884        19.9428 
 323   0.0000       0.736158        20.0319 
 324   0.0000       0.738693        20.1009 
 325   0.0000       0.740398        20.1473 
 326   0.0000       0.741295        20.1717 
 327   0.0000       0.743205        20.2236 
 328   0.0000       0.748957        20.3801 
 329   0.0000       0.749534        20.3958 
 330   0.0000       0.754376        20.5276 
 331   0.0000       0.756795        20.5934 
 332   0.0000       0.758928        20.6515 
 333   0.0000       0.761724        20.7276 
 334   0.0000       0.768379        20.9086 
 335   0.0000       0.772281        21.0148 
 336   0.0000       0.776556        21.1312 
 337   0.0000       0.779835        21.2204 
 338   0.0000       0.785007        21.3611 
 339   0.0000       0.788993        21.4696 
 340   0.0000       0.790874        21.5208 
 341   0.0000       0.794917        21.6308 
 342   0.0000       0.797982        21.7142 
 343   0.0000       0.802287        21.8313 
 344   0.0000       0.804082        21.8802 
 345   0.0000       0.806360        21.9422 
 346   0.0000       0.809222        22.0200 
 347   0.0000       0.811076        22.0705 
 348   0.0000       0.813770        22.1438 
 349   0.0000       0.818402        22.2698 
 350   0.0000       0.821076        22.3426 
 351   0.0000       0.824078        22.4243 
 352   0.0000       0.825629        22.4665 
 353   0.0000       0.826117        22.4798 
 354   0.0000       0.829112        22.5613 
 355   0.0000       0.833023        22.6677 
 356   0.0000       0.833880        22.6910 
 357   0.0000       0.835676        22.7399 
 358   0.0000       0.836522        22.7629 
 359   0.0000       0.838392        22.8138 
 360   0.0000       0.839669        22.8486 
 361   0.0000       0.842746        22.9323 
 362   0.0000       0.844454        22.9788 
 363   0.0000       0.845626        23.0106 
 364   0.0000       0.845930        23.0189 
 365   0.0000       0.852331        23.1931 
 366   0.0000       0.853940        23.2369 
 367   0.0000       0.859750        23.3950 
 368   0.0000       0.860214        23.4076 
 369   0.0000       0.863341        23.4927 
 370   0.0000       0.864809        23.5327 
 371   0.0000       0.871359        23.7109 
 372   0.0000       0.875168        23.8145 
 373   0.0000       0.878019        23.8921 
 374   0.0000       0.881741        23.9934 
 375   0.0000       0.882800        24.0222 
 376   0.0000       0.884356        24.0646 
 377   0.0000       0.888010        24.1640 
 378   0.0000       0.891391        24.2560 
 379   0.0000       0.895691        24.3730 
 380   0.0000       0.896338        24.3906 
 381   0.0000       0.898545        24.4507 
 382   0.0000       0.901649        24.5351 
 383   0.0000       0.902363        24.5546 
 384   0.0000       0.903270        24.5792 
 385   0.0000       0.905128        24.6298 
 386   0.0000       0.907732        24.7007 
 387   0.0000       0.909205        24.7407 
 388   0.0000       0.910943        24.7880 
 389   0.0000       0.915597        24.9147 
 390   0.0000       0.917394        24.9636 
 391   0.0000       0.922689        25.1076 
 392   0.0000       0.924042        25.1445 
 393   0.0000       0.924577        25.1590 
 394   0.0000       0.927242        25.2315 
 395   0.0000       0.931712        25.3532 
 396   0.0000       0.933079        25.3904 
 397   0.0000       0.933971        25.4146 
 398   0.0000       0.940316        25.5873 
 399   0.0000       0.941026        25.6066 
 400   0.0000       0.944575        25.7032 
 401   0.0000       0.946193        25.7472 
 402   0.0000       0.952601        25.9216 
 403   0.0000       0.954528        25.9740 
 404   0.0000       0.958431        26.0802 
 405   0.0000       0.959883        26.1197 
 406   0.0000       0.960717        26.1424 
 407   0.0000       0.965543        26.2738 
 408   0.0000       0.968887        26.3647 
 409   0.0000       0.974220        26.5099 
 410   0.0000       0.978656        26.6306 
 411   0.0000       0.984860        26.7994 
 412   0.0000       0.986238        26.8369 
 413   0.0000       0.989377        26.9223 
 414   0.0000       0.991552        26.9815 
 415   0.0000       0.994772        27.0691 
 416   0.0000       1.002538        27.2805 
 417   0.0000       1.005915        27.3723 
 418   0.0000       1.010376        27.4937 
 419   0.0000       1.017246        27.6807 
 420   0.0000       1.025860        27.9151 
 421   0.0000       1.028580        27.9891 
 422   0.0000       1.031329        28.0639 
 423   0.0000       1.040899        28.3243 
 424   0.0000       1.044895        28.4330 
 425   0.0000       1.047743        28.5105 
 426   0.0000       1.057521        28.7766 
 427   0.0000       1.063882        28.9497 
 428   0.0000       1.066034        29.0082 
 429   0.0000       1.075216        29.2581 
 430   0.0000       1.077824        29.3291 
 431   0.0000       1.082622        29.4597 
 432   0.0000       1.083669        29.4881 
 433   0.0000       1.091292        29.6956 
 434   0.0000       1.098810        29.9001 
 435   0.0000       1.102326        29.9958 
 436   0.0000       1.104749        30.0617 
 437   0.0000       1.112106        30.2619 
 438   0.0000       1.113141        30.2901 
 439   0.0000       1.117399        30.4060 
 440   0.0000       1.119709        30.4688 
 441   0.0000       1.123368        30.5684 
 442   0.0000       1.125648        30.6305 
 443   0.0000       1.129247        30.7284 
 444   0.0000       1.133368        30.8405 
 445   0.0000       1.135157        30.8892 
 446   0.0000       1.138754        30.9871 
 447   0.0000       1.141860        31.0716 
 448   0.0000       1.144018        31.1303 
 449   0.0000       1.147708        31.2307 
 450   0.0000       1.151070        31.3222 
 451   0.0000       1.152018        31.3480 
 452   0.0000       1.157341        31.4928 
 453   0.0000       1.159101        31.5407 
 454   0.0000       1.164522        31.6883 
 455   0.0000       1.169962        31.8363 
 456   0.0000       1.174086        31.9485 
 457   0.0000       1.175760        31.9940 
 458   0.0000       1.177150        32.0319 
 459   0.0000       1.186203        32.2782 
 460   0.0000       1.188090        32.3296 
 461   0.0000       1.195800        32.5394 
 462   0.0000       1.202856        32.7314 
 463   0.0000       1.204807        32.7845 
 464   0.0000       1.207831        32.8668 
 465   0.0000       1.210360        32.9356 
 466   0.0000       1.214074        33.0366 
 467   0.0000       1.218379        33.1538 
 468   0.0000       1.222630        33.2694 
 469   0.0000       1.225962        33.3601 
 470   0.0000       1.230195        33.4753 
 471   0.0000       1.232244        33.5311 
 472   0.0000       1.234814        33.6010 
 473   0.0000       1.236951        33.6591 
 474   0.0000       1.242773        33.8176 
 475   0.0000       1.246596        33.9216 
 476   0.0000       1.249301        33.9952 
 477   0.0000       1.250657        34.0321 
 478   0.0000       1.251240        34.0480 
 479   0.0000       1.254382        34.1335 
 480   0.0000       1.260417        34.2977 
 481   0.0000       1.264068        34.3970 
 482   0.0000       1.265939        34.4480 
 483   0.0000       1.269679        34.5497 
 484   0.0000       1.273072        34.6420 
 485   0.0000       1.277456        34.7613 
 486   0.0000       1.279345        34.8128 
 487   0.0000       1.281692        34.8766 
 488   0.0000       1.287329        35.0300 
 489   0.0000       1.290414        35.1139 
 490   0.0000       1.292401        35.1680 
 491   0.0000       1.297590        35.3092 
 492   0.0000       1.299461        35.3601 
 493   0.0000       1.308927        35.6177 
 494   0.0000       1.311092        35.6766 
 495   0.0000       1.313316        35.7372 
 496   0.0000       1.319815        35.9140 
 497   0.0000       1.323628        36.0177 
 498   0.0000       1.327004        36.1096 
 499   0.0000       1.329469        36.1767 
 500   0.0000       1.332160        36.2499 
 501   0.0000       1.337505        36.3954 
 502   0.0000       1.339089        36.4385 
 503   0.0000       1.342285        36.5254 
 504   0.0000       1.346651        36.6442 
 505   0.0000       1.351093        36.7651 
 506   0.0000       1.353056        36.8185 
 507   0.0000       1.358447        36.9652 
[...]
      pz      :     0.022053  p :     0.079685
      px      :     0.043473
      py      :     0.014159
 77 H s       :     0.886563  s :     0.886563
      pz      :     0.047821  p :     0.079111
      px      :     0.015018
      py      :     0.016272
 78 H s       :     0.886931  s :     0.886931
      pz      :     0.025802  p :     0.079066
      px      :     0.020500
      py      :     0.032763
 79 H s       :     0.909977  s :     0.909977
      pz      :     0.021947  p :     0.086494
      px      :     0.021707
      py      :     0.042839
 80 H s       :     0.867245  s :     0.867245
      pz      :     0.039159  p :     0.084503
      px      :     0.030117
      py      :     0.015227
 81 H s       :     0.887071  s :     0.887071
      pz      :     0.037785  p :     0.084023
      px      :     0.016172
      py      :     0.030066
 82 H s       :     0.915556  s :     0.915556
      pz      :     0.022010  p :     0.086784
      px      :     0.031528
      py      :     0.033246
 83 H s       :     0.873041  s :     0.873041
      pz      :     0.039274  p :     0.084047
      px      :     0.015265
      py      :     0.029509
 84 H s       :     0.886822  s :     0.886822
      pz      :     0.035784  p :     0.083564
      px      :     0.031710
      py      :     0.016070
 85 H s       :     0.893172  s :     0.893172
      pz      :     0.022495  p :     0.079770
      px      :     0.014077
      py      :     0.043198
 86 H s       :     0.890872  s :     0.890872
      pz      :     0.024729  p :     0.078844
      px      :     0.032987
      py      :     0.021128
 87 H s       :     0.890030  s :     0.890030
      pz      :     0.047989  p :     0.078723
      px      :     0.015597
      py      :     0.015137
 88 H s       :     0.911887  s :     0.911887
      pz      :     0.021782  p :     0.086980
      px      :     0.042774
      py      :     0.022424
 89 H s       :     0.871978  s :     0.871978
      pz      :     0.037913  p :     0.083837
      px      :     0.030469
      py      :     0.015454


                      *****************************
                      * MAYER POPULATION ANALYSIS *
                      *****************************

  NA   - Mulliken gross atomic population
  ZA   - Total nuclear charge
  QA   - Mulliken gross atomic charge
  VA   - Mayer's total valence
  BVA  - Mayer's bonded valence
  FA   - Mayer's free valence

  ATOM       NA         ZA         QA         VA         BVA        FA
  0 C      5.7936     6.0000     0.2064     3.8370     3.8370     0.0000
  1 N      7.4518     7.0000    -0.4518     3.3385     3.3385    -0.0000
  2 C      6.0626     6.0000    -0.0626     3.9203     3.9203    -0.0000
  3 N      7.3360     7.0000    -0.3360     3.4543     3.4543    -0.0000
  4 C      6.0508     6.0000    -0.0508     3.9955     3.9955     0.0000
  5 N      7.5628     7.0000    -0.5628     3.0913     3.0913     0.0000
  6 C      6.0973     6.0000    -0.0973     4.0049     4.0049     0.0000
  7 N      7.3393     7.0000    -0.3393     3.4371     3.4371     0.0000
  8 C      5.7951     6.0000     0.2049     3.8368     3.8368    -0.0000
  9 N      7.5626     7.0000    -0.5626     3.0798     3.0798     0.0000
 10 C      5.8824     6.0000     0.1176     3.9049     3.9049     0.0000
 11 N      7.4380     7.0000    -0.4380     3.3806     3.3806     0.0000
 12 C      6.0822     6.0000    -0.0822     3.9151     3.9151     0.0000
 13 N      7.4337     7.0000    -0.4337     3.4084     3.4084    -0.0000
 14 C      5.7577     6.0000     0.2423     3.7799     3.7799    -0.0000
 15 N      7.4410     7.0000    -0.4410     3.3717     3.3717    -0.0000
 16 C      5.7716     6.0000     0.2284     3.7843     3.7843    -0.0000
 17 C      6.1055     6.0000    -0.1055     4.0089     4.0089     0.0000
 18 C      6.2096     6.0000    -0.2096     3.7717     3.7717     0.0000
 19 C      5.7645     6.0000     0.2355     3.8588     3.8588    -0.0000
 20 C      5.7885     6.0000     0.2115     3.8278     3.8278     0.0000
 21 C      6.0955     6.0000    -0.0955     3.9024     3.9024    -0.0000
 22 C      6.0900     6.0000    -0.0900     3.9829     3.9829    -0.0000
 23 C      6.0429     6.0000    -0.0429     3.9919     3.9919    -0.0000
 24 C      5.8019     6.0000     0.1981     3.8221     3.8221     0.0000
 25 C      5.8857     6.0000     0.1143     3.8908     3.8908     0.0000
 26 C      6.0741     6.0000    -0.0741     3.9094     3.9094    -0.0000
 27 C      5.7851     6.0000     0.2149     3.8710     3.8710    -0.0000
 28 C      6.0583     6.0000    -0.0583     3.9883     3.9883    -0.0000
 29 C      6.1813     6.0000    -0.1813     3.7418     3.7418    -0.0000
 30 C      5.7580     6.0000     0.2420     3.7977     3.7977    -0.0000
 31 C      5.7774     6.0000     0.2226     3.8216     3.8216    -0.0000
 32 C      6.0632     6.0000    -0.0632     3.9211     3.9211     0.0000
 33 C      6.0689     6.0000    -0.0689     3.9779     3.9779    -0.0000
 34 C      6.0506     6.0000    -0.0506     3.9871     3.9871    -0.0000
 35 C      5.7815     6.0000     0.2185     3.8204     3.8204    -0.0000
 36 C      5.8894     6.0000     0.1106     3.8816     3.8816    -0.0000
 37 C      6.0654     6.0000    -0.0654     3.9175     3.9175    -0.0000
 38 C      5.7664     6.0000     0.2336     3.7997     3.7997    -0.0000
 39 C      6.0592     6.0000    -0.0592     3.9864     3.9864     0.0000
 40 C      6.1844     6.0000    -0.1844     3.7330     3.7330     0.0000
 41 C      5.7759     6.0000     0.2241     3.8844     3.8844    -0.0000
 42 C      5.8006     6.0000     0.1994     3.8265     3.8265    -0.0000
 43 C      6.0727     6.0000    -0.0727     3.9012     3.9012     0.0000
 44 C      6.0896     6.0000    -0.0896     3.9849     3.9849     0.0000
 45 C      6.0580     6.0000    -0.0580     3.9926     3.9926     0.0000
 46 C      5.7916     6.0000     0.2084     3.8275     3.8275    -0.0000
 47 C      5.8845     6.0000     0.1155     3.8933     3.8933     0.0000
 48 C      6.0698     6.0000    -0.0698     3.9076     3.9076     0.0000
 49 C      5.7660     6.0000     0.2340     3.8899     3.8899     0.0000
 50 C      6.0489     6.0000    -0.0489     3.9905     3.9905     0.0000
 51 C      6.1902     6.0000    -0.1902     3.7359     3.7359    -0.0000
 52 H      0.9557     1.0000     0.0443     0.9857     0.9857    -0.0000
 53 H      1.0155     1.0000    -0.0155     0.9983     0.9983    -0.0000
 54 H      0.9481     1.0000     0.0519     1.0113     1.0113     0.0000
 55 H      0.9565     1.0000     0.0435     0.9866     0.9866     0.0000
 56 H      0.9479     1.0000     0.0521     0.9701     0.9701     0.0000
 57 H      0.9492     1.0000     0.0508     0.9833     0.9833     0.0000
 58 H      0.9502     1.0000     0.0498     0.9849     0.9849     0.0000
 59 H      1.0019     1.0000    -0.0019     1.0023     1.0023     0.0000
 60 H      0.9528     1.0000     0.0472     1.0105     1.0105     0.0000
 61 H      0.8283     1.0000     0.1717     1.0421     1.0421     0.0000
 62 H      0.8256     1.0000     0.1744     1.0435     1.0435    -0.0000
 63 H      0.9442     1.0000     0.0558     0.9853     0.9853    -0.0000
 64 H      1.0097     1.0000    -0.0097     0.9984     0.9984    -0.0000
 65 H      0.9525     1.0000     0.0475     1.0092     1.0092     0.0000
 66 H      0.9434     1.0000     0.0566     0.9853     0.9853    -0.0000
 67 H      0.9375     1.0000     0.0625     0.9720     0.9720    -0.0000
 68 H      0.9423     1.0000     0.0577     0.9868     0.9868     0.0000
 69 H      0.9427     1.0000     0.0573     0.9829     0.9829     0.0000
 70 H      1.0274     1.0000    -0.0274     0.9936     0.9936     0.0000
 71 H      0.9541     1.0000     0.0459     1.0062     1.0062    -0.0000
 72 H      0.9346     1.0000     0.0654     0.9842     0.9842    -0.0000
 73 H      1.0103     1.0000    -0.0103     1.0000     1.0000     0.0000
 74 H      0.9451     1.0000     0.0549     1.0100     1.0100    -0.0000
 75 H      0.9353     1.0000     0.0647     0.9846     0.9846    -0.0000
 76 H      0.9303     1.0000     0.0697     0.9719     0.9719    -0.0000
 77 H      0.9360     1.0000     0.0640     0.9853     0.9853    -0.0000
 78 H      0.9367     1.0000     0.0633     0.9851     0.9851    -0.0000
 79 H      1.0154     1.0000    -0.0154     0.9983     0.9983    -0.0000
 80 H      0.9444     1.0000     0.0556     1.0072     1.0072     0.0000
 81 H      0.9462     1.0000     0.0538     0.9856     0.9856    -0.0000
 82 H      1.0242     1.0000    -0.0242     0.9938     0.9938     0.0000
 83 H      0.9576     1.0000     0.0424     1.0086     1.0086     0.0000
 84 H      0.9462     1.0000     0.0538     0.9853     0.9853     0.0000
 85 H      0.9398     1.0000     0.0602     0.9716     0.9716     0.0000
 86 H      0.9442     1.0000     0.0558     0.9840     0.9840     0.0000
 87 H      0.9431     1.0000     0.0569     0.9856     0.9856     0.0000
 88 H      1.0171     1.0000    -0.0171     0.9959     0.9959     0.0000
 89 H      0.9548     1.0000     0.0452     1.0073     1.0073     0.0000

  Mayer bond orders larger than 0.100000
B(  0-C ,  1-N ) :   1.0977 B(  0-C , 17-C ) :   1.6818 B(  0-C , 52-H ) :   0.9687 
B(  1-N ,  8-C ) :   1.0920 B(  1-N , 10-C ) :   0.9735 B(  2-C , 12-C ) :   1.5194 
B(  2-C , 16-C ) :   1.3447 B(  2-C , 53-H ) :   0.9765 B(  3-N , 14-C ) :   1.2145 
B(  3-N , 16-C ) :   1.1927 B(  3-N , 61-H ) :   0.8989 B(  4-C ,  6-C ) :   1.2244 
B(  4-C , 17-C ) :   1.2267 B(  4-C , 18-C ) :   1.3854 B(  5-N , 19-C ) :   1.4426 
B(  5-N , 27-C ) :   1.3869 B(  6-C ,  8-C ) :   1.6875 B(  6-C , 54-H ) :   0.9651 
B(  7-N , 30-C ) :   1.1953 B(  7-N , 38-C ) :   1.1947 B(  7-N , 62-H ) :   0.8974 
B(  8-C , 55-H ) :   0.9687 B(  9-N , 41-C ) :   1.3991 B(  9-N , 49-C ) :   1.4220 
B( 10-C , 56-H ) :   0.9767 B( 10-C , 57-H ) :   0.9820 B( 10-C , 58-H ) :   0.9841 
B( 11-N , 20-C ) :   1.1289 B( 11-N , 24-C ) :   1.1127 B( 11-N , 25-C ) :   0.9594 
B( 12-C , 14-C ) :   1.3461 B( 12-C , 59-H ) :   0.9745 B( 13-N , 31-C ) :   1.1461 
B( 13-N , 35-C ) :   1.1420 B( 13-N , 36-C ) :   0.9488 B( 14-C , 18-C ) :   1.1511 
B( 15-N , 42-C ) :   1.1104 B( 15-N , 46-C ) :   1.1201 B( 15-N , 47-C ) :   0.9618 
B( 16-C , 51-C ) :   1.1806 B( 17-C , 60-H ) :   0.9667 B( 18-C , 19-C ) :   1.1598 
B( 19-C , 21-C ) :   1.2323 B( 20-C , 28-C ) :   1.6264 B( 20-C , 63-H ) :   0.9703 
B( 21-C , 26-C ) :   1.6242 B( 21-C , 64-H ) :   0.9699 B( 22-C , 23-C ) :   1.2880 
B( 22-C , 28-C ) :   1.2680 B( 22-C , 29-C ) :   1.2239 B( 23-C , 24-C ) :   1.6189 
B( 23-C , 65-H ) :   0.9705 B( 24-C , 66-H ) :   0.9694 B( 25-C , 67-H ) :   0.9761 
B( 25-C , 68-H ) :   0.9828 B( 25-C , 69-H ) :   0.9822 B( 26-C , 27-C ) :   1.2289 
B( 26-C , 70-H ) :   0.9719 B( 27-C , 29-C ) :   1.2215 B( 28-C , 71-H ) :   0.9718 
B( 29-C , 30-C ) :   1.2294 B( 30-C , 32-C ) :   1.2941 B( 31-C , 39-C ) :   1.6053 
B( 31-C , 72-H ) :   0.9687 B( 32-C , 37-C ) :   1.5645 B( 32-C , 73-H ) :   0.9783 
B( 33-C , 34-C ) :   1.2945 B( 33-C , 39-C ) :   1.2892 B( 33-C , 40-C ) :   1.2050 
B( 34-C , 35-C ) :   1.6023 B( 34-C , 74-H ) :   0.9700 B( 35-C , 75-H ) :   0.9688 
B( 36-C , 76-H ) :   0.9766 B( 36-C , 77-H ) :   0.9818 B( 36-C , 78-H ) :   0.9826 
B( 37-C , 38-C ) :   1.2976 B( 37-C , 79-H ) :   0.9770 B( 38-C , 40-C ) :   1.2222 
B( 39-C , 80-H ) :   0.9709 B( 40-C , 41-C ) :   1.2388 B( 41-C , 43-C ) :   1.1956 
B( 42-C , 50-C ) :   1.6334 B( 42-C , 81-H ) :   0.9697 B( 43-C , 48-C ) :   1.6566 
B( 43-C , 82-H ) :   0.9728 B( 44-C , 45-C ) :   1.2661 B( 44-C , 50-C ) :   1.2702 
B( 44-C , 51-C ) :   1.2586 B( 45-C , 46-C ) :   1.6342 B( 45-C , 83-H ) :   0.9716 
B( 46-C , 84-H ) :   0.9701 B( 47-C , 85-H ) :   0.9761 B( 47-C , 86-H ) :   0.9829 
B( 47-C , 87-H ) :   0.9825 B( 48-C , 49-C ) :   1.1979 B( 48-C , 88-H ) :   0.9745 
B( 49-C , 51-C ) :   1.2338 B( 50-C , 89-H ) :   0.9711 

-------
TIMINGS
-------

Total SCF time: 0 days 0 hours 23 min 14 sec 

Total time                  ....    1394.451 sec
Sum of individual times     ....    1390.683 sec  ( 99.7%)

Fock matrix formation       ....    1369.604 sec  ( 98.2%)
Diagonalization             ....       6.722 sec  (  0.5%)
Density matrix formation    ....       0.401 sec  (  0.0%)
Population analysis         ....       0.427 sec  (  0.0%)
Initial guess               ....       1.919 sec  (  0.1%)
Orbital Transformation      ....       0.000 sec  (  0.0%)
Orbital Orthonormalization  ....       0.000 sec  (  0.0%)
DIIS solution               ....       2.891 sec  (  0.2%)
SOSCF solution              ....       7.716 sec  (  0.6%)

Maximum memory used throughout the entire SCF-calculation: 302.6 MB


           ************************************************************
           *        Program running with 16 parallel MPI-processes    *
           *              working on a common directory               *
           ************************************************************

------------------------------------------------------------------------------
                                ORCA  MP2 
------------------------------------------------------------------------------

Freezing NCore=104 chemical core electrons

----------
MP2 ENERGY (disk based algorithm)
----------

Dimension of the basis                    ...  918
Memory devoted to MP2                     ... 2000 MB   
Data format for buffers                   ... DOUBLE
Compression type for matrix containers    ... UNCOMPRESSED

-------------------------------
PARTIAL EXCHANGE TRANSFORMATION
-------------------------------

Transformation type                        ... one-operator
Generation of integrals (i,mue|j,nue)      ... ON
Generation of integrals (mue,kappa|nue,tau)... OFF
Generation of integrals (i,mue|a,nue)      ... OFF
Dimension of the basis                     ...  918
Number of internal MOs                     ...  127 (  52- 178)
Pair cutoff                                ... 2.500e-12 Eh
Number of AO pairs in the trafo            ... 421821
Total Number of distinct AO pairs          ... 421821
Memory devoted for trafo                   ... 2000.0 MB 
Max. Number of MO pairs treated together   ...  311      
Number Format for Storage                  ... Double (8 Byte)
Integral package used                      ... LIBINT

Starting integral evaluation:
    ... done with AO integral generation
Closing buffer AOK     (38.25 GB; CompressionRatio= 1.33)
Collecting buffer AOK 
Number of MO pairs included in the trafo   ... 8128
------------------------
SORTING OF (i,mue|j,nue)
------------------------

IBATCH = 1 of  2
IBATCH = 2 of  2
Closing buffer KAO     (51.03 GB; CompressionRatio= 1.00)
Collecting buffer KAO 
N(AO-Batches) Done                         ...  85771537 
N(AO-Batches) Skipped                      ...  82340007 
N(IJ)-pairs Skipped                        ...         0 
TOTAL TIME for half transformation         ...  2544.772 sec
AO-integral generation                     ...   177.208 sec
Half transformation                        ...   315.117 sec
K-integral sorting                         ...  1909.391 sec
Process 13:   Internal MO 156
Process 10:   Internal MO 132
Process  7:   Internal MO 108

Finished integral transformation - now doing MP2 part

OPERATOR COMBINATION   0   0: ij=( 52..178, 52..178)
Process  4:   Internal MO  84
Process  1:   Internal MO  60
Process  0:   Internal MO  54
Process  5:   Internal MO  93
Process  1:   Internal MO  63
Process  3:   Internal MO  78
Process  0:   Internal MO  57
Process  8:   Internal MO 117
Process  1:   Internal MO  66
Process  2:   Internal MO  69
Process 11:   Internal MO 141
Process 14:   Internal MO 165
Process  9:   Internal MO 126
Process  3:   Internal MO  81
Process  2:   Internal MO  72
Process  4:   Internal MO  87
Process  6:   Internal MO 102
Process  5:   Internal MO  96
Process  7:   Internal MO 111
Process  2:   Internal MO  75
Process  8:   Internal MO 120
Process 15:   Internal MO 174
Process 10:   Internal MO 135
Process  4:   Internal MO  90
Process 12:   Internal MO 150
Process  6:   Internal MO 105
Process  5:   Internal MO  99
Process  7:   Internal MO 114
Process  9:   Internal MO 129
Process 13:   Internal MO 159
Process 11:   Internal MO 144
Process  8:   Internal MO 123
Process 14:   Internal MO 168
Process 10:   Internal MO 138
Process 15:   Internal MO 177
Process 12:   Internal MO 153
Process 13:   Internal MO 162
Process 11:   Internal MO 147
Process 14:   Internal MO 171
-----------------------------------------------
 MP2 CORRELATION ENERGY   :     -7.285467358 Eh
-----------------------------------------------


-------
TIMINGS
-------
Total time                : 2836.811 sec
Integral trafo            : 2546.772 sec ( 89.8%)
K(i,j)                    :   13.787 sec (  0.5%)
T(i,j)                    :    0.400 sec (  0.0%)

---------------------------------------
MP2 TOTAL ENERGY:    -2130.907634178 Eh
---------------------------------------

Maximum memory used throughout the entire MP2-calculation: 2275.2 MB

-------------------------   --------------------
FINAL SINGLE POINT ENERGY     -2130.907634178494
-------------------------   --------------------


                            ***************************************
                            *     ORCA property calculations      *
                            ***************************************


  WARNING: The energy has been calculated at the MP2 level but the densities
           used in the property calculations are still SCF densities
           MP2 response densities have not been calculated 
           use %mp2 Density relaxed end
           or  %mp2 Density unrelaxed end

                                    ---------------------
                                    Active property flags
                                    ---------------------
   (+) Dipole Moment


------------------------------------------------------------------------------
                       ORCA ELECTRIC PROPERTIES CALCULATION
------------------------------------------------------------------------------

Dipole Moment Calculation                       ... on
Quadrupole Moment Calculation                   ... off
Polarizability Calculation                      ... off
GBWName                                         ... /scratch/allen/tmpyp4_amber_gaff2/conf1/conf1/Conf44.orca.gbw
Electron density                                ... /scratch/allen/tmpyp4_amber_gaff2/conf1/conf1/Conf44.orca.scfp
The origin for moment calculation is the CENTER OF MASS  = (-0.000155, -0.004286  0.003696)

-------------
DIPOLE MOMENT
-------------
                                X             Y             Z
Electronic contribution:      1.64825      -2.90423      -0.12499
Nuclear contribution   :     -0.05048       0.15301       0.15269
                        -----------------------------------------
Total Dipole Moment    :      1.59777      -2.75122       0.02770
                        -----------------------------------------
Magnitude (a.u.)       :      3.18164
Magnitude (Debye)      :      8.08709



--------------------
Rotational spectrum 
--------------------
 
Rotational constants in cm-1:     0.001501     0.001476     0.000761 
Rotational constants in MHz :    44.989246    44.237152    22.819589 

 Dipole components along the rotational axes: 
x,y,z [a.u.] :     2.274228     2.224822     0.029840 
x,y,z [Debye]:     5.780629     5.655049     0.075847 

 

Timings for individual modules:

Sum of individual times         ...     4253.868 sec (=  70.898 min)
GTO integral calculation        ...        2.663 sec (=   0.044 min)   0.1 %
SCF iterations                  ...     1395.375 sec (=  23.256 min)  32.8 %
MP2 module                      ...     2855.830 sec (=  47.597 min)  67.1 %
                             ****ORCA TERMINATED NORMALLY****
TOTAL RUN TIME: 0 days 1 hours 10 minutes 57 seconds 214 msec
# of primitive gaussian functions

