
                                 *****************
                                 * O   R   C   A *
                                 *****************

                                            #,                                       
                                            ###                                      
                                            ####                                     
                                            #####                                    
                                            ######                                   
                                           ########,                                 
                                     ,,################,,,,,                         
                               ,,#################################,,                 
                          ,,##########################################,,             
                       ,#########################################, ''#####,          
                    ,#############################################,,   '####,        
                  ,##################################################,,,,####,       
                ,###########''''           ''''###############################       
              ,#####''   ,,,,##########,,,,          '''####'''          '####       
            ,##' ,,,,###########################,,,                        '##       
           ' ,,###''''                  '''############,,,                           
         ,,##''                                '''############,,,,        ,,,,,,###''
      ,#''                                            '''#######################'''  
     '                                                          ''''####''''         
             ,#######,   #######,   ,#######,      ##                                
            ,#'     '#,  ##    ##  ,#'     '#,    #''#        ######   ,####,        
            ##       ##  ##   ,#'  ##            #'  '#       #        #'  '#        
            ##       ##  #######   ##           ,######,      #####,   #    #        
            '#,     ,#'  ##    ##  '#,     ,#' ,#      #,         ##   #,  ,#        
             '#######'   ##     ##  '#######'  #'      '#     #####' # '####'        



                  #######################################################
                  #                        -***-                        #
                  #          Department of theory and spectroscopy      #
                  #    Directorship and core code : Frank Neese         #
                  #        Max Planck Institute fuer Kohlenforschung    #
                  #                Kaiser Wilhelm Platz 1               #
                  #                 D-45470 Muelheim/Ruhr               #
                  #                      Germany                        #
                  #                                                     #
                  #                  All rights reserved                #
                  #                        -***-                        #
                  #######################################################


                         Program Version 5.0.4 -  RELEASE  -


 With contributions from (in alphabetic order):
   Daniel Aravena         : Magnetic Suceptibility
   Michael Atanasov       : Ab Initio Ligand Field Theory (pilot matlab implementation)
   Alexander A. Auer      : GIAO ZORA, VPT2 properties, NMR spectrum
   Ute Becker             : Parallelization
   Giovanni Bistoni       : ED, misc. LED, open-shell LED, HFLD
   Martin Brehm           : Molecular dynamics
   Dmytro Bykov           : SCF Hessian
   Vijay G. Chilkuri      : MRCI spin determinant printing, contributions to CSF-ICE
   Dipayan Datta          : RHF DLPNO-CCSD density
   Achintya Kumar Dutta   : EOM-CC, STEOM-CC
   Dmitry Ganyushin       : Spin-Orbit,Spin-Spin,Magnetic field MRCI
   Miquel Garcia          : C-PCM and meta-GGA Hessian, CC/C-PCM, Gaussian charge scheme
   Yang Guo               : DLPNO-NEVPT2, F12-NEVPT2, CIM, IAO-localization
   Andreas Hansen         : Spin unrestricted coupled pair/coupled cluster methods
   Benjamin Helmich-Paris : MC-RPA, TRAH-SCF, COSX integrals
   Lee Huntington         : MR-EOM, pCC
   Robert Izsak           : Overlap fitted RIJCOSX, COSX-SCS-MP3, EOM
   Marcus Kettner         : VPT2
   Christian Kollmar      : KDIIS, OOCD, Brueckner-CCSD(T), CCSD density, CASPT2, CASPT2-K
   Simone Kossmann        : Meta GGA functionals, TD-DFT gradient, OOMP2, MP2 Hessian
   Martin Krupicka        : Initial AUTO-CI
   Lucas Lang             : DCDCAS
   Marvin Lechner         : AUTO-CI (C++ implementation), FIC-MRCC
   Dagmar Lenk            : GEPOL surface, SMD
   Dimitrios Liakos       : Extrapolation schemes; Compound Job, initial MDCI parallelization
   Dimitrios Manganas     : Further ROCIS development; embedding schemes
   Dimitrios Pantazis     : SARC Basis sets
   Anastasios Papadopoulos: AUTO-CI, single reference methods and gradients
   Taras Petrenko         : DFT Hessian,TD-DFT gradient, ASA, ECA, R-Raman, ABS, FL, XAS/XES, NRVS
   Peter Pinski           : DLPNO-MP2, DLPNO-MP2 Gradient
   Christoph Reimann      : Effective Core Potentials
   Marius Retegan         : Local ZFS, SOC
   Christoph Riplinger    : Optimizer, TS searches, QM/MM, DLPNO-CCSD(T), (RO)-DLPNO pert. Triples
   Tobias Risthaus        : Range-separated hybrids, TD-DFT gradient, RPA, STAB
   Michael Roemelt        : Original ROCIS implementation
   Masaaki Saitow         : Open-shell DLPNO-CCSD energy and density
   Barbara Sandhoefer     : DKH picture change effects
   Avijit Sen             : IP-ROCIS
   Kantharuban Sivalingam : CASSCF convergence, NEVPT2, FIC-MRCI
   Bernardo de Souza      : ESD, SOC TD-DFT
   Georgi Stoychev        : AutoAux, RI-MP2 NMR, DLPNO-MP2 response
   Willem Van den Heuvel  : Paramagnetic NMR
   Boris Wezisla          : Elementary symmetry handling
   Frank Wennmohs         : Technical directorship


 We gratefully acknowledge several colleagues who have allowed us to
 interface, adapt or use parts of their codes:
   Stefan Grimme, W. Hujo, H. Kruse, P. Pracht,  : VdW corrections, initial TS optimization,
                  C. Bannwarth, S. Ehlert          DFT functionals, gCP, sTDA/sTD-DF
   Ed Valeev, F. Pavosevic, A. Kumar             : LibInt (2-el integral package), F12 methods
   Garnet Chan, S. Sharma, J. Yang, R. Olivares  : DMRG
   Ulf Ekstrom                                   : XCFun DFT Library
   Mihaly Kallay                                 : mrcc  (arbitrary order and MRCC methods)
   Jiri Pittner, Ondrej Demel                    : Mk-CCSD
   Frank Weinhold                                : gennbo (NPA and NBO analysis)
   Christopher J. Cramer and Donald G. Truhlar   : smd solvation model
   Lars Goerigk                                  : TD-DFT with DH, B97 family of functionals
   V. Asgeirsson, H. Jonsson                     : NEB implementation
   FAccTs GmbH                                   : IRC, NEB, NEB-TS, DLPNO-Multilevel, CI-OPT
                                                   MM, QMMM, 2- and 3-layer-ONIOM, Crystal-QMMM,
                                                   LR-CPCM, SF, NACMEs, symmetry and pop. for TD-DFT,
                                                   nearIR, NL-DFT gradient (VV10), updates on ESD,
                                                   ML-optimized integration grids
   S Lehtola, MJT Oliveira, MAL Marques          : LibXC Library
   Liviu Ungur et al                             : ANISO software


 Your calculation uses the libint2 library for the computation of 2-el integrals
 For citations please refer to: http://libint.valeyev.net

 Your ORCA version has been built with support for libXC version: 5.1.0
 For citations please refer to: https://tddft.org/programs/libxc/

 This ORCA versions uses:
   CBLAS   interface :  Fast vector & matrix operations
   LAPACKE interface :  Fast linear algebra routines
   SCALAPACK package :  Parallel linear algebra routines
   Shared memory     :  Shared parallel matrices
   BLAS/LAPACK       :  OpenBLAS 0.3.15  USE64BITINT DYNAMIC_ARCH NO_AFFINITY Sandybridge SINGLE_THREADED
        Core in use  :  Sandybridge
   Copyright (c) 2011-2014, The OpenBLAS Project


================================================================================

----- Orbital basis set information -----
Your calculation utilizes the basis: cc-pVDZ 
       H, B-Ne : Obtained from the ccRepo (grant-hill.group.shef.ac.uk/ccrepo) Feb. 2017
                 T. H. Dunning, Jr., J. Chem. Phys. 90, 1007 (1989)
            He : Obtained from the ccRepo (grant-hill.group.shef.ac.uk/ccrepo) Feb. 2017
                 D. E. Woon, T. H. Dunning, Jr., J. Chem. Phys. 100, 2975 (1994)
  Li-Be, Na-Mg : Obtained from the ccRepo (grant-hill.group.shef.ac.uk/ccrepo) Feb. 2017
                 B. P. Prascher, D. E. Woon, K. A. Peterson, T. H. Dunning, Jr., A. K. Wilson, Theor. Chem. Acc. 128, 69 (2011)
         Al-Ar : Obtained from the ccRepo (grant-hill.group.shef.ac.uk/ccrepo) Feb. 2017
                 D. E. Woon, T. H. Dunning, Jr., J. Chem. Phys. 98, 1358 (1993)
            Ca : Obtained from the Peterson Research Group Website (tyr0.chem.wsu.edu/~kipeters) Feb. 2017
                 J. Koput, K. A. Peterson, J. Phys. Chem. 106, 9595 (2002)
         Sc-Zn : Obtained from the ccRepo (grant-hill.group.shef.ac.uk/ccrepo) Feb. 2017
                 N. B. Balabanov, K. A. Peterson, J. Chem. Phys. 123, 064107 (2005)
                 N. B. Balabanov, K. A. Peterson, J. Chem. Phys. 125, 074110 (2006)
         Ga-Kr : Obtained from the ccRepo (grant-hill.group.shef.ac.uk/ccrepo) Feb. 2017
                 A. K. Wilson, D. E. Woon, K. A. Peterson, T. H. Dunning, Jr., J. Chem. Phys. 110, 7667 (1999)

================================================================================
                                        WARNINGS
                       Please study these warnings very carefully!
================================================================================


WARNING: No MP2 level density has been requested!
         To caclulate MP2 level properties use
         %mp2 Density relaxed end
         or
         %mp2 Density unrelaxed end

WARNING: Post HF methods need fully converged wavefunctions
  ===> : Setting SCFConvForced true
         You can overwrite this default with %scf ConvForced false 


INFO   : the flag for use of the SHARK integral package has been found!

================================================================================
                                       INPUT FILE
================================================================================
NAME = /scratch/allen/tmpyp4_amber_gaff2/2.Mdgx/conf11/conf11/Conf189.orca
|  1> ! PAL2
|  2> ! mp2 cc-pvdz TightSCF  NoKeepInts
|  3> 
|  4> %scf
|  5>   MaxCore 2000
|  6> end
|  7> %mp2
|  8>   MaxCore 2000
|  9> end
| 10> * xyz 0 1
| 11>    C       -4.95000         5.18300         0.20300
| 12>    C        1.47400         4.04100         0.05700
| 13>    C       -2.80200         4.09300         0.04900
| 14>    C       -2.22300         5.36500        -0.07900
| 15>    C       -3.01700         6.49400        -0.05900
| 16>    C       -5.18000         7.62400         0.13300
| 17>    C        0.13200         4.30700         0.06100
| 18>    C       -0.56900         3.05600         0.04700
| 19>    C        1.64900         2.61800         0.02300
| 20>    C       -4.19600         4.02500         0.19500
| 21>    N       -4.36000         6.39400         0.07700
| 22>    N        0.38800         2.06700         0.02500
| 23>    N       -2.01000         0.39500        -0.07500
| 24>    N       -0.38800        -2.07400        -0.02700
| 25>    N        2.01000        -0.40100         0.06500
| 26>    C       -1.96000         2.86100         0.02400
| 27>    C       -2.62300         1.61500        -0.01800
| 28>    C       -5.57300        -4.32900         1.06600
| 29>    C       -4.07300         1.47100         0.05600
| 30>    C       -4.10600        -2.75600        -0.02600
| 31>    C       -4.99500        -2.75700        -1.11100
| 32>    C       -6.13200        -3.54200        -1.07600
| 33>    C       -7.65100        -5.11300         0.04000
| 34>    C       -4.32400         0.14100         0.03700
| 35>    C       -3.02500        -0.52000        -0.04800
| 36>    C       -4.42200        -3.56600         1.07500
| 37>    N       -6.40700        -4.31300         0.00100
| 38>    C       -2.86700        -1.92200        -0.04000
| 39>    C       -1.65000        -2.62400        -0.02700
| 40>    C        3.56800        -6.14200        -1.04000
| 41>    C       -1.47600        -4.04900        -0.03400
| 42>    C        2.80300        -4.09900        -0.00800
| 43>    C        3.65700        -4.38400         1.06900
| 44>    C        4.42700        -5.53000         1.05900
| 45>    C        5.24500        -7.58800         0.01400
| 46>    C       -0.13400        -4.31500        -0.02200
| 47>    C        0.56800        -3.06400        -0.02700
| 48>    C        2.77500        -5.01200        -1.07400
| 49>    N        4.37600        -6.39100         0.01700
| 50>    C        1.95900        -2.86900        -0.00900
| 51>    C        2.62100        -1.62200         0.00900
| 52>    C        5.54300         4.33900        -1.13000
| 53>    C        4.07000        -1.47900        -0.09400
| 54>    C        4.10400         2.75100        -0.02100
| 55>    C        5.02700         2.72900         1.03600
| 56>    C        6.16600         3.50900         0.97800
| 57>    C        7.61900         5.15300        -0.11500
| 58>    C        4.32100        -0.14800        -0.09200
| 59>    C        3.02500         0.51400         0.01500
| 60>    C        4.38700         3.58200        -1.11500
| 61>    C        2.86600         1.91600         0.01300
| 62>    N        6.41300         4.29600        -0.09500
| 63>    H       -6.02800         5.17800         0.30100
| 64>    H        2.27400         4.76600         0.08100
| 65>    H       -1.15100         5.48300        -0.18500
| 66>    H       -2.61600         7.49500        -0.14500
| 67>    H       -5.20700         7.98700         1.16400
| 68>    H       -4.73000         8.37500        -0.51700
| 69>    H       -6.18800         7.39000        -0.20800
| 70>    H       -0.33200         5.28200         0.06900
| 71>    H       -4.70400         3.07200         0.28400
| 72>    H        0.18200         1.07200         0.00500
| 73>    H       -0.18300        -1.08000        -0.02100
| 74>    H       -5.86400        -4.96200         1.89500
| 75>    H       -4.79400         2.27200         0.13900
| 76>    H       -4.80000        -2.16000        -1.99400
| 77>    H       -6.84100        -3.58200        -1.89300
| 78>    H       -8.42800        -4.53600         0.54600
| 79>    H       -7.95600        -5.33700        -0.98100
| 80>    H       -7.45600        -6.03700         0.58400
| 81>    H       -5.28700        -0.34400         0.10000
| 82>    H       -3.78000        -3.60100         1.94700
| 83>    H        3.58700        -6.86800        -1.84300
| 84>    H       -2.27600        -4.77400        -0.05000
| 85>    H        3.71400        -3.72400         1.92600
| 86>    H        5.09200        -5.79500         1.87100
| 87>    H        6.20500        -7.32900        -0.43900
| 88>    H        5.39300        -7.91700         1.04200
| 89>    H        4.75900        -8.37300        -0.56400
| 90>    H        0.32900        -5.29000        -0.00800
| 91>    H        2.14600        -4.84200        -1.94000
| 92>    H        5.80800         4.98600        -1.95600
| 93>    H        4.78800        -2.28100        -0.18500
| 94>    H        4.86000         2.11400         1.91200
| 95>    H        6.90100         3.53100         1.77200
| 96>    H        7.38300         6.10900         0.35600
| 97>    H        8.41400         4.65200         0.43500
| 98>    H        7.92100         5.31000        -1.15000
| 99>    H        5.28300         0.33600        -0.17900
|100>    H        3.72000         3.63200        -1.96700
|101> *
|102> 
|103>                          ****END OF INPUT****
================================================================================

                       ****************************
                       * Single Point Calculation *
                       ****************************

---------------------------------
CARTESIAN COORDINATES (ANGSTROEM)
---------------------------------
  C     -4.950000    5.183000    0.203000
  C      1.474000    4.041000    0.057000
  C     -2.802000    4.093000    0.049000
  C     -2.223000    5.365000   -0.079000
  C     -3.017000    6.494000   -0.059000
  C     -5.180000    7.624000    0.133000
  C      0.132000    4.307000    0.061000
  C     -0.569000    3.056000    0.047000
  C      1.649000    2.618000    0.023000
  C     -4.196000    4.025000    0.195000
  N     -4.360000    6.394000    0.077000
  N      0.388000    2.067000    0.025000
  N     -2.010000    0.395000   -0.075000
  N     -0.388000   -2.074000   -0.027000
  N      2.010000   -0.401000    0.065000
  C     -1.960000    2.861000    0.024000
  C     -2.623000    1.615000   -0.018000
  C     -5.573000   -4.329000    1.066000
  C     -4.073000    1.471000    0.056000
  C     -4.106000   -2.756000   -0.026000
  C     -4.995000   -2.757000   -1.111000
  C     -6.132000   -3.542000   -1.076000
  C     -7.651000   -5.113000    0.040000
  C     -4.324000    0.141000    0.037000
  C     -3.025000   -0.520000   -0.048000
  C     -4.422000   -3.566000    1.075000
  N     -6.407000   -4.313000    0.001000
  C     -2.867000   -1.922000   -0.040000
  C     -1.650000   -2.624000   -0.027000
  C      3.568000   -6.142000   -1.040000
  C     -1.476000   -4.049000   -0.034000
  C      2.803000   -4.099000   -0.008000
  C      3.657000   -4.384000    1.069000
  C      4.427000   -5.530000    1.059000
  C      5.245000   -7.588000    0.014000
  C     -0.134000   -4.315000   -0.022000
  C      0.568000   -3.064000   -0.027000
  C      2.775000   -5.012000   -1.074000
  N      4.376000   -6.391000    0.017000
  C      1.959000   -2.869000   -0.009000
  C      2.621000   -1.622000    0.009000
  C      5.543000    4.339000   -1.130000
  C      4.070000   -1.479000   -0.094000
  C      4.104000    2.751000   -0.021000
  C      5.027000    2.729000    1.036000
  C      6.166000    3.509000    0.978000
  C      7.619000    5.153000   -0.115000
  C      4.321000   -0.148000   -0.092000
  C      3.025000    0.514000    0.015000
  C      4.387000    3.582000   -1.115000
  C      2.866000    1.916000    0.013000
  N      6.413000    4.296000   -0.095000
  H     -6.028000    5.178000    0.301000
  H      2.274000    4.766000    0.081000
  H     -1.151000    5.483000   -0.185000
  H     -2.616000    7.495000   -0.145000
  H     -5.207000    7.987000    1.164000
  H     -4.730000    8.375000   -0.517000
  H     -6.188000    7.390000   -0.208000
  H     -0.332000    5.282000    0.069000
  H     -4.704000    3.072000    0.284000
  H      0.182000    1.072000    0.005000
  H     -0.183000   -1.080000   -0.021000
  H     -5.864000   -4.962000    1.895000
  H     -4.794000    2.272000    0.139000
  H     -4.800000   -2.160000   -1.994000
  H     -6.841000   -3.582000   -1.893000
  H     -8.428000   -4.536000    0.546000
  H     -7.956000   -5.337000   -0.981000
  H     -7.456000   -6.037000    0.584000
  H     -5.287000   -0.344000    0.100000
  H     -3.780000   -3.601000    1.947000
  H      3.587000   -6.868000   -1.843000
  H     -2.276000   -4.774000   -0.050000
  H      3.714000   -3.724000    1.926000
  H      5.092000   -5.795000    1.871000
  H      6.205000   -7.329000   -0.439000
  H      5.393000   -7.917000    1.042000
  H      4.759000   -8.373000   -0.564000
  H      0.329000   -5.290000   -0.008000
  H      2.146000   -4.842000   -1.940000
  H      5.808000    4.986000   -1.956000
  H      4.788000   -2.281000   -0.185000
  H      4.860000    2.114000    1.912000
  H      6.901000    3.531000    1.772000
  H      7.383000    6.109000    0.356000
  H      8.414000    4.652000    0.435000
  H      7.921000    5.310000   -1.150000
  H      5.283000    0.336000   -0.179000
  H      3.720000    3.632000   -1.967000

----------------------------
CARTESIAN COORDINATES (A.U.)
----------------------------
  NO LB      ZA    FRAG     MASS         X           Y           Z
   0 C     6.0000    0    12.011   -9.354144    9.794451    0.383614
   1 C     6.0000    0    12.011    2.785456    7.636383    0.107714
   2 C     6.0000    0    12.011   -5.295013    7.734649    0.092597
   3 C     6.0000    0    12.011   -4.200861   10.138381   -0.149288
   4 C     6.0000    0    12.011   -5.701304   12.271882   -0.111494
   5 C     6.0000    0    12.011   -9.788781   14.407272    0.251334
   6 C     6.0000    0    12.011    0.249444    8.139050    0.115273
   7 C     6.0000    0    12.011   -1.075254    5.775003    0.088817
   8 C     6.0000    0    12.011    3.116158    4.947303    0.043464
   9 C     6.0000    0    12.011   -7.929291    7.606148    0.368497
  10 N     7.0000    0    14.007   -8.239206   12.082909    0.145509
  11 N     7.0000    0    14.007    0.733214    3.906064    0.047243
  12 N     7.0000    0    14.007   -3.798350    0.746442   -0.141729
  13 N     7.0000    0    14.007   -0.733214   -3.919292   -0.051023
  14 N     7.0000    0    14.007    3.798350   -0.757780    0.122832
  15 C     6.0000    0    12.011   -3.703863    5.406506    0.045353
  16 C     6.0000    0    12.011   -4.956752    3.051908   -0.034015
  17 C     6.0000    0    12.011  -10.531444   -8.180624    2.014448
  18 C     6.0000    0    12.011   -7.696855    2.779787    0.105825
  19 C     6.0000    0    12.011   -7.759216   -5.208085   -0.049133
  20 C     6.0000    0    12.011   -9.439182   -5.209975   -2.099486
  21 C     6.0000    0    12.011  -11.587801   -6.693410   -2.033345
  22 C     6.0000    0    12.011  -14.458295   -9.662170    0.075589
  23 C     6.0000    0    12.011   -8.171176    0.266451    0.069920
  24 C     6.0000    0    12.011   -5.716422   -0.982658   -0.090707
  25 C     6.0000    0    12.011   -8.356369   -6.738763    2.031456
  26 N     7.0000    0    14.007  -12.107475   -8.150389    0.001890
  27 C     6.0000    0    12.011   -5.417845   -3.632054   -0.075589
  28 C     6.0000    0    12.011   -3.118048   -4.958641   -0.051023
  29 C     6.0000    0    12.011    6.742543  -11.606698   -1.965315
  30 C     6.0000    0    12.011   -2.789236   -7.651501   -0.064251
  31 C     6.0000    0    12.011    5.296902   -7.745987   -0.015118
  32 C     6.0000    0    12.011    6.910728   -8.284559    2.020117
  33 C     6.0000    0    12.011    8.365818  -10.450186    2.001220
  34 C     6.0000    0    12.011    9.911614  -14.339242    0.026456
  35 C     6.0000    0    12.011   -0.253223   -8.154168   -0.041574
  36 C     6.0000    0    12.011    1.073364   -5.790121   -0.051023
  37 C     6.0000    0    12.011    5.243990   -9.471307   -2.029566
  38 N     7.0000    0    14.007    8.269442  -12.077240    0.032125
  39 C     6.0000    0    12.011    3.701973   -5.421624   -0.017008
  40 C     6.0000    0    12.011    4.952972   -3.065136    0.017008
  41 C     6.0000    0    12.011   10.474752    8.199522   -2.135391
  42 C     6.0000    0    12.011    7.691185   -2.794905   -0.177634
  43 C     6.0000    0    12.011    7.755436    5.198637   -0.039684
  44 C     6.0000    0    12.011    9.499653    5.157063    1.957756
  45 C     6.0000    0    12.011   11.652051    6.631049    1.848152
  46 C     6.0000    0    12.011   14.397823    9.737759   -0.217319
  47 C     6.0000    0    12.011    8.165507   -0.279679   -0.173855
  48 C     6.0000    0    12.011    5.716422    0.971319    0.028346
  49 C     6.0000    0    12.011    8.290229    6.768999   -2.107045
  50 C     6.0000    0    12.011    5.415955    3.620715    0.024566
  51 N     7.0000    0    14.007   12.118814    8.118263   -0.179524
  52 H     1.0000    0     1.008  -11.391269    9.785002    0.568808
  53 H     1.0000    0     1.008    4.297237    9.006435    0.153068
  54 H     1.0000    0     1.008   -2.175075   10.361368   -0.349599
  55 H     1.0000    0     1.008   -4.943524   14.163497   -0.274010
  56 H     1.0000    0     1.008   -9.839804   15.093243    2.199641
  57 H     1.0000    0     1.008   -8.938405   15.826456   -0.976988
  58 H     1.0000    0     1.008  -11.693625   13.965076   -0.393063
  59 H     1.0000    0     1.008   -0.627389    9.981533    0.130391
  60 H     1.0000    0     1.008   -8.889272    5.805239    0.536682
  61 H     1.0000    0     1.008    0.343930    2.025786    0.009449
  62 H     1.0000    0     1.008   -0.345820   -2.040904   -0.039684
  63 H     1.0000    0     1.008  -11.081354   -9.376821    3.581031
  64 H     1.0000    0     1.008   -9.059347    4.293458    0.262672
  65 H     1.0000    0     1.008   -9.070685   -4.081808   -3.768114
  66 H     1.0000    0     1.008  -12.927616   -6.768999   -3.577252
  67 H     1.0000    0     1.008  -15.926612   -8.571798    1.031790
  68 H     1.0000    0     1.008  -15.034661  -10.085468   -1.853821
  69 H     1.0000    0     1.008  -14.089798  -11.408277    1.103600
  70 H     1.0000    0     1.008   -9.990982   -0.650066    0.188973
  71 H     1.0000    0     1.008   -7.143165   -6.804904    3.679297
  72 H     1.0000    0     1.008    6.778448  -12.978639   -3.482765
  73 H     1.0000    0     1.008   -4.301017   -9.021553   -0.094486
  74 H     1.0000    0     1.008    7.018443   -7.037340    3.639613
  75 H     1.0000    0     1.008    9.622485  -10.950963    3.535678
  76 H     1.0000    0     1.008   11.725751  -13.849803   -0.829590
  77 H     1.0000    0     1.008   10.191293  -14.960962    1.969095
  78 H     1.0000    0     1.008    8.993207  -15.822677   -1.065806
  79 H     1.0000    0     1.008    0.621720   -9.996651   -0.015118
  80 H     1.0000    0     1.008    4.055352   -9.150054   -3.666069
  81 H     1.0000    0     1.008   10.975529    9.422175   -3.696304
  82 H     1.0000    0     1.008    9.048009   -4.310465   -0.349599
  83 H     1.0000    0     1.008    9.184069    3.994881    3.613156
  84 H     1.0000    0     1.008   13.041000    6.672623    3.348595
  85 H     1.0000    0     1.008   13.951848   11.544337    0.672743
  86 H     1.0000    0     1.008   15.900156    8.791006    0.822031
  87 H     1.0000    0     1.008   14.968521   10.034446   -2.173185
  88 H     1.0000    0     1.008    9.983423    0.634948   -0.338261
  89 H     1.0000    0     1.008    7.029781    6.863485   -3.717091

--------------------------------
INTERNAL COORDINATES (ANGSTROEM)
--------------------------------
 C      0   0   0     0.000000000000     0.00000000     0.00000000
 C      1   0   0     6.526350894642     0.00000000     0.00000000
 C      1   2   0     2.413652833363    16.97543438     0.00000000
 C      3   1   2     1.403427589867    87.91777914   346.99573021
 C      4   3   1     1.380390162237   120.17648366     0.15171859
 C      5   4   3     2.447924222683   152.49053136     1.62126816
 C      2   1   3     1.368114030335     1.58777837   127.08140511
 C      7   2   4     1.434084376876   108.05010202   165.10045922
 C      2   1   3     1.434123425651   107.11365745   352.67306218
 C      1   2   7     1.381862511251    46.85489444   136.18221947
 N      1   2   7     1.352958609862    74.05569274   320.62690362
 N      9   2   1     1.376127174356   106.58526707     0.43160093
 N     12   9   2     2.925062050624   168.53581413   171.12065651
 N     13  12   9     2.954513327098    91.55032014    11.12112580
 N     14  13  12     2.925371258490    88.43092389   359.84326247
 C      8   7   2     1.404790019896   127.24786865   181.11170171
 C     13  12   9     1.366535034311    81.72106996   188.00453233
 C     14  13  12     5.758810554272    80.56209567   166.76250791
 C     17  13  12     1.459010623676   111.08861209   183.82872609
 C     18  14  13     2.412235892279    27.27532823    36.33507194
 C     20  18  14     1.402692767501    87.95206320   148.94598259
 C     21  20  18     1.382106725257   120.14573887   359.70382047
 C     18  14  13     2.446510985056   144.15733107    82.80075377
 C     19  17  13     1.353610726908   106.29293361   359.75308708
 C     13  12   9     1.366813447402   172.21332906    33.46711076
 C     18  14  13     1.380960173213    15.08449437   309.23336894
 N     22  21  20     1.352773077792   120.73759875     0.27865223
 C     25  13  17     1.410897586645   125.60330303   182.37774668
 C     14  13  12     1.376642291955    80.24689249   177.85461986
 C     14  13  12     5.764089607215   164.51507311   312.20821879
 C     29  14  13     1.435600919476   106.58649366   178.76395472
 C     30  14  13     2.413316804732    27.10625047    82.12560436
 C     32  30  14     1.403734305344    87.90059683   149.76154742
 C     33  32  30     1.380694028378   120.14881443   359.74174632
 C     34  33  32     2.448777858443   152.49203239     2.45173620
 C     31  29  14     1.368160809262   108.16950133     0.70383075
 C     14  13  12     1.376239804685   169.26375223   353.09862627
 C     30  14  13     1.380907310430    14.68948582   353.70041132
 N     34  33  32     1.352658863128   120.85575621     0.19603406
 C     37  14  29     1.404717053360   126.01551127   180.90772073
 C     15  14  13     1.366491126938    81.61824056   183.09049352
 C      2   1   3     4.249062720177   159.48527499   124.12412615
 C     41  15  14     1.459677704153   111.05201287   175.08990246
 C     42   2   1     2.412953791518    41.78584867   202.19406653
 C     44  42   2     1.403446472082    87.95153797   233.97558675
 C     45  44  42     1.381696421071   120.11137308     0.19721020
 C     42   2   1     2.450019795838   135.97209175   112.50891563
 C     43  41  15     1.354461516618   106.26758155     0.30894352
 C     15  14  13     1.367461151185   171.87382904   332.35056460
 C     42   2   1     1.381886391857    32.59078432   251.04934572
 C      9   2   1     1.404988612053   126.98745415   181.43593846
 N     42   2   1     1.352765315936   113.57249190   140.24550483
 H      1   2   7     1.082456927550   168.95634381   156.41848100
 H      2   1   3     1.079907866440   127.67730125   174.24634616
 H      4   3   1     1.083671536952   121.04633607   179.54492470
 H      5   4   3     1.081756904300   122.85073196   179.42708525
 H      6   5   4     1.093370477011   104.42049964   100.10998458
 H      6   5   4     1.090413224425    84.63618910   209.51406972
 H      6   5   4     1.089541646749   133.93069556   322.35221937
 H     55   4   3     0.880725837023   150.09332333   313.96759677
 H     10   1   2     1.083602325579   118.73265303   175.88868229
 H     12   9   2     1.016297692608   125.29023241   180.00180175
 H     14  13  12     1.014936943854    44.97226959   359.42596618
 H     18  14  13     1.082871645210   128.03556573   234.20482432
 H     61  10   1     0.818000611247   153.78485359   148.21866607
 H     21  20  18     1.083569563987   121.05669627   180.67006309
 H     22  21  20     1.082483256222   122.73097286   180.59748951
 H     23  18  14     1.092105306278   103.92715769   234.93429879
 H     23  18  14     1.088871893291   134.19244188    12.25587044
 H     23  18  14     1.089833473518    84.85857450   125.45241208
 H     24  19  17     1.080075460327   127.28078426   178.44613241
 H     26  18  14     1.083408048706   118.76995697   244.94906660
 H     30  14  13     1.082703098730   127.99711412   279.66882698
 H     31  29  14     1.079759695488   125.22293469   180.92530585
 H     33  32  30     1.083188810873   121.01964473   180.74284758
 H     34  33  32     1.082494341787   122.70821597   180.59516895
 H     35  34  33     1.092652735319   105.73575241    97.19771933
 H     35  34  33     1.089462711615    84.05943581   206.43036958
 H     35  34  33     1.089268102902   133.08365142   318.50306270
 H     36  31  29     1.079439669458   126.61599965   178.98859863
 H     38  30  73     1.083742127999   118.77264435   359.90091293
 H     42   2   1     1.082178358682   119.31790784   356.87703528
 H     43  41  15     1.080281907652   126.36969097   182.06329380
 H     45  44  42     1.083277434455   121.10105945   179.58025624
 H     46  45  44     1.082194529648   122.72144639   179.46906377
 H     47  42   2     1.091546151109   106.65128841   315.16475048
 H     47  42   2     1.088818625851   132.46019523    94.52397119
 H     47  42   2     1.089531091801    83.63838232   206.04504406
 H     48  43  41     1.080402239909   127.23657387   181.62955349
 H     50  42   2     1.083186502870   118.77001737    94.71359229

---------------------------
INTERNAL COORDINATES (A.U.)
---------------------------
 C      0   0   0     0.000000000000     0.00000000     0.00000000
 C      1   0   0    12.333015844746     0.00000000     0.00000000
 C      1   2   0     4.561142837419    16.97543438     0.00000000
 C      3   1   2     2.652093793638    87.91777914   346.99573021
 C      4   3   1     2.608559364587   120.17648366     0.15171859
 C      5   4   3     4.625906377464   152.49053136     1.62126816
 C      2   1   3     2.585360837309     1.58777837   127.08140511
 C      7   2   4     2.710026725231   108.05010202   165.10045922
 C      2   1   3     2.710100516721   107.11365745   352.67306218
 C      1   2   7     2.611341700996    46.85489444   136.18221947
 N      1   2   7     2.556721243170    74.05569274   320.62690362
 N      9   2   1     2.600503484979   106.58526707     0.43160093
 N     12   9   2     5.527566200405   168.53581413   171.12065651
 N     13  12   9     5.583221047236    91.55032014    11.12112580
 N     14  13  12     5.528150518591    88.43092389   359.84326247
 C      8   7   2     2.654668413270   127.24786865   181.11170171
 C     13  12   9     2.582376967257    81.72106996   188.00453233
 C     14  13  12    10.882574804710    80.56209567   166.76250791
 C     17  13  12     2.757130505230   111.08861209   183.82872609
 C     18  14  13     4.558465206823    27.27532823    36.33507194
 C     20  18  14     2.650705180609    87.95206320   148.94598259
 C     21  20  18     2.611803198586   120.14573887   359.70382047
 C     18  14  13     4.623235745386   144.15733107    82.80075377
 C     19  17  13     2.557953565794   106.29293361   359.75308708
 C     13  12   9     2.582903091751   172.21332906    33.46711076
 C     18  14  13     2.609636529225    15.08449437   309.23336894
 N     22  21  20     2.556370638369   120.73759875     0.27865223
 C     25  13  17     2.666210041769   125.60330303   182.37774668
 C     14  13  12     2.601476916169    80.24689249   177.85461986
 C     14  13  12    10.892550769017   164.51507311   312.20821879
 C     29  14  13     2.712892575415   106.58649366   178.76395472
 C     30  14  13     4.560507835333    27.10625047    82.12560436
 C     32  30  14     2.652673401891    87.90059683   149.76154742
 C     33  32  30     2.609133588376   120.14881443   359.74174632
 C     34  33  32     4.627519515267   152.49203239     2.45173620
 C     31  29  14     2.585449236669   108.16950133     0.70383075
 C     14  13  12     2.600716325456   169.26375223   353.09862627
 C     30  14  13     2.609536633043    14.68948582   353.70041132
 N     34  33  32     2.556154803934   120.85575621     0.19603406
 C     37  14  29     2.654530526499   126.01551127   180.90772073
 C     15  14  13     2.582293994346    81.61824056   183.09049352
 C      2   1   3     8.029564866989   159.48527499   124.12412615
 C     41  15  14     2.758391104639   111.05201287   175.08990246
 C     42   2   1     4.559821839776    41.78584867   202.19406653
 C     44  42   2     2.652129475853    87.95153797   233.97558675
 C     45  44  42     2.611027836043   120.11137308     0.19721020
 C     42   2   1     4.629866436820   135.97209175   112.50891563
 C     43  41  15     2.559561325344   106.26758155     0.30894352
 C     15  14  13     2.584127074516   171.87382904   332.35056460
 C     42   2   1     2.611386828803    32.59078432   251.04934572
 C      9   2   1     2.655043698059   126.98745415   181.43593846
 N     42   2   1     2.556355970587   113.57249190   140.24550483
 H      1   2   7     2.045547144834   168.95634381   156.41848100
 H      2   1   3     2.040730117440   127.67730125   174.24634616
 H      4   3   1     2.047842423965   121.04633607   179.54492470
 H      5   4   3     2.044224292605   122.85073196   179.42708525
 H      6   5   4     2.066170764466   104.42049964   100.10998458
 H      6   5   4     2.060582366968    84.63618910   209.51406972
 H      6   5   4     2.058935323857   133.93069556   322.35221937
 H     55   4   3     1.664330631042   150.09332333   313.96759677
 H     10   1   2     2.047711633424   118.73265303   175.88868229
 H     12   9   2     1.920524309565   125.29023241   180.00180175
 H     14  13  12     1.917952867083    44.97226959   359.42596618
 H     18  14  13     2.046330847636   128.03556573   234.20482432
 H     61  10   1     1.545797132636   153.78485359   148.21866607
 H     21  20  18     2.047649722989   121.05669627   180.67006309
 H     22  21  20     2.045596898814   122.73097286   180.59748951
 H     23  18  14     2.063779938267   103.92715769   234.93429879
 H     23  18  14     2.057669673245   134.19244188    12.25587044
 H     23  18  14     2.059486796529    84.85857450   125.45241208
 H     24  19  17     2.041046823986   127.28078426   178.44613241
 H     26  18  14     2.047344503340   118.76995697   244.94906660
 H     30  14  13     2.046012340948   127.99711412   279.66882698
 H     31  29  14     2.040450114918   125.22293469   180.92530585
 H     33  32  30     2.046930203877   121.01964473   180.74284758
 H     34  33  32     2.045617847496   122.70821597   180.59516895
 H     35  34  33     2.064814429233   105.73575241    97.19771933
 H     35  34  33     2.058786158072    84.05943581   206.43036958
 H     35  34  33     2.058418400901   133.08365142   318.50306270
 H     36  31  29     2.039845353366   126.61599965   178.98859863
 H     38  30  73     2.047975821711   118.77264435   359.90091293
 H     42   2   1     2.045020725966   119.31790784   356.87703528
 H     43  41  15     2.041436952892   126.36969097   182.06329380
 H     45  44  42     2.047097678177   121.10105945   179.58025624
 H     46  45  44     2.045051284662   122.72144639   179.46906377
 H     47  42   2     2.062723288131   106.65128841   315.16475048
 H     47  42   2     2.057569012371   132.46019523    94.52397119
 H     47  42   2     2.058915377895    83.63838232   206.04504406
 H     48  43  41     2.041664347903   127.23657387   181.62955349
 H     50  42   2     2.046925842384   118.77001737    94.71359229

---------------------
BASIS SET INFORMATION
---------------------
There are 3 groups of distinct atoms

 Group   1 Type C   : 17s4p1d contracted to 3s2p1d pattern {881/31/1}
 Group   2 Type N   : 17s4p1d contracted to 3s2p1d pattern {881/31/1}
 Group   3 Type H   : 4s1p contracted to 2s1p pattern {31/1}

Atom   0C    basis set group =>   1
Atom   1N    basis set group =>   2
Atom   2C    basis set group =>   1
Atom   3N    basis set group =>   2
Atom   4C    basis set group =>   1
Atom   5N    basis set group =>   2
Atom   6C    basis set group =>   1
Atom   7N    basis set group =>   2
Atom   8C    basis set group =>   1
Atom   9N    basis set group =>   2
Atom  10C    basis set group =>   1
Atom  11N    basis set group =>   2
Atom  12C    basis set group =>   1
Atom  13N    basis set group =>   2
Atom  14C    basis set group =>   1
Atom  15N    basis set group =>   2
Atom  16C    basis set group =>   1
Atom  17C    basis set group =>   1
Atom  18C    basis set group =>   1
Atom  19C    basis set group =>   1
Atom  20C    basis set group =>   1
Atom  21C    basis set group =>   1
Atom  22C    basis set group =>   1
Atom  23C    basis set group =>   1
Atom  24C    basis set group =>   1
Atom  25C    basis set group =>   1
Atom  26C    basis set group =>   1
Atom  27C    basis set group =>   1
Atom  28C    basis set group =>   1
Atom  29C    basis set group =>   1
Atom  30C    basis set group =>   1
Atom  31C    basis set group =>   1
Atom  32C    basis set group =>   1
Atom  33C    basis set group =>   1
Atom  34C    basis set group =>   1
Atom  35C    basis set group =>   1
Atom  36C    basis set group =>   1
Atom  37C    basis set group =>   1
Atom  38C    basis set group =>   1
Atom  39C    basis set group =>   1
Atom  40C    basis set group =>   1
Atom  41C    basis set group =>   1
Atom  42C    basis set group =>   1
Atom  43C    basis set group =>   1
Atom  44C    basis set group =>   1
Atom  45C    basis set group =>   1
Atom  46C    basis set group =>   1
Atom  47C    basis set group =>   1
Atom  48C    basis set group =>   1
Atom  49C    basis set group =>   1
Atom  50C    basis set group =>   1
Atom  51C    basis set group =>   1
Atom  52H    basis set group =>   3
Atom  53H    basis set group =>   3
Atom  54H    basis set group =>   3
Atom  55H    basis set group =>   3
Atom  56H    basis set group =>   3
Atom  57H    basis set group =>   3
Atom  58H    basis set group =>   3
Atom  59H    basis set group =>   3
Atom  60H    basis set group =>   3
Atom  61H    basis set group =>   3
Atom  62H    basis set group =>   3
Atom  63H    basis set group =>   3
Atom  64H    basis set group =>   3
Atom  65H    basis set group =>   3
Atom  66H    basis set group =>   3
Atom  67H    basis set group =>   3
Atom  68H    basis set group =>   3
Atom  69H    basis set group =>   3
Atom  70H    basis set group =>   3
Atom  71H    basis set group =>   3
Atom  72H    basis set group =>   3
Atom  73H    basis set group =>   3
Atom  74H    basis set group =>   3
Atom  75H    basis set group =>   3
Atom  76H    basis set group =>   3
Atom  77H    basis set group =>   3
Atom  78H    basis set group =>   3
Atom  79H    basis set group =>   3
Atom  80H    basis set group =>   3
Atom  81H    basis set group =>   3
Atom  82H    basis set group =>   3
Atom  83H    basis set group =>   3
Atom  84H    basis set group =>   3
Atom  85H    basis set group =>   3
Atom  86H    basis set group =>   3
Atom  87H    basis set group =>   3
Atom  88H    basis set group =>   3
Atom  89H    basis set group =>   3


           ************************************************************
           *        Program running with 16 parallel MPI-processes    *
           *              working on a common directory               *
           ************************************************************
------------------------------------------------------------------------------
                           ORCA GTO INTEGRAL CALCULATION
------------------------------------------------------------------------------
------------------------------------------------------------------------------
                   ___                                                        
                  /   \      - P O W E R E D   B Y -                         
                 /     \                                                     
                 |  |  |   _    _      __       _____    __    __             
                 |  |  |  | |  | |    /  \     |  _  \  |  |  /  |          
                  \  \/   | |  | |   /    \    | | | |  |  | /  /          
                 / \  \   | |__| |  /  /\  \   | |_| |  |  |/  /          
                |  |  |   |  __  | /  /__\  \  |    /   |      \           
                |  |  |   | |  | | |   __   |  |    \   |  |\   \          
                \     /   | |  | | |  |  |  |  | |\  \  |  | \   \       
                 \___/    |_|  |_| |__|  |__|  |_| \__\ |__|  \__/        
                                                                              
                      - O R C A' S   B I G   F R I E N D -                    
                                      &                                       
                       - I N T E G R A L  F E E D E R -                       
                                                                              
 v1 FN, 2020, v2 2021                                                         
------------------------------------------------------------------------------


Reading SHARK input file /scratch/allen/tmpyp4_amber_gaff2/conf1/conf1/Conf189.orca.SHARKINP.tmp ... ok
----------------------
SHARK INTEGRAL PACKAGE
----------------------

Number of atoms                             ...     90
Number of basis functions                   ...   1230
Number of shells                            ...    738
Maximum angular momentum                    ...      2
Integral batch strategy                     ... SHARK/LIBINT Hybrid
RI-J (if used) integral strategy            ... SPLIT-RIJ (Revised 2003 algorithm where possible)
Printlevel                                  ...      1
Contraction scheme used                     ... PARTIAL GENERAL contraction
Coulomb Range Separation                    ... NOT USED
Exchange Range Separation                   ... NOT USED
Finite Nucleus Model                        ... NOT USED
Auxiliary Coulomb fitting basis             ... NOT available
Auxiliary J/K fitting basis                 ... NOT available
Auxiliary Correlation fitting basis         ... NOT available
Auxiliary 'external' fitting basis          ... NOT available
Integral threshold                          ...     2.500000e-11
Primitive cut-off                           ...     2.500000e-12
Primitive pair pre-selection threshold      ...     2.500000e-12

Calculating pre-screening integrals         ... done (  0.1 sec) Dimension = 738
Calculating pre-screening integrals (ORCA)  ... done (  0.3 sec) Dimension = 426
Organizing shell pair data                  ... done (  0.7 sec)
Shell pair information
Total number of shell pairs                 ...    272691
Shell pairs after pre-screening             ...     71729
Total number of primitive shell pairs       ...    422091
Primitive shell pairs kept                  ...     92639
          la=0 lb=0:  29439 shell pairs
          la=1 lb=0:  26035 shell pairs
          la=1 lb=1:   4699 shell pairs
          la=2 lb=0:   7897 shell pairs
          la=2 lb=1:   3130 shell pairs
          la=2 lb=2:    529 shell pairs

Calculating one electron integrals          ... done (  0.2 sec)
Calculating Nuclear repulsion               ... done (  0.0 sec) ENN=   6235.614868065398 Eh

SHARK setup successfully completed in   2.2 seconds

Maximum memory used throughout the entire GTOINT-calculation: 99.1 MB


           ************************************************************
           *        Program running with 16 parallel MPI-processes    *
           *              working on a common directory               *
           ************************************************************
-------------------------------------------------------------------------------
                                 ORCA SCF
-------------------------------------------------------------------------------

------------
SCF SETTINGS
------------
Hamiltonian:
 Ab initio Hamiltonian  Method          .... Hartree-Fock(GTOs)


General Settings:
 Integral files         IntName         .... /scratch/allen/tmpyp4_amber_gaff2/conf1/conf1/Conf189.orca
 Hartree-Fock type      HFTyp           .... RHF
 Total Charge           Charge          ....    0
 Multiplicity           Mult            ....    1
 Number of Electrons    NEL             ....  358
 Basis Dimension        Dim             ....  918
 Nuclear Repulsion      ENuc            ....   6235.6148680654 Eh

Convergence Acceleration:
 DIIS                   CNVDIIS         .... on
   Start iteration      DIISMaxIt       ....    12
   Startup error        DIISStart       ....  0.200000
   # of expansion vecs  DIISMaxEq       ....     5
   Bias factor          DIISBfac        ....   1.050
   Max. coefficient     DIISMaxC        ....  10.000
 Trust-Rad. Augm. Hess. CNVTRAH         .... auto
   Auto Start mean grad. ratio tolernc. ....  1.125000
   Auto Start start iteration           ....    20
   Auto Start num. interpolation iter.  ....    10
   Max. Number of Micro iterations      ....    16
   Max. Number of Macro iterations      .... Maxiter - #DIIS iter
   Number of Davidson start vectors     ....     2
   Converg. threshold I  (grad. norm)   ....   1.000e-05
   Converg. threshold II (energy diff.) ....   1.000e-08
   Grad. Scal. Fac. for Micro threshold ....   0.100
   Minimum threshold for Micro iter.    ....   0.010
   NR start threshold (gradient norm)   ....   0.001
   Initial trust radius                 ....   0.400
   Minimum AH scaling param. (alpha)    ....   1.000
   Maximum AH scaling param. (alpha)    .... 1000.000
   Orbital update algorithm             .... Taylor
   White noise on init. David. guess    .... on
   Maximum white noise                  ....   0.010
   Quad. conv. algorithm                .... NR
 SOSCF                  CNVSOSCF        .... on
   Start iteration      SOSCFMaxIt      ....   150
   Startup grad/error   SOSCFStart      ....  0.003300
 Level Shifting         CNVShift        .... on
   Level shift para.    LevelShift      ....    0.2500
   Turn off err/grad.   ShiftErr        ....    0.0010
 Zerner damping         CNVZerner       .... off
 Static damping         CNVDamp         .... on
   Fraction old density DampFac         ....    0.7000
   Max. Damping (<1)    DampMax         ....    0.9800
   Min. Damping (>=0)   DampMin         ....    0.0000
   Turn off err/grad.   DampErr         ....    0.1000
 Fernandez-Rico         CNVRico         .... off

SCF Procedure:
 Maximum # iterations   MaxIter         ....   125
 SCF integral mode      SCFMode         .... Direct
   Integral package                     .... SHARK and LIBINT hybrid scheme
 Reset frequency        DirectResetFreq ....    20
 Integral Threshold     Thresh          ....  2.500e-11 Eh
 Primitive CutOff       TCut            ....  2.500e-12 Eh

Convergence Tolerance:
 Convergence Check Mode ConvCheckMode   .... Total+1el-Energy
 Convergence forced     ConvForced      .... 1
 Energy Change          TolE            ....  1.000e-08 Eh
 1-El. energy change                    ....  1.000e-05 Eh
 Orbital Gradient       TolG            ....  1.000e-05
 Orbital Rotation angle TolX            ....  1.000e-05
 DIIS Error             TolErr          ....  5.000e-07


Diagonalization of the overlap matrix:
Smallest eigenvalue                        ... 1.684e-04
Time for diagonalization                   ...    0.440 sec
Threshold for overlap eigenvalues          ... 1.000e-08
Number of eigenvalues below threshold      ... 0
Time for construction of square roots      ...    0.268 sec
Total time needed                          ...    0.715 sec

Time for model grid setup =    1.299 sec

------------------------------
INITIAL GUESS: MODEL POTENTIAL
------------------------------
Loading Hartree-Fock densities                     ... done
Calculating cut-offs                               ... done
Initializing the effective Hamiltonian             ... done
Setting up the integral package (SHARK)            ... done
Starting the Coulomb interaction                   ... done (   1.4 sec)
Reading the grid                                   ... done
Mapping shells                                     ... done
Starting the XC term evaluation                    ... done (   0.2 sec)
Transforming the Hamiltonian                       ... done (   0.3 sec)
Diagonalizing the Hamiltonian                      ... done (   0.4 sec)
Back transforming the eigenvectors                 ... done (   0.1 sec)
Now organizing SCF variables                       ... done
                      ------------------
                      INITIAL GUESS DONE (   3.8 sec)
                      ------------------
--------------
SCF ITERATIONS
--------------
ITER       Energy         Delta-E        Max-DP      RMS-DP      [F,P]     Damp
               ***  Starting incremental Fock matrix formation  ***
  0  -2121.5638822257   0.000000000000 0.07480769  0.00130433  0.2310869 0.7000
  1  -2122.2026132203  -0.638730994579 0.06227813  0.00106015  0.1434455 0.7000
                               ***Turning on DIIS***
  2  -2122.6017294998  -0.399116279486 0.13440948  0.00240228  0.0803268 0.0000
  3  -2118.0452489786   4.556480521196 0.08563989  0.00072556  0.0433911 0.0000
  4  -2123.3070189980  -5.261770019455 0.02730089  0.00023889  0.0093929 0.0000
  5  -2123.4288545557  -0.121835557638 0.01208802  0.00013603  0.0048159 0.0000
  6  -2123.4127184065   0.016136149186 0.00695623  0.00008599  0.0022729 0.0000
  7  -2123.5043783402  -0.091659933714 0.00416755  0.00006700  0.0016385 0.0000
  8  -2123.5099899097  -0.005611569475 0.00334438  0.00006383  0.0015371 0.0000
  9  -2123.4841449552   0.025844954482 0.00269365  0.00004568  0.0012390 0.0000
 10  -2123.4913821113  -0.007237156135 0.00543756  0.00009578  0.0009738 0.0000
                      *** Initiating the SOSCF procedure ***
                           *** Shutting down DIIS ***
                      *** Re-Reading the Fockian *** 
                      *** Removing any level shift *** 
ITER      Energy       Delta-E        Grad      Rot      Max-DP    RMS-DP
 11  -2123.38625171   0.1051304025  0.000188  0.000188  0.000250  0.000005
               *** Restarting incremental Fock matrix formation ***
 12  -2123.45177851  -0.0655268029  0.000945  0.006324  0.001514  0.000035
 13  -2123.45189050  -0.0001119917  0.001148  0.031347  0.006913  0.000137
 14  -2123.45207420  -0.0001836951  0.000407  0.002115  0.000634  0.000013
 15  -2123.45208939  -0.0000151963  0.000173  0.001998  0.000477  0.000012
 16  -2123.45209565  -0.0000062534  0.000133  0.002044  0.000508  0.000008
 17  -2123.45209816  -0.0000025082  0.000117  0.001736  0.000282  0.000007
 18  -2123.45209923  -0.0000010692  0.000056  0.000855  0.000202  0.000003
 19  -2123.45209985  -0.0000006228  0.000042  0.001367  0.000221  0.000005
 20  -2123.45210024  -0.0000003957  0.000024  0.000782  0.000113  0.000003
 21  -2123.45210041  -0.0000001698  0.000026  0.001005  0.000145  0.000003
 22  -2123.45210058  -0.0000001702  0.000020  0.000979  0.000151  0.000003
 23  -2123.45210070  -0.0000001131  0.000014  0.000405  0.000068  0.000001
 24  -2123.45210074  -0.0000000428  0.000008  0.000301  0.000051  0.000001
 25  -2123.45210077  -0.0000000259  0.000007  0.000123  0.000038  0.000001
 26  -2123.45210078  -0.0000000119  0.000006  0.000077  0.000028  0.000000
 27  -2123.45210078   0.0000000007  0.000003  0.000058  0.000019  0.000000
                  ***Gradient check signals convergence***
              ***Rediagonalizing the Fockian in SOSCF/NRSCF***

               *****************************************************
               *                     SUCCESS                       *
               *           SCF CONVERGED AFTER  28 CYCLES          *
               *****************************************************


----------------
TOTAL SCF ENERGY
----------------

Total Energy       :        -2123.45210078 Eh          -57782.06925 eV

Components:
Nuclear Repulsion  :         6235.61486807 Eh          169679.70691 eV
Electronic Energy  :        -8359.06696884 Eh         -227461.77616 eV
One Electron Energy:       -15311.63891097 Eh         -416650.87689 eV
Two Electron Energy:         6952.57194213 Eh          189189.10073 eV

Virial components:
Potential Energy   :        -4246.08041164 Eh         -115541.72203 eV
Kinetic Energy     :         2122.62831087 Eh           57759.65278 eV
Virial Ratio       :            2.00038810


---------------
SCF CONVERGENCE
---------------

  Last Energy change         ...    2.5466e-11  Tolerance :   1.0000e-08
  Last MAX-Density change    ...    9.4281e-06  Tolerance :   1.0000e-07
  Last RMS-Density change    ...    1.7878e-07  Tolerance :   5.0000e-09
  Last Orbital Gradient      ...    1.6895e-06  Tolerance :   1.0000e-05
  Last Orbital Rotation      ...    4.1877e-05  Tolerance :   1.0000e-05

             **** THE GBW FILE WAS UPDATED (/scratch/allen/tmpyp4_amber_gaff2/conf1/conf1/Conf189.orca.gbw) ****
             **** DENSITY /scratch/allen/tmpyp4_amber_gaff2/conf1/conf1/Conf189.orca.scfp WAS UPDATED ****
             **** ENERGY FILE WAS UPDATED (/scratch/allen/tmpyp4_amber_gaff2/conf1/conf1/Conf189.orca.en.tmp) ****
             **** THE GBW FILE WAS UPDATED (/scratch/allen/tmpyp4_amber_gaff2/conf1/conf1/Conf189.orca.gbw) ****
             **** DENSITY /scratch/allen/tmpyp4_amber_gaff2/conf1/conf1/Conf189.orca.scfp WAS UPDATED ****
----------------
ORBITAL ENERGIES
----------------

  NO   OCC          E(Eh)            E(eV) 
   0   2.0000     -15.679748      -426.6676 
   1   2.0000     -15.633817      -425.4178 
   2   2.0000     -15.631910      -425.3659 
   3   2.0000     -15.588223      -424.1771 
   4   2.0000     -15.525034      -422.4577 
   5   2.0000     -15.515480      -422.1977 
   6   2.0000     -15.453691      -420.5163 
   7   2.0000     -15.439510      -420.1304 
   8   2.0000     -11.329374      -308.2879 
   9   2.0000     -11.328309      -308.2590 
  10   2.0000     -11.327890      -308.2476 
  11   2.0000     -11.299241      -307.4680 
  12   2.0000     -11.298421      -307.4457 
  13   2.0000     -11.292910      -307.2957 
  14   2.0000     -11.291270      -307.2511 
  15   2.0000     -11.286606      -307.1242 
  16   2.0000     -11.286358      -307.1174 
  17   2.0000     -11.281984      -306.9984 
  18   2.0000     -11.269733      -306.6650 
  19   2.0000     -11.263277      -306.4893 
  20   2.0000     -11.262284      -306.4623 
  21   2.0000     -11.250548      -306.1430 
  22   2.0000     -11.248872      -306.0974 
  23   2.0000     -11.237589      -305.7903 
  24   2.0000     -11.236679      -305.7656 
  25   2.0000     -11.231032      -305.6119 
  26   2.0000     -11.230317      -305.5925 
  27   2.0000     -11.229787      -305.5780 
  28   2.0000     -11.229619      -305.5735 
  29   2.0000     -11.211036      -305.0678 
  30   2.0000     -11.209499      -305.0260 
  31   2.0000     -11.194169      -304.6088 
  32   2.0000     -11.192188      -304.5549 
  33   2.0000     -11.191224      -304.5287 
  34   2.0000     -11.188299      -304.4491 
  35   2.0000     -11.188105      -304.4438 
  36   2.0000     -11.186839      -304.4094 
  37   2.0000     -11.174574      -304.0756 
  38   2.0000     -11.172308      -304.0139 
  39   2.0000     -11.171963      -304.0046 
  40   2.0000     -11.170733      -303.9711 
  41   2.0000     -11.168388      -303.9073 
  42   2.0000     -11.167829      -303.8921 
  43   2.0000     -11.161738      -303.7263 
  44   2.0000     -11.161154      -303.7104 
  45   2.0000     -11.156552      -303.5852 
  46   2.0000     -11.156540      -303.5849 
  47   2.0000     -11.151134      -303.4378 
  48   2.0000     -11.146960      -303.3242 
  49   2.0000     -11.135537      -303.0134 
  50   2.0000     -11.129873      -302.8592 
  51   2.0000     -11.118015      -302.5366 
  52   2.0000      -1.360331       -37.0165 
  53   2.0000      -1.321086       -35.9486 
  54   2.0000      -1.319684       -35.9104 
  55   2.0000      -1.280094       -34.8331 
  56   2.0000      -1.226121       -33.3644 
  57   2.0000      -1.210419       -32.9372 
  58   2.0000      -1.173350       -31.9285 
  59   2.0000      -1.150817       -31.3153 
  60   2.0000      -1.143573       -31.1182 
  61   2.0000      -1.110270       -30.2120 
  62   2.0000      -1.108903       -30.1748 
  63   2.0000      -1.082011       -29.4430 
  64   2.0000      -1.077554       -29.3217 
  65   2.0000      -1.045277       -28.4434 
  66   2.0000      -1.044332       -28.4177 
  67   2.0000      -1.041043       -28.3282 
  68   2.0000      -1.014923       -27.6174 
  69   2.0000      -1.014824       -27.6148 
  70   2.0000      -1.009146       -27.4603 
  71   2.0000      -0.993506       -27.0347 
  72   2.0000      -0.985605       -26.8197 
  73   2.0000      -0.981796       -26.7160 
  74   2.0000      -0.974027       -26.5046 
  75   2.0000      -0.962181       -26.1823 
  76   2.0000      -0.954753       -25.9801 
  77   2.0000      -0.946729       -25.7618 
  78   2.0000      -0.939322       -25.5603 
  79   2.0000      -0.916714       -24.9451 
  80   2.0000      -0.910557       -24.7775 
  81   2.0000      -0.898285       -24.4436 
  82   2.0000      -0.877196       -23.8697 
  83   2.0000      -0.872194       -23.7336 
  84   2.0000      -0.870890       -23.6981 
  85   2.0000      -0.861461       -23.4416 
  86   2.0000      -0.845390       -23.0042 
  87   2.0000      -0.838224       -22.8092 
  88   2.0000      -0.829210       -22.5640 
  89   2.0000      -0.796379       -21.6706 
  90   2.0000      -0.789321       -21.4785 
  91   2.0000      -0.774258       -21.0686 
  92   2.0000      -0.753004       -20.4903 
  93   2.0000      -0.734120       -19.9764 
  94   2.0000      -0.728380       -19.8202 
  95   2.0000      -0.726657       -19.7733 
  96   2.0000      -0.720469       -19.6049 
  97   2.0000      -0.717770       -19.5315 
  98   2.0000      -0.714027       -19.4297 
  99   2.0000      -0.699775       -19.0419 
 100   2.0000      -0.698328       -19.0025 
 101   2.0000      -0.694553       -18.8997 
 102   2.0000      -0.685379       -18.6501 
 103   2.0000      -0.684272       -18.6200 
 104   2.0000      -0.678939       -18.4749 
 105   2.0000      -0.674464       -18.3531 
 106   2.0000      -0.672787       -18.3075 
 107   2.0000      -0.661029       -17.9875 
 108   2.0000      -0.658235       -17.9115 
 109   2.0000      -0.652841       -17.7647 
 110   2.0000      -0.652101       -17.7446 
 111   2.0000      -0.646172       -17.5832 
 112   2.0000      -0.645703       -17.5705 
 113   2.0000      -0.638115       -17.3640 
 114   2.0000      -0.635636       -17.2965 
 115   2.0000      -0.628713       -17.1081 
 116   2.0000      -0.623166       -16.9572 
 117   2.0000      -0.620539       -16.8857 
 118   2.0000      -0.612981       -16.6801 
 119   2.0000      -0.612205       -16.6589 
 120   2.0000      -0.611742       -16.6463 
 121   2.0000      -0.611371       -16.6362 
 122   2.0000      -0.601547       -16.3689 
 123   2.0000      -0.589207       -16.0331 
 124   2.0000      -0.581580       -15.8256 
 125   2.0000      -0.580804       -15.8045 
 126   2.0000      -0.580364       -15.7925 
 127   2.0000      -0.571055       -15.5392 
 128   2.0000      -0.566738       -15.4217 
 129   2.0000      -0.559894       -15.2355 
 130   2.0000      -0.555758       -15.1229 
 131   2.0000      -0.547794       -14.9062 
 132   2.0000      -0.542742       -14.7688 
 133   2.0000      -0.540445       -14.7063 
 134   2.0000      -0.538804       -14.6616 
 135   2.0000      -0.536142       -14.5892 
 136   2.0000      -0.532032       -14.4773 
 137   2.0000      -0.518366       -14.1055 
 138   2.0000      -0.516755       -14.0616 
 139   2.0000      -0.514423       -13.9982 
 140   2.0000      -0.511801       -13.9268 
 141   2.0000      -0.510116       -13.8810 
 142   2.0000      -0.507404       -13.8072 
 143   2.0000      -0.505550       -13.7567 
 144   2.0000      -0.502422       -13.6716 
 145   2.0000      -0.495672       -13.4879 
 146   2.0000      -0.488433       -13.2909 
 147   2.0000      -0.481419       -13.1001 
 148   2.0000      -0.476650       -12.9703 
 149   2.0000      -0.467659       -12.7256 
 150   2.0000      -0.466225       -12.6866 
 151   2.0000      -0.456245       -12.4151 
 152   2.0000      -0.451383       -12.2828 
 153   2.0000      -0.445145       -12.1130 
 154   2.0000      -0.438228       -11.9248 
 155   2.0000      -0.427806       -11.6412 
 156   2.0000      -0.409222       -11.1355 
 157   2.0000      -0.390986       -10.6393 
 158   2.0000      -0.388059       -10.5596 
 159   2.0000      -0.386884       -10.5276 
 160   2.0000      -0.378315       -10.2945 
 161   2.0000      -0.373233       -10.1562 
 162   2.0000      -0.361009        -9.8236 
 163   2.0000      -0.356589        -9.7033 
 164   2.0000      -0.355881        -9.6840 
 165   2.0000      -0.341731        -9.2990 
 166   2.0000      -0.337578        -9.1860 
 167   2.0000      -0.324673        -8.8348 
 168   2.0000      -0.321665        -8.7530 
 169   2.0000      -0.305325        -8.3083 
 170   2.0000      -0.299288        -8.1440 
 171   2.0000      -0.285964        -7.7815 
 172   2.0000      -0.278329        -7.5737 
 173   2.0000      -0.263438        -7.1685 
 174   2.0000      -0.242219        -6.5911 
 175   2.0000      -0.190004        -5.1703 
 176   2.0000      -0.181360        -4.9350 
 177   2.0000      -0.080078        -2.1790 
 178   2.0000      -0.059671        -1.6237 
 179   0.0000       0.028437         0.7738 
 180   0.0000       0.065398         1.7796 
 181   0.0000       0.090245         2.4557 
 182   0.0000       0.106303         2.8927 
 183   0.0000       0.116582         3.1724 
 184   0.0000       0.137023         3.7286 
 185   0.0000       0.139460         3.7949 
 186   0.0000       0.140988         3.8365 
 187   0.0000       0.164272         4.4701 
 188   0.0000       0.165167         4.4944 
 189   0.0000       0.165630         4.5070 
 190   0.0000       0.174463         4.7474 
 191   0.0000       0.180406         4.9091 
 192   0.0000       0.183831         5.0023 
 193   0.0000       0.189151         5.1471 
 194   0.0000       0.204895         5.5755 
 195   0.0000       0.205546         5.5932 
 196   0.0000       0.208303         5.6682 
 197   0.0000       0.208603         5.6764 
 198   0.0000       0.216589         5.8937 
 199   0.0000       0.228622         6.2211 
 200   0.0000       0.233027         6.3410 
 201   0.0000       0.233870         6.3639 
 202   0.0000       0.238984         6.5031 
 203   0.0000       0.239752         6.5240 
 204   0.0000       0.246231         6.7003 
 205   0.0000       0.255063         6.9406 
 206   0.0000       0.256384         6.9766 
 207   0.0000       0.257403         7.0043 
 208   0.0000       0.259317         7.0564 
 209   0.0000       0.260895         7.0993 
 210   0.0000       0.264379         7.1941 
 211   0.0000       0.267056         7.2670 
 212   0.0000       0.268424         7.3042 
 213   0.0000       0.269654         7.3376 
 214   0.0000       0.273111         7.4317 
 215   0.0000       0.276452         7.5226 
 216   0.0000       0.279077         7.5941 
 217   0.0000       0.282486         7.6868 
 218   0.0000       0.285473         7.7681 
 219   0.0000       0.287728         7.8295 
 220   0.0000       0.288739         7.8570 
 221   0.0000       0.292761         7.9664 
 222   0.0000       0.294533         8.0146 
 223   0.0000       0.296776         8.0757 
 224   0.0000       0.297379         8.0921 
 225   0.0000       0.301882         8.2146 
 226   0.0000       0.305613         8.3162 
 227   0.0000       0.307708         8.3732 
 228   0.0000       0.318722         8.6729 
 229   0.0000       0.324787         8.8379 
 230   0.0000       0.327696         8.9171 
 231   0.0000       0.334671         9.1069 
 232   0.0000       0.343652         9.3513 
 233   0.0000       0.357012         9.7148 
 234   0.0000       0.370557        10.0834 
 235   0.0000       0.374001        10.1771 
 236   0.0000       0.386629        10.5207 
 237   0.0000       0.390207        10.6181 
 238   0.0000       0.397950        10.8288 
 239   0.0000       0.402035        10.9399 
 240   0.0000       0.407514        11.0890 
 241   0.0000       0.411223        11.1900 
 242   0.0000       0.415065        11.2945 
 243   0.0000       0.417613        11.3638 
 244   0.0000       0.429515        11.6877 
 245   0.0000       0.433845        11.8055 
 246   0.0000       0.440494        11.9865 
 247   0.0000       0.441614        12.0169 
 248   0.0000       0.442646        12.0450 
 249   0.0000       0.449105        12.2208 
 250   0.0000       0.455280        12.3888 
 251   0.0000       0.456197        12.4138 
 252   0.0000       0.465861        12.6767 
 253   0.0000       0.468756        12.7555 
 254   0.0000       0.472809        12.8658 
 255   0.0000       0.474011        12.8985 
 256   0.0000       0.475097        12.9281 
 257   0.0000       0.483113        13.1462 
 258   0.0000       0.489004        13.3065 
 259   0.0000       0.494814        13.4646 
 260   0.0000       0.503759        13.7080 
 261   0.0000       0.505274        13.7492 
 262   0.0000       0.505971        13.7682 
 263   0.0000       0.512933        13.9576 
 264   0.0000       0.515706        14.0331 
 265   0.0000       0.520709        14.1692 
 266   0.0000       0.523489        14.2449 
 267   0.0000       0.528434        14.3794 
 268   0.0000       0.535186        14.5632 
 269   0.0000       0.541863        14.7449 
 270   0.0000       0.552773        15.0417 
 271   0.0000       0.553902        15.0724 
 272   0.0000       0.558700        15.2030 
 273   0.0000       0.561839        15.2884 
 274   0.0000       0.566508        15.4155 
 275   0.0000       0.569537        15.4979 
 276   0.0000       0.573587        15.6081 
 277   0.0000       0.575670        15.6648 
 278   0.0000       0.581412        15.8210 
 279   0.0000       0.586953        15.9718 
 280   0.0000       0.590676        16.0731 
 281   0.0000       0.593757        16.1570 
 282   0.0000       0.595156        16.1950 
 283   0.0000       0.596533        16.2325 
 284   0.0000       0.598153        16.2766 
 285   0.0000       0.603220        16.4144 
 286   0.0000       0.605148        16.4669 
 287   0.0000       0.610866        16.6225 
 288   0.0000       0.617402        16.8004 
 289   0.0000       0.623906        16.9773 
 290   0.0000       0.624975        17.0064 
 291   0.0000       0.629821        17.1383 
 292   0.0000       0.634860        17.2754 
 293   0.0000       0.637215        17.3395 
 294   0.0000       0.646947        17.6043 
 295   0.0000       0.649953        17.6861 
 296   0.0000       0.654662        17.8143 
 297   0.0000       0.657106        17.8808 
 298   0.0000       0.661998        18.0139 
 299   0.0000       0.665473        18.1084 
 300   0.0000       0.670773        18.2527 
 301   0.0000       0.675651        18.3854 
 302   0.0000       0.678538        18.4639 
 303   0.0000       0.680708        18.5230 
 304   0.0000       0.683492        18.5988 
 305   0.0000       0.685769        18.6607 
 306   0.0000       0.689627        18.7657 
 307   0.0000       0.694648        18.9023 
 308   0.0000       0.696296        18.9472 
 309   0.0000       0.700931        19.0733 
 310   0.0000       0.703074        19.1316 
 311   0.0000       0.705510        19.1979 
 312   0.0000       0.706924        19.2364 
 313   0.0000       0.711167        19.3518 
 314   0.0000       0.711815        19.3695 
 315   0.0000       0.716801        19.5051 
 316   0.0000       0.717038        19.5116 
 317   0.0000       0.718637        19.5551 
 318   0.0000       0.722807        19.6686 
 319   0.0000       0.727464        19.7953 
 320   0.0000       0.728081        19.8121 
 321   0.0000       0.728374        19.8201 
 322   0.0000       0.731535        19.9061 
 323   0.0000       0.733133        19.9496 
 324   0.0000       0.736363        20.0375 
 325   0.0000       0.742500        20.2044 
 326   0.0000       0.745714        20.2919 
 327   0.0000       0.746569        20.3152 
 328   0.0000       0.752356        20.4726 
 329   0.0000       0.754472        20.5302 
 330   0.0000       0.756568        20.5873 
 331   0.0000       0.762262        20.7422 
 332   0.0000       0.766319        20.8526 
 333   0.0000       0.768062        20.9000 
 334   0.0000       0.771576        20.9957 
 335   0.0000       0.774883        21.0857 
 336   0.0000       0.780375        21.2351 
 337   0.0000       0.782422        21.2908 
 338   0.0000       0.785280        21.3686 
 339   0.0000       0.790148        21.5010 
 340   0.0000       0.792534        21.5659 
 341   0.0000       0.794686        21.6245 
 342   0.0000       0.799677        21.7603 
 343   0.0000       0.803880        21.8747 
 344   0.0000       0.806536        21.9469 
 345   0.0000       0.809144        22.0179 
 346   0.0000       0.810700        22.0603 
 347   0.0000       0.813707        22.1421 
 348   0.0000       0.816118        22.2077 
 349   0.0000       0.818010        22.2592 
 350   0.0000       0.819211        22.2919 
 351   0.0000       0.823849        22.4181 
 352   0.0000       0.824210        22.4279 
 353   0.0000       0.827830        22.5264 
 354   0.0000       0.830348        22.5949 
 355   0.0000       0.833560        22.6823 
 356   0.0000       0.835647        22.7391 
 357   0.0000       0.836379        22.7590 
 358   0.0000       0.839154        22.8345 
 359   0.0000       0.839885        22.8544 
 360   0.0000       0.842211        22.9177 
 361   0.0000       0.842678        22.9304 
 362   0.0000       0.846589        23.0369 
 363   0.0000       0.849233        23.1088 
 364   0.0000       0.855075        23.2678 
 365   0.0000       0.855264        23.2729 
 366   0.0000       0.859724        23.3943 
 367   0.0000       0.863865        23.5070 
 368   0.0000       0.867418        23.6036 
 369   0.0000       0.868302        23.6277 
 370   0.0000       0.872336        23.7375 
 371   0.0000       0.876050        23.8385 
 372   0.0000       0.877129        23.8679 
 373   0.0000       0.877739        23.8845 
 374   0.0000       0.880499        23.9596 
 375   0.0000       0.884268        24.0621 
 376   0.0000       0.889693        24.2098 
 377   0.0000       0.891713        24.2648 
 378   0.0000       0.892561        24.2878 
 379   0.0000       0.893450        24.3120 
 380   0.0000       0.897354        24.4182 
 381   0.0000       0.899017        24.4635 
 382   0.0000       0.901078        24.5196 
 383   0.0000       0.903029        24.5727 
 384   0.0000       0.906517        24.6676 
 385   0.0000       0.907976        24.7073 
 386   0.0000       0.908865        24.7315 
 387   0.0000       0.912592        24.8329 
 388   0.0000       0.916406        24.9367 
 389   0.0000       0.919424        25.0188 
 390   0.0000       0.923022        25.1167 
 391   0.0000       0.926469        25.2105 
 392   0.0000       0.928839        25.2750 
 393   0.0000       0.929365        25.2893 
 394   0.0000       0.930309        25.3150 
 395   0.0000       0.935972        25.4691 
 396   0.0000       0.936840        25.4927 
 397   0.0000       0.939436        25.5634 
 398   0.0000       0.945056        25.7163 
 399   0.0000       0.948755        25.8169 
 400   0.0000       0.949707        25.8429 
 401   0.0000       0.953652        25.9502 
 402   0.0000       0.955352        25.9964 
 403   0.0000       0.958093        26.0710 
 404   0.0000       0.961315        26.1587 
 405   0.0000       0.962714        26.1968 
 406   0.0000       0.971471        26.4351 
 407   0.0000       0.979447        26.6521 
 408   0.0000       0.982730        26.7414 
 409   0.0000       0.986937        26.8559 
 410   0.0000       0.989058        26.9136 
 411   0.0000       0.993910        27.0457 
 412   0.0000       0.999681        27.2027 
 413   0.0000       1.007199        27.4073 
 414   0.0000       1.012926        27.5631 
 415   0.0000       1.013129        27.5686 
 416   0.0000       1.019222        27.7345 
 417   0.0000       1.023375        27.8475 
 418   0.0000       1.032268        28.0894 
 419   0.0000       1.034025        28.1373 
 420   0.0000       1.037586        28.2342 
 421   0.0000       1.041421        28.3385 
 422   0.0000       1.044891        28.4329 
 423   0.0000       1.054313        28.6893 
 424   0.0000       1.063970        28.9521 
 425   0.0000       1.070455        29.1286 
 426   0.0000       1.074640        29.2424 
 427   0.0000       1.077700        29.3257 
 428   0.0000       1.079994        29.3881 
 429   0.0000       1.088001        29.6060 
 430   0.0000       1.089848        29.6563 
 431   0.0000       1.094632        29.7864 
 432   0.0000       1.099869        29.9290 
 433   0.0000       1.104691        30.0602 
 434   0.0000       1.107557        30.1382 
 435   0.0000       1.112895        30.2834 
 436   0.0000       1.115680        30.3592 
 437   0.0000       1.120292        30.4847 
 438   0.0000       1.121205        30.5095 
 439   0.0000       1.124309        30.5940 
 440   0.0000       1.127877        30.6911 
 441   0.0000       1.129398        30.7325 
 442   0.0000       1.134190        30.8629 
 443   0.0000       1.137391        30.9500 
 444   0.0000       1.138879        30.9905 
 445   0.0000       1.144341        31.1391 
 446   0.0000       1.146481        31.1973 
 447   0.0000       1.150389        31.3037 
 448   0.0000       1.154900        31.4264 
 449   0.0000       1.158855        31.5340 
 450   0.0000       1.159939        31.5635 
 451   0.0000       1.163335        31.6559 
 452   0.0000       1.167455        31.7681 
 453   0.0000       1.170233        31.8436 
 454   0.0000       1.173290        31.9268 
 455   0.0000       1.177813        32.0499 
 456   0.0000       1.183886        32.2152 
 457   0.0000       1.192278        32.4435 
 458   0.0000       1.196095        32.5474 
 459   0.0000       1.198253        32.6061 
 460   0.0000       1.203004        32.7354 
 461   0.0000       1.207542        32.8589 
 462   0.0000       1.208698        32.8903 
 463   0.0000       1.210723        32.9454 
 464   0.0000       1.213096        33.0100 
 465   0.0000       1.216812        33.1111 
 466   0.0000       1.222109        33.2553 
 467   0.0000       1.229003        33.4429 
 468   0.0000       1.231040        33.4983 
 469   0.0000       1.234109        33.5818 
 470   0.0000       1.236443        33.6453 
 471   0.0000       1.238968        33.7140 
 472   0.0000       1.243036        33.8247 
 473   0.0000       1.244712        33.8703 
 474   0.0000       1.247380        33.9429 
 475   0.0000       1.250259        34.0213 
 476   0.0000       1.251485        34.0546 
 477   0.0000       1.252458        34.0811 
 478   0.0000       1.260804        34.3082 
 479   0.0000       1.263643        34.3855 
 480   0.0000       1.265363        34.4323 
 481   0.0000       1.268618        34.5209 
 482   0.0000       1.270310        34.5669 
 483   0.0000       1.275490        34.7078 
 484   0.0000       1.281002        34.8578 
 485   0.0000       1.282070        34.8869 
 486   0.0000       1.286531        35.0083 
 487   0.0000       1.290140        35.1065 
 488   0.0000       1.292737        35.1772 
 489   0.0000       1.294958        35.2376 
 490   0.0000       1.300077        35.3769 
 491   0.0000       1.305135        35.5145 
 492   0.0000       1.308878        35.6164 
 493   0.0000       1.311730        35.6940 
 494   0.0000       1.317684        35.8560 
 495   0.0000       1.320290        35.9269 
 496   0.0000       1.321898        35.9707 
 497   0.0000       1.325205        36.0606 
 498   0.0000       1.329071        36.1659 
 499   0.0000       1.336181        36.3593 
 500   0.0000       1.337279        36.3892 
 501   0.0000       1.341528        36.5048 
 502   0.0000       1.343332        36.5539 
 503   0.0000       1.344800        36.5939 
 504   0.0000       1.348186        36.6860 
 505   0.0000       1.350319        36.7440 
 506   0.0000       1.352044        36.7910 
 507   0.0000       1.359641        36.9977 
 508   0.0000       1.360167        37.0120 
 509   0.0000       1.364041        37.1174 
[...]
      px      :     0.043614
      py      :     0.014046
 77 H s       :     0.884468  s :     0.884468
      pz      :     0.047981  p :     0.079296
      px      :     0.015024
      py      :     0.016291
 78 H s       :     0.884813  s :     0.884813
      pz      :     0.025885  p :     0.079267
      px      :     0.020454
      py      :     0.032927
 79 H s       :     0.910808  s :     0.910808
      pz      :     0.021806  p :     0.086304
      px      :     0.021655
      py      :     0.042842
 80 H s       :     0.864336  s :     0.864336
      pz      :     0.039395  p :     0.084839
      px      :     0.030291
      py      :     0.015152
 81 H s       :     0.886767  s :     0.886767
      pz      :     0.037828  p :     0.084128
      px      :     0.016179
      py      :     0.030121
 82 H s       :     0.916087  s :     0.916087
      pz      :     0.021962  p :     0.086728
      px      :     0.031653
      py      :     0.033113
 83 H s       :     0.873344  s :     0.873344
      pz      :     0.039281  p :     0.084106
      px      :     0.015274
      py      :     0.029552
 84 H s       :     0.886626  s :     0.886626
      pz      :     0.035772  p :     0.083426
      px      :     0.031697
      py      :     0.015957
 85 H s       :     0.892781  s :     0.892781
      pz      :     0.022491  p :     0.079787
      px      :     0.014067
      py      :     0.043229
 86 H s       :     0.890957  s :     0.890957
      pz      :     0.024732  p :     0.078831
      px      :     0.032983
      py      :     0.021117
 87 H s       :     0.889814  s :     0.889814
      pz      :     0.048020  p :     0.078744
      px      :     0.015586
      py      :     0.015138
 88 H s       :     0.910571  s :     0.910571
      pz      :     0.021618  p :     0.087014
      px      :     0.042940
      py      :     0.022457
 89 H s       :     0.871102  s :     0.871102
      pz      :     0.037960  p :     0.083858
      px      :     0.030506
      py      :     0.015392


                      *****************************
                      * MAYER POPULATION ANALYSIS *
                      *****************************

  NA   - Mulliken gross atomic population
  ZA   - Total nuclear charge
  QA   - Mulliken gross atomic charge
  VA   - Mayer's total valence
  BVA  - Mayer's bonded valence
  FA   - Mayer's free valence

  ATOM       NA         ZA         QA         VA         BVA        FA
  0 C      5.7801     6.0000     0.2199     3.8509     3.8509    -0.0000
  1 N      7.4555     7.0000    -0.4555     3.3492     3.3492     0.0000
  2 C      6.0709     6.0000    -0.0709     3.9223     3.9223    -0.0000
  3 N      7.3417     7.0000    -0.3417     3.4540     3.4540     0.0000
  4 C      6.1065     6.0000    -0.1065     4.1659     4.1659    -0.0000
  5 N      7.5686     7.0000    -0.5686     3.0960     3.0960    -0.0000
  6 C      6.1061     6.0000    -0.1061     3.9359     3.9359    -0.0000
  7 N      7.3410     7.0000    -0.3410     3.4323     3.4323    -0.0000
  8 C      5.7770     6.0000     0.2230     3.8529     3.8529     0.0000
  9 N      7.5624     7.0000    -0.5624     3.0769     3.0769     0.0000
 10 C      5.8811     6.0000     0.1189     3.9090     3.9090    -0.0000
 11 N      7.4385     7.0000    -0.4385     3.3780     3.3780     0.0000
 12 C      6.0473     6.0000    -0.0473     3.8190     3.8190    -0.0000
 13 N      7.4293     7.0000    -0.4293     3.4285     3.4285     0.0000
 14 C      5.7852     6.0000     0.2148     3.8095     3.8095    -0.0000
 15 N      7.4409     7.0000    -0.4409     3.3726     3.3726    -0.0000
 16 C      5.7663     6.0000     0.2337     3.7766     3.7766     0.0000
 17 C      6.0973     6.0000    -0.0973     3.9317     3.9317    -0.0000
 18 C      6.1799     6.0000    -0.1799     3.7495     3.7495    -0.0000
 19 C      5.7859     6.0000     0.2141     3.8837     3.8837    -0.0000
 20 C      5.7863     6.0000     0.2137     3.8292     3.8292     0.0000
 21 C      6.0591     6.0000    -0.0591     3.7903     3.7903    -0.0000
 22 C      6.0909     6.0000    -0.0909     3.9825     3.9825    -0.0000
 23 C      6.0395     6.0000    -0.0395     3.9927     3.9927    -0.0000
 24 C      5.8067     6.0000     0.1933     3.8210     3.8210     0.0000
 25 C      5.8854     6.0000     0.1146     3.8916     3.8916     0.0000
 26 C      6.0832     6.0000    -0.0832     3.9082     3.9082    -0.0000
 27 C      5.7814     6.0000     0.2186     3.8628     3.8628    -0.0000
 28 C      6.0619     6.0000    -0.0619     3.9886     3.9886    -0.0000
 29 C      6.1822     6.0000    -0.1822     3.7475     3.7475    -0.0000
 30 C      5.7547     6.0000     0.2453     3.8008     3.8008    -0.0000
 31 C      5.7696     6.0000     0.2304     3.8170     3.8170     0.0000
 32 C      6.0613     6.0000    -0.0613     3.9233     3.9233    -0.0000
 33 C      6.0600     6.0000    -0.0600     3.9711     3.9711    -0.0000
 34 C      6.0512     6.0000    -0.0512     3.9834     3.9834    -0.0000
 35 C      5.7714     6.0000     0.2286     3.8164     3.8164    -0.0000
 36 C      5.8918     6.0000     0.1082     3.8747     3.8747     0.0000
 37 C      6.0646     6.0000    -0.0646     3.9177     3.9177    -0.0000
 38 C      5.7687     6.0000     0.2313     3.8014     3.8014    -0.0000
 39 C      6.0577     6.0000    -0.0577     3.9830     3.9830    -0.0000
 40 C      6.1818     6.0000    -0.1818     3.7261     3.7261    -0.0000
 41 C      5.7740     6.0000     0.2260     3.8878     3.8878     0.0000
 42 C      5.8027     6.0000     0.1973     3.8256     3.8256    -0.0000
 43 C      6.0727     6.0000    -0.0727     3.8999     3.8999    -0.0000
 44 C      6.0894     6.0000    -0.0894     3.9850     3.9850     0.0000
 45 C      6.0616     6.0000    -0.0616     3.9920     3.9920    -0.0000
 46 C      5.7882     6.0000     0.2118     3.8284     3.8284    -0.0000
 47 C      5.8847     6.0000     0.1153     3.8928     3.8928    -0.0000
 48 C      6.0666     6.0000    -0.0666     3.9096     3.9096    -0.0000
 49 C      5.7617     6.0000     0.2383     3.8946     3.8946    -0.0000
 50 C      6.0462     6.0000    -0.0462     3.9904     3.9904    -0.0000
 51 C      6.1932     6.0000    -0.1932     3.7374     3.7374    -0.0000
 52 H      0.9672     1.0000     0.0328     0.9858     0.9858     0.0000
 53 H      1.0183     1.0000    -0.0183     0.9991     0.9991     0.0000
 54 H      0.9550     1.0000     0.0450     0.9906     0.9906    -0.0000
 55 H      0.9677     1.0000     0.0323     0.9862     0.9862    -0.0000
 56 H      0.9504     1.0000     0.0496     0.9695     0.9695     0.0000
 57 H      0.9531     1.0000     0.0469     0.9823     0.9823    -0.0000
 58 H      0.9528     1.0000     0.0472     0.9847     0.9847    -0.0000
 59 H      1.0200     1.0000    -0.0200     0.9877     0.9877     0.0000
 60 H      0.9369     1.0000     0.0631     0.9585     0.9585     0.0000
 61 H      0.8288     1.0000     0.1712     1.0423     1.0423     0.0000
 62 H      0.8245     1.0000     0.1755     1.0437     1.0437    -0.0000
 63 H      0.9448     1.0000     0.0552     0.9853     0.9853    -0.0000
 64 H      1.0431     1.0000    -0.0431     0.9700     0.9700    -0.0000
 65 H      0.9530     1.0000     0.0470     1.0100     1.0100    -0.0000
 66 H      0.9445     1.0000     0.0555     0.9855     0.9855     0.0000
 67 H      0.9377     1.0000     0.0623     0.9719     0.9719    -0.0000
 68 H      0.9428     1.0000     0.0572     0.9868     0.9868     0.0000
 69 H      0.9437     1.0000     0.0563     0.9828     0.9828     0.0000
 70 H      1.0310     1.0000    -0.0310     0.9943     0.9943     0.0000
 71 H      0.9553     1.0000     0.0447     1.0059     1.0059     0.0000
 72 H      0.9285     1.0000     0.0715     0.9835     0.9835    -0.0000
 73 H      1.0079     1.0000    -0.0079     1.0010     1.0010    -0.0000
 74 H      0.9395     1.0000     0.0605     1.0101     1.0101    -0.0000
 75 H      0.9291     1.0000     0.0709     0.9838     0.9838     0.0000
 76 H      0.9249     1.0000     0.0751     0.9721     0.9721    -0.0000
 77 H      0.9319     1.0000     0.0681     0.9855     0.9855     0.0000
 78 H      0.9326     1.0000     0.0674     0.9854     0.9854     0.0000
 79 H      1.0168     1.0000    -0.0168     0.9975     0.9975     0.0000
 80 H      0.9385     1.0000     0.0615     1.0072     1.0072    -0.0000
 81 H      0.9456     1.0000     0.0544     0.9856     0.9856     0.0000
 82 H      1.0250     1.0000    -0.0250     0.9934     0.9934     0.0000
 83 H      0.9580     1.0000     0.0420     1.0082     1.0082     0.0000
 84 H      0.9457     1.0000     0.0543     0.9852     0.9852    -0.0000
 85 H      0.9390     1.0000     0.0610     0.9716     0.9716    -0.0000
 86 H      0.9444     1.0000     0.0556     0.9839     0.9839     0.0000
 87 H      0.9427     1.0000     0.0573     0.9856     0.9856     0.0000
 88 H      1.0145     1.0000    -0.0145     0.9968     0.9968    -0.0000
 89 H      0.9531     1.0000     0.0469     1.0077     1.0077    -0.0000

  Mayer bond orders larger than 0.100000
B(  0-C ,  1-N ) :   1.0942 B(  0-C , 17-C ) :   1.7323 B(  0-C , 52-H ) :   0.9594 
B(  1-N ,  8-C ) :   1.0991 B(  1-N , 10-C ) :   0.9772 B(  2-C , 12-C ) :   1.4843 
B(  2-C , 16-C ) :   1.3771 B(  2-C , 53-H ) :   0.9710 B(  3-N , 14-C ) :   1.2239 
B(  3-N , 16-C ) :   1.1778 B(  3-N , 61-H ) :   0.8980 B(  4-C ,  6-C ) :   1.2266 
B(  4-C , 17-C ) :   1.2247 B(  4-C , 18-C ) :   1.4837 B(  5-N , 19-C ) :   1.4648 
B(  5-N , 27-C ) :   1.3680 B(  6-C ,  8-C ) :   1.7229 B(  6-C , 54-H ) :   0.8705 
B(  7-N , 30-C ) :   1.1949 B(  7-N , 38-C ) :   1.1899 B(  7-N , 62-H ) :   0.8967 
B(  8-C , 55-H ) :   0.9607 B(  9-N , 41-C ) :   1.3947 B(  9-N , 49-C ) :   1.4246 
B( 10-C , 56-H ) :   0.9776 B( 10-C , 57-H ) :   0.9824 B( 10-C , 58-H ) :   0.9837 
B( 11-N , 20-C ) :   1.1312 B( 11-N , 24-C ) :   1.1064 B( 11-N , 25-C ) :   0.9603 
B( 12-C , 14-C ) :   1.3605 B( 12-C , 59-H ) :   0.9098 B( 13-N , 31-C ) :   1.1618 
B( 13-N , 35-C ) :   1.1606 B( 13-N , 36-C ) :   0.9412 B( 14-C , 18-C ) :   1.1167 
B( 15-N , 42-C ) :   1.1078 B( 15-N , 46-C ) :   1.1247 B( 15-N , 47-C ) :   0.9612 
B( 16-C , 51-C ) :   1.1675 B( 17-C , 60-H ) :   0.8512 B( 18-C , 19-C ) :   1.1157 
B( 19-C , 21-C ) :   1.2541 B( 20-C , 28-C ) :   1.6288 B( 20-C , 63-H ) :   0.9702 
B( 21-C , 26-C ) :   1.5793 B( 21-C , 64-H ) :   0.8907 B( 22-C , 23-C ) :   1.2895 
B( 22-C , 28-C ) :   1.2634 B( 22-C , 29-C ) :   1.2256 B( 23-C , 24-C ) :   1.6202 
B( 23-C , 65-H ) :   0.9703 B( 24-C , 66-H ) :   0.9696 B( 25-C , 67-H ) :   0.9760 
B( 25-C , 68-H ) :   0.9828 B( 25-C , 69-H ) :   0.9823 B( 26-C , 27-C ) :   1.2664 
B( 26-C , 70-H ) :   0.9658 B( 27-C , 29-C ) :   1.2067 B( 28-C , 71-H ) :   0.9720 
B( 29-C , 30-C ) :   1.2473 B( 30-C , 32-C ) :   1.2787 B( 31-C , 39-C ) :   1.5875 
B( 31-C , 72-H ) :   0.9681 B( 32-C , 37-C ) :   1.5802 B( 32-C , 73-H ) :   0.9786 
B( 33-C , 34-C ) :   1.3071 B( 33-C , 39-C ) :   1.3043 B( 33-C , 40-C ) :   1.1759 
B( 34-C , 35-C ) :   1.5851 B( 34-C , 74-H ) :   0.9696 B( 35-C , 75-H ) :   0.9681 
B( 36-C , 76-H ) :   0.9768 B( 36-C , 77-H ) :   0.9816 B( 36-C , 78-H ) :   0.9823 
B( 37-C , 38-C ) :   1.2846 B( 37-C , 79-H ) :   0.9764 B( 38-C , 40-C ) :   1.2342 
B( 39-C , 80-H ) :   0.9705 B( 40-C , 41-C ) :   1.2503 B( 41-C , 43-C ) :   1.1844 
B( 42-C , 50-C ) :   1.6328 B( 42-C , 81-H ) :   0.9697 B( 43-C , 48-C ) :   1.6685 
B( 43-C , 82-H ) :   0.9721 B( 44-C , 45-C ) :   1.2636 B( 44-C , 50-C ) :   1.2728 
B( 44-C , 51-C ) :   1.2607 B( 45-C , 46-C ) :   1.6343 B( 45-C , 83-H ) :   0.9718 
B( 46-C , 84-H ) :   0.9700 B( 47-C , 85-H ) :   0.9762 B( 47-C , 86-H ) :   0.9829 
B( 47-C , 87-H ) :   0.9824 B( 48-C , 49-C ) :   1.1878 B( 48-C , 88-H ) :   0.9748 
B( 49-C , 51-C ) :   1.2454 B( 50-C , 89-H ) :   0.9708 B( 54-H , 59-H ) :   0.1059 
B( 60-H , 64-H ) :   0.1283 

-------
TIMINGS
-------

Total SCF time: 0 days 0 hours 28 min 41 sec 

Total time                  ....    1721.090 sec
Sum of individual times     ....    1716.326 sec  ( 99.7%)

Fock matrix formation       ....    1688.575 sec  ( 98.1%)
Diagonalization             ....       8.781 sec  (  0.5%)
Density matrix formation    ....       0.528 sec  (  0.0%)
Population analysis         ....       0.587 sec  (  0.0%)
Initial guess               ....       2.509 sec  (  0.1%)
Orbital Transformation      ....       0.000 sec  (  0.0%)
Orbital Orthonormalization  ....       0.000 sec  (  0.0%)
DIIS solution               ....       3.980 sec  (  0.2%)
SOSCF solution              ....      10.066 sec  (  0.6%)

Maximum memory used throughout the entire SCF-calculation: 302.7 MB


           ************************************************************
           *        Program running with 16 parallel MPI-processes    *
           *              working on a common directory               *
           ************************************************************

------------------------------------------------------------------------------
                                ORCA  MP2 
------------------------------------------------------------------------------

Freezing NCore=104 chemical core electrons

----------
MP2 ENERGY (disk based algorithm)
----------

Dimension of the basis                    ...  918
Memory devoted to MP2                     ... 2000 MB   
Data format for buffers                   ... DOUBLE
Compression type for matrix containers    ... UNCOMPRESSED

-------------------------------
PARTIAL EXCHANGE TRANSFORMATION
-------------------------------

Transformation type                        ... one-operator
Generation of integrals (i,mue|j,nue)      ... ON
Generation of integrals (mue,kappa|nue,tau)... OFF
Generation of integrals (i,mue|a,nue)      ... OFF
Dimension of the basis                     ...  918
Number of internal MOs                     ...  127 (  52- 178)
Pair cutoff                                ... 2.500e-12 Eh
Number of AO pairs in the trafo            ... 421821
Total Number of distinct AO pairs          ... 421821
Memory devoted for trafo                   ... 2000.0 MB 
Max. Number of MO pairs treated together   ...  311      
Number Format for Storage                  ... Double (8 Byte)
Integral package used                      ... LIBINT

Starting integral evaluation:
    ... done with AO integral generation
Closing buffer AOK     (38.23 GB; CompressionRatio= 1.33)
Collecting buffer AOK 
Number of MO pairs included in the trafo   ... 8128
------------------------
SORTING OF (i,mue|j,nue)
------------------------

IBATCH = 1 of  2
IBATCH = 2 of  2
Closing buffer KAO     (51.03 GB; CompressionRatio= 1.00)
Collecting buffer KAO 
N(AO-Batches) Done                         ...  86122271 
N(AO-Batches) Skipped                      ...  82396843 
N(IJ)-pairs Skipped                        ...         0 
TOTAL TIME for half transformation         ...  2380.014 sec
AO-integral generation                     ...   211.736 sec
Half transformation                        ...   423.504 sec
K-integral sorting                         ...  1522.168 sec
Process 10:   Internal MO 132
Process  4:   Internal MO  84
Process  7:   Internal MO 108

Finished integral transformation - now doing MP2 part

OPERATOR COMBINATION   0   0: ij=( 52..178, 52..178)
Process 13:   Internal MO 156
Process  1:   Internal MO  60
Process  0:   Internal MO  54
Process  2:   Internal MO  69
Process  0:   Internal MO  57
Process  1:   Internal MO  63
Process  3:   Internal MO  78
Process  5:   Internal MO  93
Process  8:   Internal MO 117
Process  2:   Internal MO  72
Process  1:   Internal MO  66
Process 14:   Internal MO 165
Process  4:   Internal MO  87
Process 11:   Internal MO 141
Process  3:   Internal MO  81
Process  9:   Internal MO 126
Process  2:   Internal MO  75
Process  6:   Internal MO 102
Process  7:   Internal MO 111
Process 12:   Internal MO 150
Process  5:   Internal MO  96
Process  4:   Internal MO  90
Process 15:   Internal MO 174
Process 10:   Internal MO 135
Process  8:   Internal MO 120
Process  6:   Internal MO 105
Process  5:   Internal MO  99
Process  7:   Internal MO 114
Process  9:   Internal MO 129
Process 13:   Internal MO 159
Process 11:   Internal MO 144
Process 14:   Internal MO 168
Process 12:   Internal MO 153
Process  8:   Internal MO 123
Process 10:   Internal MO 138
Process 15:   Internal MO 177
Process 11:   Internal MO 147
Process 13:   Internal MO 162
Process 14:   Internal MO 171
-----------------------------------------------
 MP2 CORRELATION ENERGY   :     -7.293217800 Eh
-----------------------------------------------


-------
TIMINGS
-------
Total time                : 2664.413 sec
Integral trafo            : 2382.663 sec ( 89.4%)
K(i,j)                    :    6.269 sec (  0.2%)
T(i,j)                    :    0.062 sec (  0.0%)

---------------------------------------
MP2 TOTAL ENERGY:    -2130.745318577 Eh
---------------------------------------

Maximum memory used throughout the entire MP2-calculation: 2275.3 MB

-------------------------   --------------------
FINAL SINGLE POINT ENERGY     -2130.745318576587
-------------------------   --------------------


                            ***************************************
                            *     ORCA property calculations      *
                            ***************************************


  WARNING: The energy has been calculated at the MP2 level but the densities
           used in the property calculations are still SCF densities
           MP2 response densities have not been calculated 
           use %mp2 Density relaxed end
           or  %mp2 Density unrelaxed end

                                    ---------------------
                                    Active property flags
                                    ---------------------
   (+) Dipole Moment


------------------------------------------------------------------------------
                       ORCA ELECTRIC PROPERTIES CALCULATION
------------------------------------------------------------------------------

Dipole Moment Calculation                       ... on
Quadrupole Moment Calculation                   ... off
Polarizability Calculation                      ... off
GBWName                                         ... /scratch/allen/tmpyp4_amber_gaff2/conf1/conf1/Conf189.orca.gbw
Electron density                                ... /scratch/allen/tmpyp4_amber_gaff2/conf1/conf1/Conf189.orca.scfp
The origin for moment calculation is the CENTER OF MASS  = ( 0.003184, -0.001901 -0.000096)

-------------
DIPOLE MOMENT
-------------
                                X             Y             Z
Electronic contribution:      2.74497      -4.35410      -0.19235
Nuclear contribution   :      0.06944       0.23278       0.19314
                        -----------------------------------------
Total Dipole Moment    :      2.81441      -4.12132       0.00078
                        -----------------------------------------
Magnitude (a.u.)       :      4.99061
Magnitude (Debye)      :     12.68513



--------------------
Rotational spectrum 
--------------------
 
Rotational constants in cm-1:     0.001501     0.001480     0.000760 
Rotational constants in MHz :    45.013059    44.357429    22.781178 

 Dipole components along the rotational axes: 
x,y,z [a.u.] :     3.479848     3.577269     0.001967 
x,y,z [Debye]:     8.845072     9.092695     0.005001 

 

Timings for individual modules:

Sum of individual times         ...     4408.497 sec (=  73.475 min)
GTO integral calculation        ...        3.473 sec (=   0.058 min)   0.1 %
SCF iterations                  ...     1722.338 sec (=  28.706 min)  39.1 %
MP2 module                      ...     2682.686 sec (=  44.711 min)  60.9 %
                             ****ORCA TERMINATED NORMALLY****
TOTAL RUN TIME: 0 days 1 hours 13 minutes 32 seconds 1 msec
# of primitive gaussian functions

