
                                 *****************
                                 * O   R   C   A *
                                 *****************

                                            #,                                       
                                            ###                                      
                                            ####                                     
                                            #####                                    
                                            ######                                   
                                           ########,                                 
                                     ,,################,,,,,                         
                               ,,#################################,,                 
                          ,,##########################################,,             
                       ,#########################################, ''#####,          
                    ,#############################################,,   '####,        
                  ,##################################################,,,,####,       
                ,###########''''           ''''###############################       
              ,#####''   ,,,,##########,,,,          '''####'''          '####       
            ,##' ,,,,###########################,,,                        '##       
           ' ,,###''''                  '''############,,,                           
         ,,##''                                '''############,,,,        ,,,,,,###''
      ,#''                                            '''#######################'''  
     '                                                          ''''####''''         
             ,#######,   #######,   ,#######,      ##                                
            ,#'     '#,  ##    ##  ,#'     '#,    #''#        ######   ,####,        
            ##       ##  ##   ,#'  ##            #'  '#       #        #'  '#        
            ##       ##  #######   ##           ,######,      #####,   #    #        
            '#,     ,#'  ##    ##  '#,     ,#' ,#      #,         ##   #,  ,#        
             '#######'   ##     ##  '#######'  #'      '#     #####' # '####'        



                  #######################################################
                  #                        -***-                        #
                  #          Department of theory and spectroscopy      #
                  #    Directorship and core code : Frank Neese         #
                  #        Max Planck Institute fuer Kohlenforschung    #
                  #                Kaiser Wilhelm Platz 1               #
                  #                 D-45470 Muelheim/Ruhr               #
                  #                      Germany                        #
                  #                                                     #
                  #                  All rights reserved                #
                  #                        -***-                        #
                  #######################################################


                         Program Version 5.0.4 -  RELEASE  -


 With contributions from (in alphabetic order):
   Daniel Aravena         : Magnetic Suceptibility
   Michael Atanasov       : Ab Initio Ligand Field Theory (pilot matlab implementation)
   Alexander A. Auer      : GIAO ZORA, VPT2 properties, NMR spectrum
   Ute Becker             : Parallelization
   Giovanni Bistoni       : ED, misc. LED, open-shell LED, HFLD
   Martin Brehm           : Molecular dynamics
   Dmytro Bykov           : SCF Hessian
   Vijay G. Chilkuri      : MRCI spin determinant printing, contributions to CSF-ICE
   Dipayan Datta          : RHF DLPNO-CCSD density
   Achintya Kumar Dutta   : EOM-CC, STEOM-CC
   Dmitry Ganyushin       : Spin-Orbit,Spin-Spin,Magnetic field MRCI
   Miquel Garcia          : C-PCM and meta-GGA Hessian, CC/C-PCM, Gaussian charge scheme
   Yang Guo               : DLPNO-NEVPT2, F12-NEVPT2, CIM, IAO-localization
   Andreas Hansen         : Spin unrestricted coupled pair/coupled cluster methods
   Benjamin Helmich-Paris : MC-RPA, TRAH-SCF, COSX integrals
   Lee Huntington         : MR-EOM, pCC
   Robert Izsak           : Overlap fitted RIJCOSX, COSX-SCS-MP3, EOM
   Marcus Kettner         : VPT2
   Christian Kollmar      : KDIIS, OOCD, Brueckner-CCSD(T), CCSD density, CASPT2, CASPT2-K
   Simone Kossmann        : Meta GGA functionals, TD-DFT gradient, OOMP2, MP2 Hessian
   Martin Krupicka        : Initial AUTO-CI
   Lucas Lang             : DCDCAS
   Marvin Lechner         : AUTO-CI (C++ implementation), FIC-MRCC
   Dagmar Lenk            : GEPOL surface, SMD
   Dimitrios Liakos       : Extrapolation schemes; Compound Job, initial MDCI parallelization
   Dimitrios Manganas     : Further ROCIS development; embedding schemes
   Dimitrios Pantazis     : SARC Basis sets
   Anastasios Papadopoulos: AUTO-CI, single reference methods and gradients
   Taras Petrenko         : DFT Hessian,TD-DFT gradient, ASA, ECA, R-Raman, ABS, FL, XAS/XES, NRVS
   Peter Pinski           : DLPNO-MP2, DLPNO-MP2 Gradient
   Christoph Reimann      : Effective Core Potentials
   Marius Retegan         : Local ZFS, SOC
   Christoph Riplinger    : Optimizer, TS searches, QM/MM, DLPNO-CCSD(T), (RO)-DLPNO pert. Triples
   Tobias Risthaus        : Range-separated hybrids, TD-DFT gradient, RPA, STAB
   Michael Roemelt        : Original ROCIS implementation
   Masaaki Saitow         : Open-shell DLPNO-CCSD energy and density
   Barbara Sandhoefer     : DKH picture change effects
   Avijit Sen             : IP-ROCIS
   Kantharuban Sivalingam : CASSCF convergence, NEVPT2, FIC-MRCI
   Bernardo de Souza      : ESD, SOC TD-DFT
   Georgi Stoychev        : AutoAux, RI-MP2 NMR, DLPNO-MP2 response
   Willem Van den Heuvel  : Paramagnetic NMR
   Boris Wezisla          : Elementary symmetry handling
   Frank Wennmohs         : Technical directorship


 We gratefully acknowledge several colleagues who have allowed us to
 interface, adapt or use parts of their codes:
   Stefan Grimme, W. Hujo, H. Kruse, P. Pracht,  : VdW corrections, initial TS optimization,
                  C. Bannwarth, S. Ehlert          DFT functionals, gCP, sTDA/sTD-DF
   Ed Valeev, F. Pavosevic, A. Kumar             : LibInt (2-el integral package), F12 methods
   Garnet Chan, S. Sharma, J. Yang, R. Olivares  : DMRG
   Ulf Ekstrom                                   : XCFun DFT Library
   Mihaly Kallay                                 : mrcc  (arbitrary order and MRCC methods)
   Jiri Pittner, Ondrej Demel                    : Mk-CCSD
   Frank Weinhold                                : gennbo (NPA and NBO analysis)
   Christopher J. Cramer and Donald G. Truhlar   : smd solvation model
   Lars Goerigk                                  : TD-DFT with DH, B97 family of functionals
   V. Asgeirsson, H. Jonsson                     : NEB implementation
   FAccTs GmbH                                   : IRC, NEB, NEB-TS, DLPNO-Multilevel, CI-OPT
                                                   MM, QMMM, 2- and 3-layer-ONIOM, Crystal-QMMM,
                                                   LR-CPCM, SF, NACMEs, symmetry and pop. for TD-DFT,
                                                   nearIR, NL-DFT gradient (VV10), updates on ESD,
                                                   ML-optimized integration grids
   S Lehtola, MJT Oliveira, MAL Marques          : LibXC Library
   Liviu Ungur et al                             : ANISO software


 Your calculation uses the libint2 library for the computation of 2-el integrals
 For citations please refer to: http://libint.valeyev.net

 Your ORCA version has been built with support for libXC version: 5.1.0
 For citations please refer to: https://tddft.org/programs/libxc/

 This ORCA versions uses:
   CBLAS   interface :  Fast vector & matrix operations
   LAPACKE interface :  Fast linear algebra routines
   SCALAPACK package :  Parallel linear algebra routines
   Shared memory     :  Shared parallel matrices
   BLAS/LAPACK       :  OpenBLAS 0.3.15  USE64BITINT DYNAMIC_ARCH NO_AFFINITY Sandybridge SINGLE_THREADED
        Core in use  :  Sandybridge
   Copyright (c) 2011-2014, The OpenBLAS Project


================================================================================

----- Orbital basis set information -----
Your calculation utilizes the basis: cc-pVDZ 
       H, B-Ne : Obtained from the ccRepo (grant-hill.group.shef.ac.uk/ccrepo) Feb. 2017
                 T. H. Dunning, Jr., J. Chem. Phys. 90, 1007 (1989)
            He : Obtained from the ccRepo (grant-hill.group.shef.ac.uk/ccrepo) Feb. 2017
                 D. E. Woon, T. H. Dunning, Jr., J. Chem. Phys. 100, 2975 (1994)
  Li-Be, Na-Mg : Obtained from the ccRepo (grant-hill.group.shef.ac.uk/ccrepo) Feb. 2017
                 B. P. Prascher, D. E. Woon, K. A. Peterson, T. H. Dunning, Jr., A. K. Wilson, Theor. Chem. Acc. 128, 69 (2011)
         Al-Ar : Obtained from the ccRepo (grant-hill.group.shef.ac.uk/ccrepo) Feb. 2017
                 D. E. Woon, T. H. Dunning, Jr., J. Chem. Phys. 98, 1358 (1993)
            Ca : Obtained from the Peterson Research Group Website (tyr0.chem.wsu.edu/~kipeters) Feb. 2017
                 J. Koput, K. A. Peterson, J. Phys. Chem. 106, 9595 (2002)
         Sc-Zn : Obtained from the ccRepo (grant-hill.group.shef.ac.uk/ccrepo) Feb. 2017
                 N. B. Balabanov, K. A. Peterson, J. Chem. Phys. 123, 064107 (2005)
                 N. B. Balabanov, K. A. Peterson, J. Chem. Phys. 125, 074110 (2006)
         Ga-Kr : Obtained from the ccRepo (grant-hill.group.shef.ac.uk/ccrepo) Feb. 2017
                 A. K. Wilson, D. E. Woon, K. A. Peterson, T. H. Dunning, Jr., J. Chem. Phys. 110, 7667 (1999)

================================================================================
                                        WARNINGS
                       Please study these warnings very carefully!
================================================================================


WARNING: No MP2 level density has been requested!
         To caclulate MP2 level properties use
         %mp2 Density relaxed end
         or
         %mp2 Density unrelaxed end

WARNING: Post HF methods need fully converged wavefunctions
  ===> : Setting SCFConvForced true
         You can overwrite this default with %scf ConvForced false 


INFO   : the flag for use of the SHARK integral package has been found!

================================================================================
                                       INPUT FILE
================================================================================
NAME = /scratch/allen/tmpyp4_amber_gaff2/2.Mdgx/conf11/conf11/Conf302.orca
|  1> ! PAL2
|  2> ! mp2 cc-pvdz TightSCF  NoKeepInts
|  3> 
|  4> %scf
|  5>   MaxCore 2000
|  6> end
|  7> %mp2
|  8>   MaxCore 2000
|  9> end
| 10> * xyz 0 1
| 11>    C       -3.51000         6.14900         1.09600
| 12>    C        1.47400         4.04100         0.05700
| 13>    C       -2.80200         4.09300         0.04900
| 14>    C       -3.72200         4.35800        -0.97700
| 15>    C       -4.49700         5.50000        -0.93500
| 16>    C       -5.20400         7.60800         0.08800
| 17>    C        0.13200         4.30700         0.06100
| 18>    C       -0.56900         3.05600         0.04700
| 19>    C        1.64900         2.61800         0.02300
| 20>    C       -2.70900         5.02300         1.09600
| 21>    N       -4.38700         6.37500         0.09200
| 22>    N        0.38800         2.06700         0.02500
| 23>    N       -2.01000         0.39500        -0.07500
| 24>    N       -0.38800        -2.07400        -0.02700
| 25>    N        2.01000        -0.40100         0.06500
| 26>    C       -1.96000         2.86100         0.02400
| 27>    C       -2.62300         1.61500        -0.01800
| 28>    C       -5.57300        -4.32900         1.06600
| 29>    C       -4.07300         1.47100         0.05600
| 30>    C       -4.10600        -2.75600        -0.02600
| 31>    C       -4.99500        -2.75700        -1.11100
| 32>    C       -6.13200        -3.54200        -1.07600
| 33>    C       -7.65100        -5.11300         0.04000
| 34>    C       -4.32400         0.14100         0.03700
| 35>    C       -3.02500        -0.52000        -0.04800
| 36>    C       -4.42200        -3.56600         1.07500
| 37>    N       -6.40700        -4.31300         0.00100
| 38>    C       -2.86700        -1.92200        -0.04000
| 39>    C       -1.65000        -2.62400        -0.02700
| 40>    C        3.56800        -6.14200        -1.04000
| 41>    C       -1.47600        -4.04900        -0.03400
| 42>    C        2.80300        -4.09900        -0.00800
| 43>    C        3.65700        -4.38400         1.06900
| 44>    C        4.42700        -5.53000         1.05900
| 45>    C        5.24500        -7.58800         0.01400
| 46>    C       -0.13400        -4.31500        -0.02200
| 47>    C        0.56800        -3.06400        -0.02700
| 48>    C        2.77500        -5.01200        -1.07400
| 49>    N        4.37600        -6.39100         0.01700
| 50>    C        1.95900        -2.86900        -0.00900
| 51>    C        2.62100        -1.62200         0.00900
| 52>    C        5.54300         4.33900        -1.13000
| 53>    C        4.07000        -1.47900        -0.09400
| 54>    C        4.10400         2.75100        -0.02100
| 55>    C        5.02700         2.72900         1.03600
| 56>    C        6.16600         3.50900         0.97800
| 57>    C        7.61900         5.15300        -0.11500
| 58>    C        4.32100        -0.14800        -0.09200
| 59>    C        3.02500         0.51400         0.01500
| 60>    C        4.38700         3.58200        -1.11500
| 61>    C        2.86600         1.91600         0.01300
| 62>    N        6.41300         4.29600        -0.09500
| 63>    H       -3.48100         6.88700         1.88800
| 64>    H        2.27400         4.76600         0.08100
| 65>    H       -3.83300         3.68300        -1.81700
| 66>    H       -5.21300         5.75200        -1.70700
| 67>    H       -4.68400         8.37800        -0.48600
| 68>    H       -6.16900         7.38900        -0.36900
| 69>    H       -5.34500         7.93900         1.11700
| 70>    H       -0.33200         5.28200         0.06900
| 71>    H       -2.02800         4.86800         1.92400
| 72>    H        0.18200         1.07200         0.00500
| 73>    H       -0.18300        -1.08000        -0.02100
| 74>    H       -5.86400        -4.96200         1.89500
| 75>    H       -4.79400         2.27200         0.13900
| 76>    H       -4.80000        -2.16000        -1.99400
| 77>    H       -6.84100        -3.58200        -1.89300
| 78>    H       -8.42800        -4.53600         0.54600
| 79>    H       -7.95600        -5.33700        -0.98100
| 80>    H       -7.45600        -6.03700         0.58400
| 81>    H       -5.28700        -0.34400         0.10000
| 82>    H       -3.78000        -3.60100         1.94700
| 83>    H        3.58700        -6.86800        -1.84300
| 84>    H       -2.27600        -4.77400        -0.05000
| 85>    H        3.71400        -3.72400         1.92600
| 86>    H        5.09200        -5.79500         1.87100
| 87>    H        6.20500        -7.32900        -0.43900
| 88>    H        5.39300        -7.91700         1.04200
| 89>    H        4.75900        -8.37300        -0.56400
| 90>    H        0.32900        -5.29000        -0.00800
| 91>    H        2.14600        -4.84200        -1.94000
| 92>    H        5.80800         4.98600        -1.95600
| 93>    H        4.78800        -2.28100        -0.18500
| 94>    H        4.86000         2.11400         1.91200
| 95>    H        6.90100         3.53100         1.77200
| 96>    H        7.38300         6.10900         0.35600
| 97>    H        8.41400         4.65200         0.43500
| 98>    H        7.92100         5.31000        -1.15000
| 99>    H        5.28300         0.33600        -0.17900
|100>    H        3.72000         3.63200        -1.96700
|101> *
|102> 
|103>                          ****END OF INPUT****
================================================================================

                       ****************************
                       * Single Point Calculation *
                       ****************************

---------------------------------
CARTESIAN COORDINATES (ANGSTROEM)
---------------------------------
  C     -3.510000    6.149000    1.096000
  C      1.474000    4.041000    0.057000
  C     -2.802000    4.093000    0.049000
  C     -3.722000    4.358000   -0.977000
  C     -4.497000    5.500000   -0.935000
  C     -5.204000    7.608000    0.088000
  C      0.132000    4.307000    0.061000
  C     -0.569000    3.056000    0.047000
  C      1.649000    2.618000    0.023000
  C     -2.709000    5.023000    1.096000
  N     -4.387000    6.375000    0.092000
  N      0.388000    2.067000    0.025000
  N     -2.010000    0.395000   -0.075000
  N     -0.388000   -2.074000   -0.027000
  N      2.010000   -0.401000    0.065000
  C     -1.960000    2.861000    0.024000
  C     -2.623000    1.615000   -0.018000
  C     -5.573000   -4.329000    1.066000
  C     -4.073000    1.471000    0.056000
  C     -4.106000   -2.756000   -0.026000
  C     -4.995000   -2.757000   -1.111000
  C     -6.132000   -3.542000   -1.076000
  C     -7.651000   -5.113000    0.040000
  C     -4.324000    0.141000    0.037000
  C     -3.025000   -0.520000   -0.048000
  C     -4.422000   -3.566000    1.075000
  N     -6.407000   -4.313000    0.001000
  C     -2.867000   -1.922000   -0.040000
  C     -1.650000   -2.624000   -0.027000
  C      3.568000   -6.142000   -1.040000
  C     -1.476000   -4.049000   -0.034000
  C      2.803000   -4.099000   -0.008000
  C      3.657000   -4.384000    1.069000
  C      4.427000   -5.530000    1.059000
  C      5.245000   -7.588000    0.014000
  C     -0.134000   -4.315000   -0.022000
  C      0.568000   -3.064000   -0.027000
  C      2.775000   -5.012000   -1.074000
  N      4.376000   -6.391000    0.017000
  C      1.959000   -2.869000   -0.009000
  C      2.621000   -1.622000    0.009000
  C      5.543000    4.339000   -1.130000
  C      4.070000   -1.479000   -0.094000
  C      4.104000    2.751000   -0.021000
  C      5.027000    2.729000    1.036000
  C      6.166000    3.509000    0.978000
  C      7.619000    5.153000   -0.115000
  C      4.321000   -0.148000   -0.092000
  C      3.025000    0.514000    0.015000
  C      4.387000    3.582000   -1.115000
  C      2.866000    1.916000    0.013000
  N      6.413000    4.296000   -0.095000
  H     -3.481000    6.887000    1.888000
  H      2.274000    4.766000    0.081000
  H     -3.833000    3.683000   -1.817000
  H     -5.213000    5.752000   -1.707000
  H     -4.684000    8.378000   -0.486000
  H     -6.169000    7.389000   -0.369000
  H     -5.345000    7.939000    1.117000
  H     -0.332000    5.282000    0.069000
  H     -2.028000    4.868000    1.924000
  H      0.182000    1.072000    0.005000
  H     -0.183000   -1.080000   -0.021000
  H     -5.864000   -4.962000    1.895000
  H     -4.794000    2.272000    0.139000
  H     -4.800000   -2.160000   -1.994000
  H     -6.841000   -3.582000   -1.893000
  H     -8.428000   -4.536000    0.546000
  H     -7.956000   -5.337000   -0.981000
  H     -7.456000   -6.037000    0.584000
  H     -5.287000   -0.344000    0.100000
  H     -3.780000   -3.601000    1.947000
  H      3.587000   -6.868000   -1.843000
  H     -2.276000   -4.774000   -0.050000
  H      3.714000   -3.724000    1.926000
  H      5.092000   -5.795000    1.871000
  H      6.205000   -7.329000   -0.439000
  H      5.393000   -7.917000    1.042000
  H      4.759000   -8.373000   -0.564000
  H      0.329000   -5.290000   -0.008000
  H      2.146000   -4.842000   -1.940000
  H      5.808000    4.986000   -1.956000
  H      4.788000   -2.281000   -0.185000
  H      4.860000    2.114000    1.912000
  H      6.901000    3.531000    1.772000
  H      7.383000    6.109000    0.356000
  H      8.414000    4.652000    0.435000
  H      7.921000    5.310000   -1.150000
  H      5.283000    0.336000   -0.179000
  H      3.720000    3.632000   -1.967000

----------------------------
CARTESIAN COORDINATES (A.U.)
----------------------------
  NO LB      ZA    FRAG     MASS         X           Y           Z
   0 C     6.0000    0    12.011   -6.632939   11.619926    2.071140
   1 C     6.0000    0    12.011    2.785456    7.636383    0.107714
   2 C     6.0000    0    12.011   -5.295013    7.734649    0.092597
   3 C     6.0000    0    12.011   -7.033561    8.235426   -1.846262
   4 C     6.0000    0    12.011   -8.498098   10.393494   -1.766894
   5 C     6.0000    0    12.011   -9.834135   14.377036    0.166296
   6 C     6.0000    0    12.011    0.249444    8.139050    0.115273
   7 C     6.0000    0    12.011   -1.075254    5.775003    0.088817
   8 C     6.0000    0    12.011    3.116158    4.947303    0.043464
   9 C     6.0000    0    12.011   -5.119268    9.492094    2.071140
  10 N     7.0000    0    14.007   -8.290229   12.047004    0.173855
  11 N     7.0000    0    14.007    0.733214    3.906064    0.047243
  12 N     7.0000    0    14.007   -3.798350    0.746442   -0.141729
  13 N     7.0000    0    14.007   -0.733214   -3.919292   -0.051023
  14 N     7.0000    0    14.007    3.798350   -0.757780    0.122832
  15 C     6.0000    0    12.011   -3.703863    5.406506    0.045353
  16 C     6.0000    0    12.011   -4.956752    3.051908   -0.034015
  17 C     6.0000    0    12.011  -10.531444   -8.180624    2.014448
  18 C     6.0000    0    12.011   -7.696855    2.779787    0.105825
  19 C     6.0000    0    12.011   -7.759216   -5.208085   -0.049133
  20 C     6.0000    0    12.011   -9.439182   -5.209975   -2.099486
  21 C     6.0000    0    12.011  -11.587801   -6.693410   -2.033345
  22 C     6.0000    0    12.011  -14.458295   -9.662170    0.075589
  23 C     6.0000    0    12.011   -8.171176    0.266451    0.069920
  24 C     6.0000    0    12.011   -5.716422   -0.982658   -0.090707
  25 C     6.0000    0    12.011   -8.356369   -6.738763    2.031456
  26 N     7.0000    0    14.007  -12.107475   -8.150389    0.001890
  27 C     6.0000    0    12.011   -5.417845   -3.632054   -0.075589
  28 C     6.0000    0    12.011   -3.118048   -4.958641   -0.051023
  29 C     6.0000    0    12.011    6.742543  -11.606698   -1.965315
  30 C     6.0000    0    12.011   -2.789236   -7.651501   -0.064251
  31 C     6.0000    0    12.011    5.296902   -7.745987   -0.015118
  32 C     6.0000    0    12.011    6.910728   -8.284559    2.020117
  33 C     6.0000    0    12.011    8.365818  -10.450186    2.001220
  34 C     6.0000    0    12.011    9.911614  -14.339242    0.026456
  35 C     6.0000    0    12.011   -0.253223   -8.154168   -0.041574
  36 C     6.0000    0    12.011    1.073364   -5.790121   -0.051023
  37 C     6.0000    0    12.011    5.243990   -9.471307   -2.029566
  38 N     7.0000    0    14.007    8.269442  -12.077240    0.032125
  39 C     6.0000    0    12.011    3.701973   -5.421624   -0.017008
  40 C     6.0000    0    12.011    4.952972   -3.065136    0.017008
  41 C     6.0000    0    12.011   10.474752    8.199522   -2.135391
  42 C     6.0000    0    12.011    7.691185   -2.794905   -0.177634
  43 C     6.0000    0    12.011    7.755436    5.198637   -0.039684
  44 C     6.0000    0    12.011    9.499653    5.157063    1.957756
  45 C     6.0000    0    12.011   11.652051    6.631049    1.848152
  46 C     6.0000    0    12.011   14.397823    9.737759   -0.217319
  47 C     6.0000    0    12.011    8.165507   -0.279679   -0.173855
  48 C     6.0000    0    12.011    5.716422    0.971319    0.028346
  49 C     6.0000    0    12.011    8.290229    6.768999   -2.107045
  50 C     6.0000    0    12.011    5.415955    3.620715    0.024566
  51 N     7.0000    0    14.007   12.118814    8.118263   -0.179524
  52 H     1.0000    0     1.008   -6.578137   13.014544    3.567803
  53 H     1.0000    0     1.008    4.297237    9.006435    0.153068
  54 H     1.0000    0     1.008   -7.243320    6.959861   -3.433632
  55 H     1.0000    0     1.008   -9.851142   10.869705   -3.225763
  56 H     1.0000    0     1.008   -8.851477   15.832126   -0.918407
  57 H     1.0000    0     1.008  -11.657721   13.963186   -0.697309
  58 H     1.0000    0     1.008  -10.100586   15.002536    2.110824
  59 H     1.0000    0     1.008   -0.627389    9.981533    0.130391
  60 H     1.0000    0     1.008   -3.832365    9.199187    3.635833
  61 H     1.0000    0     1.008    0.343930    2.025786    0.009449
  62 H     1.0000    0     1.008   -0.345820   -2.040904   -0.039684
  63 H     1.0000    0     1.008  -11.081354   -9.376821    3.581031
  64 H     1.0000    0     1.008   -9.059347    4.293458    0.262672
  65 H     1.0000    0     1.008   -9.070685   -4.081808   -3.768114
  66 H     1.0000    0     1.008  -12.927616   -6.768999   -3.577252
  67 H     1.0000    0     1.008  -15.926612   -8.571798    1.031790
  68 H     1.0000    0     1.008  -15.034661  -10.085468   -1.853821
  69 H     1.0000    0     1.008  -14.089798  -11.408277    1.103600
  70 H     1.0000    0     1.008   -9.990982   -0.650066    0.188973
  71 H     1.0000    0     1.008   -7.143165   -6.804904    3.679297
  72 H     1.0000    0     1.008    6.778448  -12.978639   -3.482765
  73 H     1.0000    0     1.008   -4.301017   -9.021553   -0.094486
  74 H     1.0000    0     1.008    7.018443   -7.037340    3.639613
  75 H     1.0000    0     1.008    9.622485  -10.950963    3.535678
  76 H     1.0000    0     1.008   11.725751  -13.849803   -0.829590
  77 H     1.0000    0     1.008   10.191293  -14.960962    1.969095
  78 H     1.0000    0     1.008    8.993207  -15.822677   -1.065806
  79 H     1.0000    0     1.008    0.621720   -9.996651   -0.015118
  80 H     1.0000    0     1.008    4.055352   -9.150054   -3.666069
  81 H     1.0000    0     1.008   10.975529    9.422175   -3.696304
  82 H     1.0000    0     1.008    9.048009   -4.310465   -0.349599
  83 H     1.0000    0     1.008    9.184069    3.994881    3.613156
  84 H     1.0000    0     1.008   13.041000    6.672623    3.348595
  85 H     1.0000    0     1.008   13.951848   11.544337    0.672743
  86 H     1.0000    0     1.008   15.900156    8.791006    0.822031
  87 H     1.0000    0     1.008   14.968521   10.034446   -2.173185
  88 H     1.0000    0     1.008    9.983423    0.634948   -0.338261
  89 H     1.0000    0     1.008    7.029781    6.863485   -3.717091

--------------------------------
INTERNAL COORDINATES (ANGSTROEM)
--------------------------------
 C      0   0   0     0.000000000000     0.00000000     0.00000000
 C      1   0   0     5.510303167703     0.00000000     0.00000000
 C      1   2   0     2.413422673300    47.69785745     0.00000000
 C      3   1   2     1.403317854230    87.93600502   227.10243481
 C      4   3   1     1.380779852113   120.12646353     0.11564024
 C      5   4   3     2.447456230456   152.52439583     1.71594982
 C      2   1   3     1.368114030335    15.81347620    16.83838835
 C      7   2   1     1.434084376876   108.05010202   222.32679344
 C      2   1   3     1.434123425651   119.63216462   330.33264290
 C      1   2   3     1.381838268395    33.27718597    42.00640355
 N      1   2   3     1.352117228646   120.70340993   301.58894773
 N      9   2   1     1.376127174356   106.58526707    11.24997178
 N     12   9   2     2.925062050624   168.53581413   171.12065651
 N     13  12   9     2.954513327098    91.55032014    11.12112580
 N     14  13  12     2.925371258490    88.43092389   359.84326247
 C      8   7   2     1.404790019896   127.24786865   181.11170171
 C     13  12   9     1.366535034311    81.72106996   188.00453233
 C     14  13  12     5.758810554272    80.56209567   166.76250791
 C     17  13  12     1.459010623676   111.08861209   183.82872609
 C     18  14  13     2.412235892279    27.27532823    36.33507194
 C     20  18  14     1.402692767501    87.95206320   148.94598259
 C     21  20  18     1.382106725257   120.14573887   359.70382047
 C     18  14  13     2.446510985056   144.15733107    82.80075377
 C     19  17  13     1.353610726908   106.29293361   359.75308708
 C     13  12   9     1.366813447402   172.21332906    33.46711076
 C     18  14  13     1.380960173213    15.08449437   309.23336894
 N     22  21  20     1.352773077792   120.73759875     0.27865223
 C     25  13  17     1.410897586645   125.60330303   182.37774668
 C     14  13  12     1.376642291955    80.24689249   177.85461986
 C     14  13  12     5.764089607215   164.51507311   312.20821879
 C     29  14  13     1.435600919476   106.58649366   178.76395472
 C     30  14  13     2.413316804732    27.10625047    82.12560436
 C     32  30  14     1.403734305344    87.90059683   149.76154742
 C     33  32  30     1.380694028378   120.14881443   359.74174632
 C     34  33  32     2.448777858443   152.49203239     2.45173620
 C     31  29  14     1.368160809262   108.16950133     0.70383075
 C     14  13  12     1.376239804685   169.26375223   353.09862627
 C     30  14  13     1.380907310430    14.68948582   353.70041132
 N     34  33  32     1.352658863128   120.85575621     0.19603406
 C     37  14  29     1.404717053360   126.01551127   180.90772073
 C     15  14  13     1.366491126938    81.61824056   183.09049352
 C      2   1   3     4.249062720177   153.12593668   140.50213712
 C     41  15  14     1.459677704153   111.05201287   175.08990246
 C     42   2   1     2.412953791518    41.78584867   164.90273547
 C     44  42   2     1.403446472082    87.95153797   233.97558675
 C     45  44  42     1.381696421071   120.11137308     0.19721020
 C     42   2   1     2.450019795838   135.97209175    75.21758457
 C     43  41  15     1.354461516618   106.26758155     0.30894352
 C     15  14  13     1.367461151185   171.87382904   332.35056460
 C     42   2   1     1.381886391857    32.59078432   213.75801466
 C      9   2   1     1.404988612053   126.98745415   192.25430931
 N     42   2   1     1.352765315936   113.57249190   102.95417376
 H      1   2   3     1.082935362799   111.98617859   158.47790603
 H      2   1   3     1.079907866440   114.14372564   161.36897206
 H      4   3   1     1.083303281634   121.09301513   179.52888633
 H      5   4   3     1.082655993379   122.82075840   179.40783253
 H      6   5   4     1.092142847800   104.47917357   100.06362460
 H      6   5   4     1.089970183078    84.68931827   209.42977829
 H      6   5   4     1.090083941722   133.90454728   322.23722791
 H      7   2   1     1.079807853278   126.66122480    42.56520723
 H     10   1   2     1.083222045566   118.75213452    80.77727193
 H     12   9   2     1.016297692608   125.29023241   180.00180175
 H     14  13  12     1.014936943854    44.97226959   359.42596618
 H     18  14  13     1.082871645210   128.03556573   234.20482432
 H     19  17  13     1.080893611786   126.41830519   178.11313280
 H     21  20  18     1.083569563987   121.05669627   180.67006309
 H     22  21  20     1.082483256222   122.73097286   180.59748951
 H     23  18  14     1.092105306278   103.92715769   234.93429879
 H     23  18  14     1.088871893291   134.19244188    12.25587044
 H     23  18  14     1.089833473518    84.85857450   125.45241208
 H     24  19  17     1.080075460327   127.28078426   178.44613241
 H     26  18  14     1.083408048706   118.76995697   244.94906660
 H     30  14  13     1.082703098730   127.99711412   279.66882698
 H     31  29  14     1.079759695488   125.22293469   180.92530585
 H     33  32  30     1.083188810873   121.01964473   180.74284758
 H     34  33  32     1.082494341787   122.70821597   180.59516895
 H     35  34  33     1.092652735319   105.73575241    97.19771933
 H     35  34  33     1.089462711615    84.05943581   206.43036958
 H     35  34  33     1.089268102902   133.08365142   318.50306270
 H     36  31  29     1.079439669458   126.61599965   178.98859863
 H     38  30  73     1.083742127999   118.77264435   359.90091293
 H     42   2   1     1.082178358682   119.31790784   319.58570422
 H     43  41  15     1.080281907652   126.36969097   182.06329380
 H     45  44  42     1.083277434455   121.10105945   179.58025624
 H     46  45  44     1.082194529648   122.72144639   179.46906377
 H     47  42   2     1.091546151109   106.65128841   315.16475048
 H     47  42   2     1.088818625851   132.46019523    94.52397119
 H     47  42   2     1.089531091801    83.63838232   206.04504406
 H     48  43  41     1.080402239909   127.23657387   181.62955349
 H     50  42   2     1.083186502870   118.77001737    94.71359229

---------------------------
INTERNAL COORDINATES (A.U.)
---------------------------
 C      0   0   0     0.000000000000     0.00000000     0.00000000
 C      1   0   0    10.412963901838     0.00000000     0.00000000
 C      1   2   0     4.560707897934    47.69785745     0.00000000
 C      3   1   2     2.651886423336    87.93600502   227.10243481
 C      4   3   1     2.609295771729   120.12646353     0.11564024
 C      5   4   3     4.625022000322   152.52439583     1.71594982
 C      2   1   3     2.585360837309    15.81347620    16.83838835
 C      7   2   1     2.710026725231   108.05010202   222.32679344
 C      2   1   3     2.710100516721   119.63216462   330.33264290
 C      1   2   3     2.611295888638    33.27718597    42.00640355
 N      1   2   3     2.555131263097   120.70340993   301.58894773
 N      9   2   1     2.600503484979   106.58526707    11.24997178
 N     12   9   2     5.527566200405   168.53581413   171.12065651
 N     13  12   9     5.583221047236    91.55032014    11.12112580
 N     14  13  12     5.528150518591    88.43092389   359.84326247
 C      8   7   2     2.654668413270   127.24786865   181.11170171
 C     13  12   9     2.582376967257    81.72106996   188.00453233
 C     14  13  12    10.882574804710    80.56209567   166.76250791
 C     17  13  12     2.757130505230   111.08861209   183.82872609
 C     18  14  13     4.558465206823    27.27532823    36.33507194
 C     20  18  14     2.650705180609    87.95206320   148.94598259
 C     21  20  18     2.611803198586   120.14573887   359.70382047
 C     18  14  13     4.623235745386   144.15733107    82.80075377
 C     19  17  13     2.557953565794   106.29293361   359.75308708
 C     13  12   9     2.582903091751   172.21332906    33.46711076
 C     18  14  13     2.609636529225    15.08449437   309.23336894
 N     22  21  20     2.556370638369   120.73759875     0.27865223
 C     25  13  17     2.666210041769   125.60330303   182.37774668
 C     14  13  12     2.601476916169    80.24689249   177.85461986
 C     14  13  12    10.892550769017   164.51507311   312.20821879
 C     29  14  13     2.712892575415   106.58649366   178.76395472
 C     30  14  13     4.560507835333    27.10625047    82.12560436
 C     32  30  14     2.652673401891    87.90059683   149.76154742
 C     33  32  30     2.609133588376   120.14881443   359.74174632
 C     34  33  32     4.627519515267   152.49203239     2.45173620
 C     31  29  14     2.585449236669   108.16950133     0.70383075
 C     14  13  12     2.600716325456   169.26375223   353.09862627
 C     30  14  13     2.609536633043    14.68948582   353.70041132
 N     34  33  32     2.556154803934   120.85575621     0.19603406
 C     37  14  29     2.654530526499   126.01551127   180.90772073
 C     15  14  13     2.582293994346    81.61824056   183.09049352
 C      2   1   3     8.029564866989   153.12593668   140.50213712
 C     41  15  14     2.758391104639   111.05201287   175.08990246
 C     42   2   1     4.559821839776    41.78584867   164.90273547
 C     44  42   2     2.652129475853    87.95153797   233.97558675
 C     45  44  42     2.611027836043   120.11137308     0.19721020
 C     42   2   1     4.629866436820   135.97209175    75.21758457
 C     43  41  15     2.559561325344   106.26758155     0.30894352
 C     15  14  13     2.584127074516   171.87382904   332.35056460
 C     42   2   1     2.611386828803    32.59078432   213.75801466
 C      9   2   1     2.655043698059   126.98745415   192.25430931
 N     42   2   1     2.556355970587   113.57249190   102.95417376
 H      1   2   3     2.046451256428   111.98617859   158.47790603
 H      2   1   3     2.040730117440   114.14372564   161.36897206
 H      4   3   1     2.047146522267   121.09301513   179.52888633
 H      5   4   3     2.045923324735   122.82075840   179.40783253
 H      6   5   4     2.063850881462   104.47917357   100.06362460
 H      6   5   4     2.059745140158    84.68931827   209.42977829
 H      6   5   4     2.059960112840   133.90454728   322.23722791
 H      7   2   1     2.040541119952   126.66122480    42.56520723
 H     10   1   2     2.046993008346   118.75213452    80.77727193
 H     12   9   2     1.920524309565   125.29023241   180.00180175
 H     14  13  12     1.917952867083    44.97226959   359.42596618
 H     18  14  13     2.046330847636   128.03556573   234.20482432
 H     19  17  13     2.042592906181   126.41830519   178.11313280
 H     21  20  18     2.047649722989   121.05669627   180.67006309
 H     22  21  20     2.045596898814   122.73097286   180.59748951
 H     23  18  14     2.063779938267   103.92715769   234.93429879
 H     23  18  14     2.057669673245   134.19244188    12.25587044
 H     23  18  14     2.059486796529    84.85857450   125.45241208
 H     24  19  17     2.041046823986   127.28078426   178.44613241
 H     26  18  14     2.047344503340   118.76995697   244.94906660
 H     30  14  13     2.046012340948   127.99711412   279.66882698
 H     31  29  14     2.040450114918   125.22293469   180.92530585
 H     33  32  30     2.046930203877   121.01964473   180.74284758
 H     34  33  32     2.045617847496   122.70821597   180.59516895
 H     35  34  33     2.064814429233   105.73575241    97.19771933
 H     35  34  33     2.058786158072    84.05943581   206.43036958
 H     35  34  33     2.058418400901   133.08365142   318.50306270
 H     36  31  29     2.039845353366   126.61599965   178.98859863
 H     38  30  73     2.047975821711   118.77264435   359.90091293
 H     42   2   1     2.045020725966   119.31790784   319.58570422
 H     43  41  15     2.041436952892   126.36969097   182.06329380
 H     45  44  42     2.047097678177   121.10105945   179.58025624
 H     46  45  44     2.045051284662   122.72144639   179.46906377
 H     47  42   2     2.062723288131   106.65128841   315.16475048
 H     47  42   2     2.057569012371   132.46019523    94.52397119
 H     47  42   2     2.058915377895    83.63838232   206.04504406
 H     48  43  41     2.041664347903   127.23657387   181.62955349
 H     50  42   2     2.046925842384   118.77001737    94.71359229

---------------------
BASIS SET INFORMATION
---------------------
There are 3 groups of distinct atoms

 Group   1 Type C   : 17s4p1d contracted to 3s2p1d pattern {881/31/1}
 Group   2 Type N   : 17s4p1d contracted to 3s2p1d pattern {881/31/1}
 Group   3 Type H   : 4s1p contracted to 2s1p pattern {31/1}

Atom   0C    basis set group =>   1
Atom   1N    basis set group =>   2
Atom   2C    basis set group =>   1
Atom   3N    basis set group =>   2
Atom   4C    basis set group =>   1
Atom   5N    basis set group =>   2
Atom   6C    basis set group =>   1
Atom   7N    basis set group =>   2
Atom   8C    basis set group =>   1
Atom   9N    basis set group =>   2
Atom  10C    basis set group =>   1
Atom  11N    basis set group =>   2
Atom  12C    basis set group =>   1
Atom  13N    basis set group =>   2
Atom  14C    basis set group =>   1
Atom  15N    basis set group =>   2
Atom  16C    basis set group =>   1
Atom  17C    basis set group =>   1
Atom  18C    basis set group =>   1
Atom  19C    basis set group =>   1
Atom  20C    basis set group =>   1
Atom  21C    basis set group =>   1
Atom  22C    basis set group =>   1
Atom  23C    basis set group =>   1
Atom  24C    basis set group =>   1
Atom  25C    basis set group =>   1
Atom  26C    basis set group =>   1
Atom  27C    basis set group =>   1
Atom  28C    basis set group =>   1
Atom  29C    basis set group =>   1
Atom  30C    basis set group =>   1
Atom  31C    basis set group =>   1
Atom  32C    basis set group =>   1
Atom  33C    basis set group =>   1
Atom  34C    basis set group =>   1
Atom  35C    basis set group =>   1
Atom  36C    basis set group =>   1
Atom  37C    basis set group =>   1
Atom  38C    basis set group =>   1
Atom  39C    basis set group =>   1
Atom  40C    basis set group =>   1
Atom  41C    basis set group =>   1
Atom  42C    basis set group =>   1
Atom  43C    basis set group =>   1
Atom  44C    basis set group =>   1
Atom  45C    basis set group =>   1
Atom  46C    basis set group =>   1
Atom  47C    basis set group =>   1
Atom  48C    basis set group =>   1
Atom  49C    basis set group =>   1
Atom  50C    basis set group =>   1
Atom  51C    basis set group =>   1
Atom  52H    basis set group =>   3
Atom  53H    basis set group =>   3
Atom  54H    basis set group =>   3
Atom  55H    basis set group =>   3
Atom  56H    basis set group =>   3
Atom  57H    basis set group =>   3
Atom  58H    basis set group =>   3
Atom  59H    basis set group =>   3
Atom  60H    basis set group =>   3
Atom  61H    basis set group =>   3
Atom  62H    basis set group =>   3
Atom  63H    basis set group =>   3
Atom  64H    basis set group =>   3
Atom  65H    basis set group =>   3
Atom  66H    basis set group =>   3
Atom  67H    basis set group =>   3
Atom  68H    basis set group =>   3
Atom  69H    basis set group =>   3
Atom  70H    basis set group =>   3
Atom  71H    basis set group =>   3
Atom  72H    basis set group =>   3
Atom  73H    basis set group =>   3
Atom  74H    basis set group =>   3
Atom  75H    basis set group =>   3
Atom  76H    basis set group =>   3
Atom  77H    basis set group =>   3
Atom  78H    basis set group =>   3
Atom  79H    basis set group =>   3
Atom  80H    basis set group =>   3
Atom  81H    basis set group =>   3
Atom  82H    basis set group =>   3
Atom  83H    basis set group =>   3
Atom  84H    basis set group =>   3
Atom  85H    basis set group =>   3
Atom  86H    basis set group =>   3
Atom  87H    basis set group =>   3
Atom  88H    basis set group =>   3
Atom  89H    basis set group =>   3


           ************************************************************
           *        Program running with 8 parallel MPI-processes     *
           *              working on a common directory               *
           ************************************************************
------------------------------------------------------------------------------
                           ORCA GTO INTEGRAL CALCULATION
------------------------------------------------------------------------------
------------------------------------------------------------------------------
                   ___                                                        
                  /   \      - P O W E R E D   B Y -                         
                 /     \                                                     
                 |  |  |   _    _      __       _____    __    __             
                 |  |  |  | |  | |    /  \     |  _  \  |  |  /  |          
                  \  \/   | |  | |   /    \    | | | |  |  | /  /          
                 / \  \   | |__| |  /  /\  \   | |_| |  |  |/  /          
                |  |  |   |  __  | /  /__\  \  |    /   |      \           
                |  |  |   | |  | | |   __   |  |    \   |  |\   \          
                \     /   | |  | | |  |  |  |  | |\  \  |  | \   \       
                 \___/    |_|  |_| |__|  |__|  |_| \__\ |__|  \__/        
                                                                              
                      - O R C A' S   B I G   F R I E N D -                    
                                      &                                       
                       - I N T E G R A L  F E E D E R -                       
                                                                              
 v1 FN, 2020, v2 2021                                                         
------------------------------------------------------------------------------


Reading SHARK input file /scratch/chu_02/allen/tmpyp4_amber_gaff2/conf1/conf1/Conf302.orca.SHARKINP.tmp ... ok
----------------------
SHARK INTEGRAL PACKAGE
----------------------

Number of atoms                             ...     90
Number of basis functions                   ...   1230
Number of shells                            ...    738
Maximum angular momentum                    ...      2
Integral batch strategy                     ... SHARK/LIBINT Hybrid
RI-J (if used) integral strategy            ... SPLIT-RIJ (Revised 2003 algorithm where possible)
Printlevel                                  ...      1
Contraction scheme used                     ... PARTIAL GENERAL contraction
Coulomb Range Separation                    ... NOT USED
Exchange Range Separation                   ... NOT USED
Finite Nucleus Model                        ... NOT USED
Auxiliary Coulomb fitting basis             ... NOT available
Auxiliary J/K fitting basis                 ... NOT available
Auxiliary Correlation fitting basis         ... NOT available
Auxiliary 'external' fitting basis          ... NOT available
Integral threshold                          ...     2.500000e-11
Primitive cut-off                           ...     2.500000e-12
Primitive pair pre-selection threshold      ...     2.500000e-12

Calculating pre-screening integrals         ... done (  0.1 sec) Dimension = 738
Calculating pre-screening integrals (ORCA)  ... done (  0.3 sec) Dimension = 426
Organizing shell pair data                  ... done (  0.5 sec)
Shell pair information
Total number of shell pairs                 ...    272691
Shell pairs after pre-screening             ...     71581
Total number of primitive shell pairs       ...    422091
Primitive shell pairs kept                  ...     92337
          la=0 lb=0:  29403 shell pairs
          la=1 lb=0:  25957 shell pairs
          la=1 lb=1:   4698 shell pairs
          la=2 lb=0:   7870 shell pairs
          la=2 lb=1:   3122 shell pairs
          la=2 lb=2:    531 shell pairs

Calculating one electron integrals          ... done (  0.2 sec)
Calculating Nuclear repulsion               ... done (  0.0 sec) ENN=   6224.832831844287 Eh

SHARK setup successfully completed in   1.6 seconds

Maximum memory used throughout the entire GTOINT-calculation: 98.9 MB


           ************************************************************
           *        Program running with 8 parallel MPI-processes     *
           *              working on a common directory               *
           ************************************************************
-------------------------------------------------------------------------------
                                 ORCA SCF
-------------------------------------------------------------------------------

------------
SCF SETTINGS
------------
Hamiltonian:
 Ab initio Hamiltonian  Method          .... Hartree-Fock(GTOs)


General Settings:
 Integral files         IntName         .... /scratch/chu_02/allen/tmpyp4_amber_gaff2/conf1/conf1/Conf302.orca
 Hartree-Fock type      HFTyp           .... RHF
 Total Charge           Charge          ....    0
 Multiplicity           Mult            ....    1
 Number of Electrons    NEL             ....  358
 Basis Dimension        Dim             ....  918
 Nuclear Repulsion      ENuc            ....   6224.8328318443 Eh

Convergence Acceleration:
 DIIS                   CNVDIIS         .... on
   Start iteration      DIISMaxIt       ....    12
   Startup error        DIISStart       ....  0.200000
   # of expansion vecs  DIISMaxEq       ....     5
   Bias factor          DIISBfac        ....   1.050
   Max. coefficient     DIISMaxC        ....  10.000
 Trust-Rad. Augm. Hess. CNVTRAH         .... auto
   Auto Start mean grad. ratio tolernc. ....  1.125000
   Auto Start start iteration           ....    20
   Auto Start num. interpolation iter.  ....    10
   Max. Number of Micro iterations      ....    16
   Max. Number of Macro iterations      .... Maxiter - #DIIS iter
   Number of Davidson start vectors     ....     2
   Converg. threshold I  (grad. norm)   ....   1.000e-05
   Converg. threshold II (energy diff.) ....   1.000e-08
   Grad. Scal. Fac. for Micro threshold ....   0.100
   Minimum threshold for Micro iter.    ....   0.010
   NR start threshold (gradient norm)   ....   0.001
   Initial trust radius                 ....   0.400
   Minimum AH scaling param. (alpha)    ....   1.000
   Maximum AH scaling param. (alpha)    .... 1000.000
   Orbital update algorithm             .... Taylor
   White noise on init. David. guess    .... on
   Maximum white noise                  ....   0.010
   Quad. conv. algorithm                .... NR
 SOSCF                  CNVSOSCF        .... on
   Start iteration      SOSCFMaxIt      ....   150
   Startup grad/error   SOSCFStart      ....  0.003300
 Level Shifting         CNVShift        .... on
   Level shift para.    LevelShift      ....    0.2500
   Turn off err/grad.   ShiftErr        ....    0.0010
 Zerner damping         CNVZerner       .... off
 Static damping         CNVDamp         .... on
   Fraction old density DampFac         ....    0.7000
   Max. Damping (<1)    DampMax         ....    0.9800
   Min. Damping (>=0)   DampMin         ....    0.0000
   Turn off err/grad.   DampErr         ....    0.1000
 Fernandez-Rico         CNVRico         .... off

SCF Procedure:
 Maximum # iterations   MaxIter         ....   125
 SCF integral mode      SCFMode         .... Direct
   Integral package                     .... SHARK and LIBINT hybrid scheme
 Reset frequency        DirectResetFreq ....    20
 Integral Threshold     Thresh          ....  2.500e-11 Eh
 Primitive CutOff       TCut            ....  2.500e-12 Eh

Convergence Tolerance:
 Convergence Check Mode ConvCheckMode   .... Total+1el-Energy
 Convergence forced     ConvForced      .... 1
 Energy Change          TolE            ....  1.000e-08 Eh
 1-El. energy change                    ....  1.000e-05 Eh
 Orbital Gradient       TolG            ....  1.000e-05
 Orbital Rotation angle TolX            ....  1.000e-05
 DIIS Error             TolErr          ....  5.000e-07


Diagonalization of the overlap matrix:
Smallest eigenvalue                        ... 2.255e-04
Time for diagonalization                   ...    0.213 sec
Threshold for overlap eigenvalues          ... 1.000e-08
Number of eigenvalues below threshold      ... 0
Time for construction of square roots      ...    0.127 sec
Total time needed                          ...    0.345 sec

Time for model grid setup =    1.341 sec

------------------------------
INITIAL GUESS: MODEL POTENTIAL
------------------------------
Loading Hartree-Fock densities                     ... done
Calculating cut-offs                               ... done
Initializing the effective Hamiltonian             ... done
Setting up the integral package (SHARK)            ... done
Starting the Coulomb interaction                   ... done (   1.6 sec)
Reading the grid                                   ... done
Mapping shells                                     ... done
Starting the XC term evaluation                    ... done (   0.3 sec)
Transforming the Hamiltonian                       ... done (   0.1 sec)
Diagonalizing the Hamiltonian                      ... done (   0.2 sec)
Back transforming the eigenvectors                 ... done (   0.0 sec)
Now organizing SCF variables                       ... done
                      ------------------
                      INITIAL GUESS DONE (   3.6 sec)
                      ------------------
--------------
SCF ITERATIONS
--------------
ITER       Energy         Delta-E        Max-DP      RMS-DP      [F,P]     Damp
               ***  Starting incremental Fock matrix formation  ***
  0  -2121.6746176063   0.000000000000 0.06902164  0.00120861  0.2329757 0.7000
  1  -2122.3398774074  -0.665259801079 0.05237241  0.00098018  0.1441553 0.7000
                               ***Turning on DIIS***
  2  -2122.7529680524  -0.413090644985 0.11607519  0.00221999  0.0802584 0.0000
  3  -2117.7342553027   5.018712749661 0.03038058  0.00068128  0.0442632 0.0000
  4  -2123.4152910500  -5.681035747246 0.00876339  0.00022815  0.0070060 0.0000
  5  -2123.5946602400  -0.179369190026 0.00506959  0.00013499  0.0049047 0.0000
  6  -2123.5769148416   0.017745398400 0.00330245  0.00008783  0.0019115 0.0000
  7  -2123.6813649975  -0.104450155934 0.00278137  0.00006962  0.0014876 0.0000
  8  -2123.7003744477  -0.019009450121 0.00279108  0.00006577  0.0013832 0.0000
  9  -2123.6642747215   0.036099726211 0.00226277  0.00004506  0.0010857 0.0000
 10  -2123.6789488879  -0.014674166448 0.00472739  0.00008882  0.0008235 0.0000
                      *** Initiating the SOSCF procedure ***
                           *** Shutting down DIIS ***
                      *** Re-Reading the Fockian *** 
                      *** Removing any level shift *** 
ITER      Energy       Delta-E        Grad      Rot      Max-DP    RMS-DP
 11  -2123.56048360   0.1184652867  0.000324  0.000324  0.000295  0.000007
               *** Restarting incremental Fock matrix formation ***
 12  -2123.62565302  -0.0651694182  0.000924  0.006267  0.001047  0.000026
 13  -2123.62571430  -0.0000612756  0.000964  0.024013  0.004221  0.000082
 14  -2123.62578347  -0.0000691783  0.000440  0.002577  0.000480  0.000012
 15  -2123.62579366  -0.0000101897  0.000112  0.001387  0.000376  0.000007
 16  -2123.62579659  -0.0000029228  0.000090  0.002228  0.000570  0.000010
 17  -2123.62579877  -0.0000021795  0.000105  0.002279  0.000428  0.000007
 18  -2123.62579968  -0.0000009136  0.000063  0.001424  0.000288  0.000005
 19  -2123.62580039  -0.0000007156  0.000054  0.000891  0.000166  0.000003
 20  -2123.62580069  -0.0000002974  0.000024  0.000375  0.000073  0.000002
 21  -2123.62580077  -0.0000000813  0.000015  0.000410  0.000073  0.000001
 22  -2123.62580083  -0.0000000569  0.000015  0.000372  0.000064  0.000001
 23  -2123.62580087  -0.0000000389  0.000013  0.000201  0.000056  0.000001
 24  -2123.62580089  -0.0000000183  0.000007  0.000040  0.000017  0.000000
 25  -2123.62580090  -0.0000000169  0.000003  0.000043  0.000015  0.000000
 26  -2123.62580091  -0.0000000056  0.000003  0.000054  0.000013  0.000000
                  ***Gradient check signals convergence***
              ***Rediagonalizing the Fockian in SOSCF/NRSCF***

               *****************************************************
               *                     SUCCESS                       *
               *           SCF CONVERGED AFTER  27 CYCLES          *
               *****************************************************


----------------
TOTAL SCF ENERGY
----------------

Total Energy       :        -2123.62580090 Eh          -57786.79587 eV

Components:
Nuclear Repulsion  :         6224.83283184 Eh          169386.31279 eV
Electronic Energy  :        -8348.45863275 Eh         -227173.10865 eV
One Electron Energy:       -15290.84622415 Eh         -416085.07912 eV
Two Electron Energy:         6942.38759140 Eh          188911.97046 eV

Virial components:
Potential Energy   :        -4245.61947485 Eh         -115529.17930 eV
Kinetic Energy     :         2121.99367394 Eh           57742.38343 eV
Virial Ratio       :            2.00076915


---------------
SCF CONVERGENCE
---------------

  Last Energy change         ...    6.5338e-09  Tolerance :   1.0000e-08
  Last MAX-Density change    ...    1.3973e-05  Tolerance :   1.0000e-07
  Last RMS-Density change    ...    2.1727e-07  Tolerance :   5.0000e-09
  Last Orbital Gradient      ...    2.2097e-06  Tolerance :   1.0000e-05
  Last Orbital Rotation      ...    6.3470e-05  Tolerance :   1.0000e-05

             **** THE GBW FILE WAS UPDATED (/scratch/chu_02/allen/tmpyp4_amber_gaff2/conf1/conf1/Conf302.orca.gbw) ****
             **** DENSITY /scratch/chu_02/allen/tmpyp4_amber_gaff2/conf1/conf1/Conf302.orca.scfp WAS UPDATED ****
             **** ENERGY FILE WAS UPDATED (/scratch/chu_02/allen/tmpyp4_amber_gaff2/conf1/conf1/Conf302.orca.en.tmp) ****
             **** THE GBW FILE WAS UPDATED (/scratch/chu_02/allen/tmpyp4_amber_gaff2/conf1/conf1/Conf302.orca.gbw) ****
             **** DENSITY /scratch/chu_02/allen/tmpyp4_amber_gaff2/conf1/conf1/Conf302.orca.scfp WAS UPDATED ****
----------------
ORBITAL ENERGIES
----------------

  NO   OCC          E(Eh)            E(eV) 
   0   2.0000     -15.639973      -425.5853 
   1   2.0000     -15.639621      -425.5757 
   2   2.0000     -15.628706      -425.2787 
   3   2.0000     -15.623477      -425.1364 
   4   2.0000     -15.518937      -422.2918 
   5   2.0000     -15.515529      -422.1990 
   6   2.0000     -15.444188      -420.2577 
   7   2.0000     -15.443968      -420.2517 
   8   2.0000     -11.303196      -307.5756 
   9   2.0000     -11.302745      -307.5633 
  10   2.0000     -11.296649      -307.3974 
  11   2.0000     -11.295982      -307.3793 
  12   2.0000     -11.295076      -307.3546 
  13   2.0000     -11.294125      -307.3288 
  14   2.0000     -11.293969      -307.3245 
  15   2.0000     -11.293285      -307.3059 
  16   2.0000     -11.285846      -307.1035 
  17   2.0000     -11.285409      -307.0916 
  18   2.0000     -11.282819      -307.0211 
  19   2.0000     -11.281508      -306.9854 
  20   2.0000     -11.244322      -305.9735 
  21   2.0000     -11.242974      -305.9369 
  22   2.0000     -11.234948      -305.7185 
  23   2.0000     -11.234737      -305.7127 
  24   2.0000     -11.234103      -305.6955 
  25   2.0000     -11.234074      -305.6947 
  26   2.0000     -11.233044      -305.6667 
  27   2.0000     -11.229642      -305.5741 
  28   2.0000     -11.226573      -305.4906 
  29   2.0000     -11.226460      -305.4875 
  30   2.0000     -11.222932      -305.3915 
  31   2.0000     -11.222746      -305.3864 
  32   2.0000     -11.200729      -304.7873 
  33   2.0000     -11.200247      -304.7742 
  34   2.0000     -11.194038      -304.6053 
  35   2.0000     -11.193649      -304.5947 
  36   2.0000     -11.172404      -304.0166 
  37   2.0000     -11.172307      -304.0139 
  38   2.0000     -11.171310      -303.9868 
  39   2.0000     -11.171070      -303.9803 
  40   2.0000     -11.170328      -303.9601 
  41   2.0000     -11.169848      -303.9470 
  42   2.0000     -11.166446      -303.8544 
  43   2.0000     -11.166425      -303.8539 
  44   2.0000     -11.160435      -303.6909 
  45   2.0000     -11.159056      -303.6534 
  46   2.0000     -11.152648      -303.4790 
  47   2.0000     -11.151146      -303.4381 
  48   2.0000     -11.143114      -303.2196 
  49   2.0000     -11.141983      -303.1888 
  50   2.0000     -11.141091      -303.1645 
  51   2.0000     -11.139578      -303.1233 
  52   2.0000      -1.326377       -36.0925 
  53   2.0000      -1.326004       -36.0824 
  54   2.0000      -1.316558       -35.8254 
  55   2.0000      -1.312740       -35.7215 
  56   2.0000      -1.217848       -33.1393 
  57   2.0000      -1.212487       -32.9934 
  58   2.0000      -1.161421       -31.6039 
  59   2.0000      -1.156964       -31.4826 
  60   2.0000      -1.115698       -30.3597 
  61   2.0000      -1.113116       -30.2894 
  62   2.0000      -1.105588       -30.0846 
  63   2.0000      -1.102205       -29.9925 
  64   2.0000      -1.050370       -28.5820 
  65   2.0000      -1.049801       -28.5665 
  66   2.0000      -1.041115       -28.3302 
  67   2.0000      -1.037771       -28.2392 
  68   2.0000      -1.026602       -27.9353 
  69   2.0000      -1.009732       -27.4762 
  70   2.0000      -1.009284       -27.4640 
  71   2.0000      -0.998089       -27.1594 
  72   2.0000      -0.982072       -26.7235 
  73   2.0000      -0.975765       -26.5519 
  74   2.0000      -0.968789       -26.3621 
  75   2.0000      -0.960322       -26.1317 
  76   2.0000      -0.952480       -25.9183 
  77   2.0000      -0.942190       -25.6383 
  78   2.0000      -0.940627       -25.5958 
  79   2.0000      -0.923382       -25.1265 
  80   2.0000      -0.892832       -24.2952 
  81   2.0000      -0.877815       -23.8866 
  82   2.0000      -0.875883       -23.8340 
  83   2.0000      -0.868598       -23.6358 
  84   2.0000      -0.865292       -23.5458 
  85   2.0000      -0.856980       -23.3196 
  86   2.0000      -0.847213       -23.0538 
  87   2.0000      -0.844854       -22.9896 
  88   2.0000      -0.821718       -22.3601 
  89   2.0000      -0.798460       -21.7272 
  90   2.0000      -0.797760       -21.7081 
  91   2.0000      -0.739214       -20.1150 
  92   2.0000      -0.728931       -19.8352 
  93   2.0000      -0.728882       -19.8339 
  94   2.0000      -0.720619       -19.6090 
  95   2.0000      -0.720115       -19.5953 
  96   2.0000      -0.712030       -19.3753 
  97   2.0000      -0.709671       -19.3111 
  98   2.0000      -0.698415       -19.0048 
  99   2.0000      -0.692377       -18.8405 
 100   2.0000      -0.683748       -18.6057 
 101   2.0000      -0.680186       -18.5088 
 102   2.0000      -0.679362       -18.4864 
 103   2.0000      -0.673497       -18.3268 
 104   2.0000      -0.667772       -18.1710 
 105   2.0000      -0.667462       -18.1626 
 106   2.0000      -0.663243       -18.0477 
 107   2.0000      -0.658561       -17.9204 
 108   2.0000      -0.657945       -17.9036 
 109   2.0000      -0.654046       -17.7975 
 110   2.0000      -0.652759       -17.7625 
 111   2.0000      -0.650898       -17.7118 
 112   2.0000      -0.647881       -17.6297 
 113   2.0000      -0.645149       -17.5554 
 114   2.0000      -0.634775       -17.2731 
 115   2.0000      -0.622954       -16.9514 
 116   2.0000      -0.617029       -16.7902 
 117   2.0000      -0.616556       -16.7773 
 118   2.0000      -0.610372       -16.6091 
 119   2.0000      -0.608505       -16.5583 
 120   2.0000      -0.608239       -16.5510 
 121   2.0000      -0.605220       -16.4689 
 122   2.0000      -0.603312       -16.4169 
 123   2.0000      -0.593929       -16.1616 
 124   2.0000      -0.585861       -15.9421 
 125   2.0000      -0.585146       -15.9226 
 126   2.0000      -0.578298       -15.7363 
 127   2.0000      -0.575006       -15.6467 
 128   2.0000      -0.570902       -15.5350 
 129   2.0000      -0.561828       -15.2881 
 130   2.0000      -0.553767       -15.0688 
 131   2.0000      -0.542482       -14.7617 
 132   2.0000      -0.540930       -14.7195 
 133   2.0000      -0.535158       -14.5624 
 134   2.0000      -0.533870       -14.5274 
 135   2.0000      -0.531059       -14.4508 
 136   2.0000      -0.523956       -14.2576 
 137   2.0000      -0.523385       -14.2420 
 138   2.0000      -0.516908       -14.0658 
 139   2.0000      -0.516619       -14.0579 
 140   2.0000      -0.509319       -13.8593 
 141   2.0000      -0.506081       -13.7712 
 142   2.0000      -0.504124       -13.7179 
 143   2.0000      -0.503599       -13.7036 
 144   2.0000      -0.498998       -13.5784 
 145   2.0000      -0.497763       -13.5448 
 146   2.0000      -0.496526       -13.5111 
 147   2.0000      -0.493365       -13.4252 
 148   2.0000      -0.490994       -13.3606 
 149   2.0000      -0.468754       -12.7554 
 150   2.0000      -0.460167       -12.5218 
 151   2.0000      -0.451001       -12.2724 
 152   2.0000      -0.448167       -12.1952 
 153   2.0000      -0.445919       -12.1341 
 154   2.0000      -0.445045       -12.1103 
 155   2.0000      -0.439584       -11.9617 
 156   2.0000      -0.434955       -11.8357 
 157   2.0000      -0.432064       -11.7571 
 158   2.0000      -0.390576       -10.6281 
 159   2.0000      -0.381152       -10.3717 
 160   2.0000      -0.379940       -10.3387 
 161   2.0000      -0.373114       -10.1529 
 162   2.0000      -0.360720        -9.8157 
 163   2.0000      -0.360080        -9.7983 
 164   2.0000      -0.352771        -9.5994 
 165   2.0000      -0.349756        -9.5174 
 166   2.0000      -0.337280        -9.1778 
 167   2.0000      -0.332074        -9.0362 
 168   2.0000      -0.329326        -8.9614 
 169   2.0000      -0.300214        -8.1692 
 170   2.0000      -0.295373        -8.0375 
 171   2.0000      -0.289077        -7.8662 
 172   2.0000      -0.287346        -7.8191 
 173   2.0000      -0.254669        -6.9299 
 174   2.0000      -0.248008        -6.7486 
 175   2.0000      -0.187959        -5.1146 
 176   2.0000      -0.177791        -4.8379 
 177   2.0000      -0.066219        -1.8019 
 178   2.0000      -0.054644        -1.4869 
 179   0.0000       0.030999         0.8435 
 180   0.0000       0.070643         1.9223 
 181   0.0000       0.093115         2.5338 
 182   0.0000       0.097019         2.6400 
 183   0.0000       0.133624         3.6361 
 184   0.0000       0.133830         3.6417 
 185   0.0000       0.141859         3.8602 
 186   0.0000       0.145228         3.9518 
 187   0.0000       0.161178         4.3859 
 188   0.0000       0.161945         4.4067 
 189   0.0000       0.162328         4.4172 
 190   0.0000       0.167902         4.5688 
 191   0.0000       0.170110         4.6289 
 192   0.0000       0.201530         5.4839 
 193   0.0000       0.201946         5.4952 
 194   0.0000       0.205030         5.5791 
 195   0.0000       0.205699         5.5973 
 196   0.0000       0.208014         5.6603 
 197   0.0000       0.209700         5.7062 
 198   0.0000       0.211203         5.7471 
 199   0.0000       0.214090         5.8257 
 200   0.0000       0.235523         6.4089 
 201   0.0000       0.237614         6.4658 
 202   0.0000       0.242105         6.5880 
 203   0.0000       0.244748         6.6599 
 204   0.0000       0.253642         6.9020 
 205   0.0000       0.254193         6.9169 
 206   0.0000       0.258391         7.0312 
 207   0.0000       0.258707         7.0398 
 208   0.0000       0.261190         7.1073 
 209   0.0000       0.264380         7.1941 
 210   0.0000       0.268042         7.2938 
 211   0.0000       0.269513         7.3338 
 212   0.0000       0.273431         7.4404 
 213   0.0000       0.276189         7.5155 
 214   0.0000       0.278736         7.5848 
 215   0.0000       0.279752         7.6124 
 216   0.0000       0.281425         7.6580 
 217   0.0000       0.282946         7.6993 
 218   0.0000       0.283426         7.7124 
 219   0.0000       0.290368         7.9013 
 220   0.0000       0.291798         7.9402 
 221   0.0000       0.292407         7.9568 
 222   0.0000       0.292783         7.9670 
 223   0.0000       0.294703         8.0193 
 224   0.0000       0.299367         8.1462 
 225   0.0000       0.301626         8.2077 
 226   0.0000       0.303290         8.2529 
 227   0.0000       0.303461         8.2576 
 228   0.0000       0.305632         8.3167 
 229   0.0000       0.307472         8.3667 
 230   0.0000       0.313856         8.5405 
 231   0.0000       0.318046         8.6545 
 232   0.0000       0.326412         8.8821 
 233   0.0000       0.326558         8.8861 
 234   0.0000       0.332907         9.0589 
 235   0.0000       0.334670         9.1068 
 236   0.0000       0.356203         9.6928 
 237   0.0000       0.387158        10.5351 
 238   0.0000       0.395770        10.7695 
 239   0.0000       0.400692        10.9034 
 240   0.0000       0.405866        11.0442 
 241   0.0000       0.408797        11.1239 
 242   0.0000       0.422727        11.5030 
 243   0.0000       0.424037        11.5386 
 244   0.0000       0.432153        11.7595 
 245   0.0000       0.433085        11.7848 
 246   0.0000       0.437050        11.8927 
 247   0.0000       0.437919        11.9164 
 248   0.0000       0.439416        11.9571 
 249   0.0000       0.444079        12.0840 
 250   0.0000       0.444784        12.1032 
 251   0.0000       0.447361        12.1733 
 252   0.0000       0.455251        12.3880 
 253   0.0000       0.468322        12.7437 
 254   0.0000       0.471946        12.8423 
 255   0.0000       0.474891        12.9224 
 256   0.0000       0.480445        13.0736 
 257   0.0000       0.486956        13.2507 
 258   0.0000       0.489252        13.3132 
 259   0.0000       0.497436        13.5359 
 260   0.0000       0.502259        13.6672 
 261   0.0000       0.502718        13.6797 
 262   0.0000       0.506991        13.7959 
 263   0.0000       0.509278        13.8582 
 264   0.0000       0.511833        13.9277 
 265   0.0000       0.515047        14.0152 
 266   0.0000       0.516015        14.0415 
 267   0.0000       0.521236        14.1835 
 268   0.0000       0.536634        14.6026 
 269   0.0000       0.537504        14.6262 
 270   0.0000       0.540909        14.7189 
 271   0.0000       0.545613        14.8469 
 272   0.0000       0.548016        14.9123 
 273   0.0000       0.553299        15.0560 
 274   0.0000       0.560572        15.2540 
 275   0.0000       0.563495        15.3335 
 276   0.0000       0.573030        15.5930 
 277   0.0000       0.576836        15.6965 
 278   0.0000       0.581677        15.8282 
 279   0.0000       0.585599        15.9350 
 280   0.0000       0.589624        16.0445 
 281   0.0000       0.591394        16.0926 
 282   0.0000       0.594595        16.1797 
 283   0.0000       0.596550        16.2329 
 284   0.0000       0.599147        16.3036 
 285   0.0000       0.602646        16.3988 
 286   0.0000       0.603613        16.4251 
 287   0.0000       0.608593        16.5607 
 288   0.0000       0.610677        16.6174 
 289   0.0000       0.613929        16.7059 
 290   0.0000       0.617167        16.7940 
 291   0.0000       0.627630        17.0787 
 292   0.0000       0.640087        17.4177 
 293   0.0000       0.641262        17.4496 
 294   0.0000       0.642535        17.4843 
 295   0.0000       0.650206        17.6930 
 296   0.0000       0.658190        17.9103 
 297   0.0000       0.658723        17.9248 
 298   0.0000       0.661102        17.9895 
 299   0.0000       0.662824        18.0364 
 300   0.0000       0.672057        18.2876 
 301   0.0000       0.672731        18.3059 
 302   0.0000       0.677614        18.4388 
 303   0.0000       0.681456        18.5434 
 304   0.0000       0.682754        18.5787 
 305   0.0000       0.685186        18.6449 
 306   0.0000       0.689739        18.7687 
 307   0.0000       0.696567        18.9545 
 308   0.0000       0.697721        18.9860 
 309   0.0000       0.702991        19.1294 
 310   0.0000       0.703648        19.1472 
 311   0.0000       0.706195        19.2165 
 312   0.0000       0.707668        19.2566 
 313   0.0000       0.708566        19.2811 
 314   0.0000       0.710387        19.3306 
 315   0.0000       0.714463        19.4415 
 316   0.0000       0.716515        19.4974 
 317   0.0000       0.718181        19.5427 
 318   0.0000       0.719814        19.5871 
 319   0.0000       0.721820        19.6417 
 320   0.0000       0.723635        19.6911 
 321   0.0000       0.728681        19.8284 
 322   0.0000       0.729979        19.8637 
 323   0.0000       0.734039        19.9742 
 324   0.0000       0.739844        20.1322 
 325   0.0000       0.742568        20.2063 
 326   0.0000       0.744887        20.2694 
 327   0.0000       0.746196        20.3050 
 328   0.0000       0.747647        20.3445 
 329   0.0000       0.749074        20.3834 
 330   0.0000       0.751848        20.4588 
 331   0.0000       0.753683        20.5088 
 332   0.0000       0.757125        20.6024 
 333   0.0000       0.761025        20.7086 
 334   0.0000       0.763717        20.7818 
 335   0.0000       0.768408        20.9094 
 336   0.0000       0.776064        21.1178 
 337   0.0000       0.779296        21.2057 
 338   0.0000       0.784988        21.3606 
 339   0.0000       0.785847        21.3840 
 340   0.0000       0.791921        21.5493 
 341   0.0000       0.793342        21.5879 
 342   0.0000       0.796950        21.6861 
 343   0.0000       0.798883        21.7387 
 344   0.0000       0.802954        21.8495 
 345   0.0000       0.808069        21.9887 
 346   0.0000       0.811470        22.0812 
 347   0.0000       0.812316        22.1042 
 348   0.0000       0.813612        22.1395 
 349   0.0000       0.816179        22.2094 
 350   0.0000       0.819011        22.2864 
 351   0.0000       0.822619        22.3846 
 352   0.0000       0.824770        22.4431 
 353   0.0000       0.827858        22.5272 
 354   0.0000       0.830945        22.6112 
 355   0.0000       0.833073        22.6691 
 356   0.0000       0.834614        22.7110 
 357   0.0000       0.836708        22.7680 
 358   0.0000       0.837106        22.7788 
 359   0.0000       0.838127        22.8066 
 360   0.0000       0.840371        22.8676 
 361   0.0000       0.841189        22.8899 
 362   0.0000       0.843113        22.9423 
 363   0.0000       0.844952        22.9923 
 364   0.0000       0.846246        23.0275 
 365   0.0000       0.848235        23.0816 
 366   0.0000       0.849166        23.1070 
 367   0.0000       0.853630        23.2284 
 368   0.0000       0.858647        23.3650 
 369   0.0000       0.860320        23.4105 
 370   0.0000       0.865138        23.5416 
 371   0.0000       0.866868        23.5887 
 372   0.0000       0.869966        23.6730 
 373   0.0000       0.876935        23.8626 
 374   0.0000       0.879227        23.9250 
 375   0.0000       0.880349        23.9555 
 376   0.0000       0.884832        24.0775 
 377   0.0000       0.890021        24.2187 
 378   0.0000       0.896078        24.3835 
 379   0.0000       0.896685        24.4000 
 380   0.0000       0.899854        24.4863 
 381   0.0000       0.901320        24.5262 
 382   0.0000       0.903623        24.5888 
 383   0.0000       0.904128        24.6026 
 384   0.0000       0.905210        24.6320 
 385   0.0000       0.906977        24.6801 
 386   0.0000       0.909594        24.7513 
 387   0.0000       0.910167        24.7669 
 388   0.0000       0.913382        24.8544 
 389   0.0000       0.914546        24.8861 
 390   0.0000       0.916988        24.9525 
 391   0.0000       0.919834        25.0300 
 392   0.0000       0.923580        25.1319 
 393   0.0000       0.924624        25.1603 
 394   0.0000       0.925850        25.1937 
 395   0.0000       0.931945        25.3595 
 396   0.0000       0.932570        25.3765 
 397   0.0000       0.937653        25.5148 
 398   0.0000       0.938759        25.5449 
 399   0.0000       0.941271        25.6133 
 400   0.0000       0.941869        25.6296 
 401   0.0000       0.945473        25.7276 
 402   0.0000       0.947807        25.7911 
 403   0.0000       0.951041        25.8791 
 404   0.0000       0.952516        25.9193 
 405   0.0000       0.955676        26.0053 
 406   0.0000       0.957169        26.0459 
 407   0.0000       0.964152        26.2359 
 408   0.0000       0.967592        26.3295 
 409   0.0000       0.970107        26.3980 
 410   0.0000       0.971674        26.4406 
 411   0.0000       0.976222        26.5644 
 412   0.0000       0.982946        26.7473 
 413   0.0000       0.986019        26.8309 
 414   0.0000       0.989383        26.9225 
 415   0.0000       0.990014        26.9396 
 416   0.0000       0.999443        27.1962 
 417   0.0000       1.000635        27.2287 
 418   0.0000       1.008519        27.4432 
 419   0.0000       1.013810        27.5872 
 420   0.0000       1.024714        27.8839 
 421   0.0000       1.025171        27.8963 
 422   0.0000       1.032185        28.0872 
 423   0.0000       1.038684        28.2640 
 424   0.0000       1.045283        28.4436 
 425   0.0000       1.049400        28.5556 
 426   0.0000       1.051123        28.6025 
 427   0.0000       1.062756        28.9191 
 428   0.0000       1.065062        28.9818 
 429   0.0000       1.074945        29.2507 
 430   0.0000       1.077897        29.3311 
 431   0.0000       1.079822        29.3835 
 432   0.0000       1.086631        29.5687 
 433   0.0000       1.090687        29.6791 
 434   0.0000       1.092475        29.7277 
 435   0.0000       1.106248        30.1025 
 436   0.0000       1.108238        30.1567 
 437   0.0000       1.111003        30.2319 
 438   0.0000       1.115994        30.3677 
 439   0.0000       1.119574        30.4651 
 440   0.0000       1.120230        30.4830 
 441   0.0000       1.124928        30.6108 
 442   0.0000       1.130891        30.7731 
 443   0.0000       1.132229        30.8095 
 444   0.0000       1.133884        30.8546 
 445   0.0000       1.134731        30.8776 
 446   0.0000       1.136827        30.9346 
 447   0.0000       1.138741        30.9867 
 448   0.0000       1.144332        31.1389 
 449   0.0000       1.145900        31.1815 
 450   0.0000       1.150082        31.2953 
 451   0.0000       1.152351        31.3571 
 452   0.0000       1.153771        31.3957 
 453   0.0000       1.157167        31.4881 
 454   0.0000       1.160180        31.5701 
 455   0.0000       1.165345        31.7106 
 456   0.0000       1.175884        31.9974 
 457   0.0000       1.177852        32.0510 
 458   0.0000       1.181584        32.1525 
 459   0.0000       1.184303        32.2265 
 460   0.0000       1.187453        32.3122 
 461   0.0000       1.191006        32.4089 
 462   0.0000       1.198810        32.6213 
 463   0.0000       1.205413        32.8010 
 464   0.0000       1.207081        32.8463 
 465   0.0000       1.208647        32.8890 
 466   0.0000       1.215772        33.0828 
 467   0.0000       1.216369        33.0991 
 468   0.0000       1.221975        33.2516 
 469   0.0000       1.229300        33.4510 
 470   0.0000       1.235188        33.6112 
 471   0.0000       1.235223        33.6121 
 472   0.0000       1.236790        33.6548 
 473   0.0000       1.242050        33.7979 
 474   0.0000       1.243119        33.8270 
 475   0.0000       1.245742        33.8984 
 476   0.0000       1.250542        34.0290 
 477   0.0000       1.252041        34.0698 
 478   0.0000       1.255406        34.1613 
 479   0.0000       1.257165        34.2092 
 480   0.0000       1.258141        34.2358 
 481   0.0000       1.263513        34.3819 
 482   0.0000       1.267865        34.5004 
 483   0.0000       1.270034        34.5594 
 484   0.0000       1.276356        34.7314 
 485   0.0000       1.277713        34.7683 
 486   0.0000       1.283206        34.9178 
 487   0.0000       1.285929        34.9919 
 488   0.0000       1.289782        35.0967 
 489   0.0000       1.290395        35.1134 
 490   0.0000       1.293059        35.1859 
 491   0.0000       1.299514        35.3616 
 492   0.0000       1.304077        35.4857 
 493   0.0000       1.309024        35.6203 
 494   0.0000       1.313449        35.7408 
 495   0.0000       1.316968        35.8365 
 496   0.0000       1.317917        35.8623 
 497   0.0000       1.323045        36.0019 
 498   0.0000       1.326047        36.0836 
 499   0.0000       1.330568        36.2066 
 500   0.0000       1.332805        36.2675 
 501   0.0000       1.336626        36.3714 
 502   0.0000       1.340736        36.4833 
 503   0.0000       1.343864        36.5684 
 504   0.0000       1.350632        36.7526 
 505   0.0000       1.352377        36.8001 
 506   0.0000       1.354843        36.8672 
 507   0.0000       1.355668        36.8896 
 508   0.0000       1.357561        36.9411 
 509   0.0000       1.360927        37.0327 
[...]
 76 H s       :     0.891632  s :     0.891632
      pz      :     0.021971  p :     0.079571
      px      :     0.043303
      py      :     0.014296
 77 H s       :     0.889084  s :     0.889084
      pz      :     0.047629  p :     0.078891
      px      :     0.015012
      py      :     0.016250
 78 H s       :     0.889500  s :     0.889500
      pz      :     0.025703  p :     0.078828
      px      :     0.020557
      py      :     0.032568
 79 H s       :     0.908980  s :     0.908980
      pz      :     0.022095  p :     0.086706
      px      :     0.021768
      py      :     0.042843
 80 H s       :     0.870798  s :     0.870798
      pz      :     0.038872  p :     0.084123
      px      :     0.029933
      py      :     0.015318
 81 H s       :     0.887159  s :     0.887159
      pz      :     0.037759  p :     0.083866
      px      :     0.016138
      py      :     0.029969
 82 H s       :     0.915293  s :     0.915293
      pz      :     0.022134  p :     0.086859
      px      :     0.031353
      py      :     0.033372
 83 H s       :     0.872712  s :     0.872712
      pz      :     0.039249  p :     0.083986
      px      :     0.015255
      py      :     0.029482
 84 H s       :     0.887152  s :     0.887152
      pz      :     0.035788  p :     0.083722
      px      :     0.031724
      py      :     0.016209
 85 H s       :     0.893705  s :     0.893705
      pz      :     0.022499  p :     0.079731
      px      :     0.014089
      py      :     0.043143
 86 H s       :     0.890750  s :     0.890750
      pz      :     0.024725  p :     0.078862
      px      :     0.032996
      py      :     0.021141
 87 H s       :     0.890126  s :     0.890126
      pz      :     0.047970  p :     0.078708
      px      :     0.015608
      py      :     0.015130
 88 H s       :     0.913915  s :     0.913915
      pz      :     0.022075  p :     0.086961
      px      :     0.042514
      py      :     0.022372
 89 H s       :     0.872043  s :     0.872043
      pz      :     0.037926  p :     0.083918
      px      :     0.030507
      py      :     0.015484


                      *****************************
                      * MAYER POPULATION ANALYSIS *
                      *****************************

  NA   - Mulliken gross atomic population
  ZA   - Total nuclear charge
  QA   - Mulliken gross atomic charge
  VA   - Mayer's total valence
  BVA  - Mayer's bonded valence
  FA   - Mayer's free valence

  ATOM       NA         ZA         QA         VA         BVA        FA
  0 C      5.7940     6.0000     0.2060     3.8312     3.8312    -0.0000
  1 N      7.4431     7.0000    -0.4431     3.3643     3.3643    -0.0000
  2 C      6.0651     6.0000    -0.0651     3.9180     3.9180    -0.0000
  3 N      7.3379     7.0000    -0.3379     3.4459     3.4459    -0.0000
  4 C      6.0746     6.0000    -0.0746     3.9841     3.9841     0.0000
  5 N      7.5620     7.0000    -0.5620     3.0863     3.0863    -0.0000
  6 C      6.0631     6.0000    -0.0631     3.9971     3.9971    -0.0000
  7 N      7.3384     7.0000    -0.3384     3.4399     3.4399     0.0000
  8 C      5.7967     6.0000     0.2033     3.8282     3.8282    -0.0000
  9 N      7.5630     7.0000    -0.5630     3.0838     3.0838     0.0000
 10 C      5.8850     6.0000     0.1150     3.8963     3.8963    -0.0000
 11 N      7.4373     7.0000    -0.4373     3.3851     3.3851    -0.0000
 12 C      6.0690     6.0000    -0.0690     3.9169     3.9169    -0.0000
 13 N      7.4386     7.0000    -0.4386     3.3844     3.3844    -0.0000
 14 C      5.7652     6.0000     0.2348     3.7928     3.7928     0.0000
 15 N      7.4407     7.0000    -0.4407     3.3716     3.3716    -0.0000
 16 C      5.7652     6.0000     0.2348     3.7889     3.7889    -0.0000
 17 C      6.0686     6.0000    -0.0686     3.9957     3.9957     0.0000
 18 C      6.1939     6.0000    -0.1939     3.7508     3.7508     0.0000
 19 C      5.7750     6.0000     0.2250     3.8781     3.8781    -0.0000
 20 C      5.7910     6.0000     0.2090     3.8253     3.8253     0.0000
 21 C      6.0769     6.0000    -0.0769     3.9065     3.9065    -0.0000
 22 C      6.0860     6.0000    -0.0860     3.9833     3.9833    -0.0000
 23 C      6.0482     6.0000    -0.0482     3.9901     3.9901     0.0000
 24 C      5.7946     6.0000     0.2054     3.8232     3.8232     0.0000
 25 C      5.8863     6.0000     0.1137     3.8895     3.8895     0.0000
 26 C      6.0732     6.0000    -0.0732     3.9032     3.9032    -0.0000
 27 C      5.7782     6.0000     0.2218     3.8814     3.8814    -0.0000
 28 C      6.0529     6.0000    -0.0529     3.9880     3.9880    -0.0000
 29 C      6.1849     6.0000    -0.1849     3.7357     3.7357    -0.0000
 30 C      5.7634     6.0000     0.2366     3.7931     3.7931     0.0000
 31 C      5.7867     6.0000     0.2133     3.8261     3.8261    -0.0000
 32 C      6.0645     6.0000    -0.0645     3.9185     3.9185    -0.0000
 33 C      6.0790     6.0000    -0.0790     3.9830     3.9830     0.0000
 34 C      6.0498     6.0000    -0.0498     3.9911     3.9911     0.0000
 35 C      5.7935     6.0000     0.2065     3.8239     3.8239     0.0000
 36 C      5.8865     6.0000     0.1135     3.8897     3.8897     0.0000
 37 C      6.0663     6.0000    -0.0663     3.9176     3.9176    -0.0000
 38 C      5.7632     6.0000     0.2368     3.7998     3.7998     0.0000
 39 C      6.0614     6.0000    -0.0614     3.9902     3.9902    -0.0000
 40 C      6.1882     6.0000    -0.1882     3.7393     3.7393     0.0000
 41 C      5.7793     6.0000     0.2207     3.8815     3.8815     0.0000
 42 C      5.7974     6.0000     0.2026     3.8274     3.8274    -0.0000
 43 C      6.0737     6.0000    -0.0737     3.9028     3.9028     0.0000
 44 C      6.0891     6.0000    -0.0891     3.9854     3.9854     0.0000
 45 C      6.0537     6.0000    -0.0537     3.9925     3.9925     0.0000
 46 C      5.7960     6.0000     0.2040     3.8259     3.8259     0.0000
 47 C      5.8844     6.0000     0.1156     3.8937     3.8937     0.0000
 48 C      6.0742     6.0000    -0.0742     3.9043     3.9043    -0.0000
 49 C      5.7730     6.0000     0.2270     3.8851     3.8851     0.0000
 50 C      6.0522     6.0000    -0.0522     3.9902     3.9902     0.0000
 51 C      6.1905     6.0000    -0.1905     3.7371     3.7371     0.0000
 52 H      0.9473     1.0000     0.0527     0.9852     0.9852    -0.0000
 53 H      1.0144     1.0000    -0.0144     0.9991     0.9991    -0.0000
 54 H      0.9554     1.0000     0.0446     1.0104     1.0104     0.0000
 55 H      0.9488     1.0000     0.0512     0.9858     0.9858    -0.0000
 56 H      0.9422     1.0000     0.0578     0.9712     0.9712     0.0000
 57 H      0.9443     1.0000     0.0557     0.9830     0.9830    -0.0000
 58 H      0.9448     1.0000     0.0552     0.9861     0.9861    -0.0000
 59 H      1.0122     1.0000    -0.0122     1.0003     1.0003    -0.0000
 60 H      0.9545     1.0000     0.0455     1.0077     1.0077     0.0000
 61 H      0.8275     1.0000     0.1725     1.0424     1.0424     0.0000
 62 H      0.8268     1.0000     0.1732     1.0435     1.0435     0.0000
 63 H      0.9429     1.0000     0.0571     0.9854     0.9854     0.0000
 64 H      1.0185     1.0000    -0.0185     0.9949     0.9949    -0.0000
 65 H      0.9535     1.0000     0.0465     1.0093     1.0093     0.0000
 66 H      0.9423     1.0000     0.0577     0.9850     0.9850    -0.0000
 67 H      0.9367     1.0000     0.0633     0.9720     0.9720    -0.0000
 68 H      0.9417     1.0000     0.0583     0.9867     0.9867    -0.0000
 69 H      0.9411     1.0000     0.0589     0.9830     0.9830     0.0000
 70 H      1.0250     1.0000    -0.0250     0.9938     0.9938    -0.0000
 71 H      0.9518     1.0000     0.0482     1.0065     1.0065    -0.0000
 72 H      0.9421     1.0000     0.0579     0.9848     0.9848    -0.0000
 73 H      1.0135     1.0000    -0.0135     0.9989     0.9989     0.0000
 74 H      0.9519     1.0000     0.0481     1.0100     1.0100     0.0000
 75 H      0.9430     1.0000     0.0570     0.9854     0.9854     0.0000
 76 H      0.9367     1.0000     0.0633     0.9716     0.9716    -0.0000
 77 H      0.9408     1.0000     0.0592     0.9851     0.9851     0.0000
 78 H      0.9417     1.0000     0.0583     0.9848     0.9848     0.0000
 79 H      1.0139     1.0000    -0.0139     0.9993     0.9993    -0.0000
 80 H      0.9516     1.0000     0.0484     1.0070     1.0070    -0.0000
 81 H      0.9463     1.0000     0.0537     0.9855     0.9855    -0.0000
 82 H      1.0240     1.0000    -0.0240     0.9941     0.9941     0.0000
 83 H      0.9573     1.0000     0.0427     1.0092     1.0092     0.0000
 84 H      0.9469     1.0000     0.0531     0.9855     0.9855    -0.0000
 85 H      0.9409     1.0000     0.0591     0.9716     0.9716    -0.0000
 86 H      0.9439     1.0000     0.0561     0.9840     0.9840    -0.0000
 87 H      0.9433     1.0000     0.0567     0.9856     0.9856    -0.0000
 88 H      1.0213     1.0000    -0.0213     0.9946     0.9946    -0.0000
 89 H      0.9547     1.0000     0.0453     1.0068     1.0068     0.0000

  Mayer bond orders larger than 0.100000
B(  0-C ,  1-N ) :   1.1136 B(  0-C , 17-C ) :   1.6463 B(  0-C , 52-H ) :   0.9691 
B(  1-N ,  8-C ) :   1.1079 B(  1-N , 10-C ) :   0.9647 B(  2-C , 12-C ) :   1.5338 
B(  2-C , 16-C ) :   1.3256 B(  2-C , 53-H ) :   0.9777 B(  3-N , 14-C ) :   1.2047 
B(  3-N , 16-C ) :   1.1946 B(  3-N , 61-H ) :   0.8986 B(  4-C ,  6-C ) :   1.2578 
B(  4-C , 17-C ) :   1.2553 B(  4-C , 18-C ) :   1.2911 B(  5-N , 19-C ) :   1.4235 
B(  5-N , 27-C ) :   1.4024 B(  6-C ,  8-C ) :   1.6470 B(  6-C , 54-H ) :   0.9704 
B(  7-N , 30-C ) :   1.1925 B(  7-N , 38-C ) :   1.2007 B(  7-N , 62-H ) :   0.8981 
B(  8-C , 55-H ) :   0.9704 B(  9-N , 41-C ) :   1.4057 B(  9-N , 49-C ) :   1.4182 
B( 10-C , 56-H ) :   0.9763 B( 10-C , 57-H ) :   0.9825 B( 10-C , 58-H ) :   0.9831 
B( 11-N , 20-C ) :   1.1262 B( 11-N , 24-C ) :   1.1228 B( 11-N , 25-C ) :   0.9578 
B( 12-C , 14-C ) :   1.3280 B( 12-C , 59-H ) :   0.9769 B( 13-N , 31-C ) :   1.1285 
B( 13-N , 35-C ) :   1.1211 B( 13-N , 36-C ) :   0.9578 B( 14-C , 18-C ) :   1.1895 
B( 15-N , 42-C ) :   1.1147 B( 15-N , 46-C ) :   1.1153 B( 15-N , 47-C ) :   0.9623 
B( 16-C , 51-C ) :   1.1984 B( 17-C , 60-H ) :   0.9709 B( 18-C , 19-C ) :   1.2027 
B( 19-C , 21-C ) :   1.2168 B( 20-C , 28-C ) :   1.6223 B( 20-C , 63-H ) :   0.9702 
B( 21-C , 26-C ) :   1.6380 B( 21-C , 64-H ) :   0.9733 B( 22-C , 23-C ) :   1.2849 
B( 22-C , 28-C ) :   1.2750 B( 22-C , 29-C ) :   1.2267 B( 23-C , 24-C ) :   1.6172 
B( 23-C , 65-H ) :   0.9709 B( 24-C , 66-H ) :   0.9691 B( 25-C , 67-H ) :   0.9762 
B( 25-C , 68-H ) :   0.9829 B( 25-C , 69-H ) :   0.9821 B( 26-C , 27-C ) :   1.2136 
B( 26-C , 70-H ) :   0.9730 B( 27-C , 29-C ) :   1.2264 B( 28-C , 71-H ) :   0.9714 
B( 29-C , 30-C ) :   1.2171 B( 30-C , 32-C ) :   1.3069 B( 31-C , 39-C ) :   1.6260 
B( 31-C , 72-H ) :   0.9694 B( 32-C , 37-C ) :   1.5515 B( 32-C , 73-H ) :   0.9778 
B( 33-C , 34-C ) :   1.2790 B( 33-C , 39-C ) :   1.2717 B( 33-C , 40-C ) :   1.2407 
B( 34-C , 35-C ) :   1.6229 B( 34-C , 74-H ) :   0.9703 B( 35-C , 75-H ) :   0.9695 
B( 36-C , 76-H ) :   0.9763 B( 36-C , 77-H ) :   0.9820 B( 36-C , 78-H ) :   0.9830 
B( 37-C , 38-C ) :   1.3087 B( 37-C , 79-H ) :   0.9777 B( 38-C , 40-C ) :   1.2122 
B( 39-C , 80-H ) :   0.9714 B( 40-C , 41-C ) :   1.2209 B( 41-C , 43-C ) :   1.2127 
B( 42-C , 50-C ) :   1.6338 B( 42-C , 81-H ) :   0.9696 B( 43-C , 48-C ) :   1.6387 
B( 43-C , 82-H ) :   0.9735 B( 44-C , 45-C ) :   1.2696 B( 44-C , 50-C ) :   1.2673 
B( 44-C , 51-C ) :   1.2568 B( 45-C , 46-C ) :   1.6330 B( 45-C , 83-H ) :   0.9712 
B( 46-C , 84-H ) :   0.9702 B( 47-C , 85-H ) :   0.9761 B( 47-C , 86-H ) :   0.9828 
B( 47-C , 87-H ) :   0.9826 B( 48-C , 49-C ) :   1.2129 B( 48-C , 88-H ) :   0.9739 
B( 49-C , 51-C ) :   1.2188 B( 50-C , 89-H ) :   0.9713 

-------
TIMINGS
-------

Total SCF time: 0 days 0 hours 41 min 2 sec 

Total time                  ....    2462.207 sec
Sum of individual times     ....    2459.252 sec  ( 99.9%)

Fock matrix formation       ....    2441.900 sec  ( 99.2%)
Diagonalization             ....       4.745 sec  (  0.2%)
Density matrix formation    ....       0.478 sec  (  0.0%)
Population analysis         ....       0.304 sec  (  0.0%)
Initial guess               ....       2.292 sec  (  0.1%)
Orbital Transformation      ....       0.000 sec  (  0.0%)
Orbital Orthonormalization  ....       0.000 sec  (  0.0%)
DIIS solution               ....       2.609 sec  (  0.1%)
SOSCF solution              ....       5.582 sec  (  0.2%)

Maximum memory used throughout the entire SCF-calculation: 304.1 MB


           ************************************************************
           *        Program running with 8 parallel MPI-processes     *
           *              working on a common directory               *
           ************************************************************

------------------------------------------------------------------------------
                                ORCA  MP2 
------------------------------------------------------------------------------

Freezing NCore=104 chemical core electrons

----------
MP2 ENERGY (disk based algorithm)
----------

Dimension of the basis                    ...  918
Memory devoted to MP2                     ... 7000 MB   
Data format for buffers                   ... DOUBLE
Compression type for matrix containers    ... UNCOMPRESSED

-------------------------------
PARTIAL EXCHANGE TRANSFORMATION
-------------------------------

Transformation type                        ... one-operator
Generation of integrals (i,mue|j,nue)      ... ON
Generation of integrals (mue,kappa|nue,tau)... OFF
Generation of integrals (i,mue|a,nue)      ... OFF
Dimension of the basis                     ...  918
Number of internal MOs                     ...  127 (  52- 178)
Pair cutoff                                ... 2.500e-12 Eh
Number of AO pairs in the trafo            ... 421821
Total Number of distinct AO pairs          ... 421821
Memory devoted for trafo                   ... 7000.0 MB 
Max. Number of MO pairs treated together   ... 1088      
Number Format for Storage                  ... Double (8 Byte)
Integral package used                      ... LIBINT

Starting integral evaluation:
    ... done with AO integral generation
Closing buffer AOK     (38.32 GB; CompressionRatio= 1.32)
Collecting buffer AOK 
Number of MO pairs included in the trafo   ... 8128
------------------------
SORTING OF (i,mue|j,nue)
------------------------

IBATCH = 1 of  1
Closing buffer KAO     (51.03 GB; CompressionRatio= 1.00)
Collecting buffer KAO 
N(AO-Batches) Done                         ... 172540396 
N(AO-Batches) Skipped                      ... 168673597 
N(IJ)-pairs Skipped                        ...         0 
TOTAL TIME for half transformation         ...  1426.674 sec
AO-integral generation                     ...   255.888 sec
Half transformation                        ...   485.716 sec
K-integral sorting                         ...   388.769 sec

Finished integral transformation - now doing MP2 part

OPERATOR COMBINATION   0   0: ij=( 52..178, 52..178)
Process 5:   Internal MO 132
Process 2:   Internal MO  84
Process 0:   Internal MO  54
Process 0:   Internal MO  57
Process 1:   Internal MO  69
Process 0:   Internal MO  60
Process 4:   Internal MO 117
Process 0:   Internal MO  63
Process 1:   Internal MO  72
Process 3:   Internal MO 102
Process 2:   Internal MO  87
Process 0:   Internal MO  66
Process 1:   Internal MO  75
Process 7:   Internal MO 165
Process 6:   Internal MO 150
Process 2:   Internal MO  90
Process 5:   Internal MO 135
Process 1:   Internal MO  78
Process 4:   Internal MO 120
Process 3:   Internal MO 105
Process 2:   Internal MO  93
Process 1:   Internal MO  81
Process 3:   Internal MO 108
Process 2:   Internal MO  96
Process 5:   Internal MO 138
Process 6:   Internal MO 153
Process 7:   Internal MO 168
Process 4:   Internal MO 123
Process 2:   Internal MO  99
Process 3:   Internal MO 111
Process 4:   Internal MO 126
Process 5:   Internal MO 141
Process 3:   Internal MO 114
Process 6:   Internal MO 156
Process 7:   Internal MO 171
Process 4:   Internal MO 129
Process 5:   Internal MO 144
Process 6:   Internal MO 159
Process 7:   Internal MO 174
Process 5:   Internal MO 147
Process 6:   Internal MO 162
Process 7:   Internal MO 177
-----------------------------------------------
 MP2 CORRELATION ENERGY   :     -7.289551692 Eh
-----------------------------------------------


-------
TIMINGS
-------
Total time                : 1562.714 sec
Integral trafo            : 1432.016 sec ( 91.6%)
K(i,j)                    :    8.434 sec (  0.5%)
T(i,j)                    :    0.109 sec (  0.0%)

---------------------------------------
MP2 TOTAL ENERGY:    -2130.915352596 Eh
---------------------------------------

Maximum memory used throughout the entire MP2-calculation: 6735.7 MB

-------------------------   --------------------
FINAL SINGLE POINT ENERGY     -2130.915352595721
-------------------------   --------------------


                            ***************************************
                            *     ORCA property calculations      *
                            ***************************************


  WARNING: The energy has been calculated at the MP2 level but the densities
           used in the property calculations are still SCF densities
           MP2 response densities have not been calculated 
           use %mp2 Density relaxed end
           or  %mp2 Density unrelaxed end

                                    ---------------------
                                    Active property flags
                                    ---------------------
   (+) Dipole Moment


------------------------------------------------------------------------------
                       ORCA ELECTRIC PROPERTIES CALCULATION
------------------------------------------------------------------------------

Dipole Moment Calculation                       ... on
Quadrupole Moment Calculation                   ... off
Polarizability Calculation                      ... off
GBWName                                         ... /scratch/chu_02/allen/tmpyp4_amber_gaff2/conf1/conf1/Conf302.orca.gbw
Electron density                                ... /scratch/chu_02/allen/tmpyp4_amber_gaff2/conf1/conf1/Conf302.orca.scfp
The origin for moment calculation is the CENTER OF MASS  = (-0.000772, -0.004650 -0.000751)

-------------
DIPOLE MOMENT
-------------
                                X             Y             Z
Electronic contribution:     -0.02683      -1.21578      -0.05726
Nuclear contribution   :      0.02299       0.20579       0.07050
                        -----------------------------------------
Total Dipole Moment    :     -0.00384      -1.00999       0.01323
                        -----------------------------------------
Magnitude (a.u.)       :      1.01008
Magnitude (Debye)      :      2.56743



--------------------
Rotational spectrum 
--------------------
 
Rotational constants in cm-1:     0.001500     0.001473     0.000762 
Rotational constants in MHz :    44.958459    44.167300    22.846203 

 Dipole components along the rotational axes: 
x,y,z [a.u.] :     0.326566    -0.955722     0.014863 
x,y,z [Debye]:     0.830064    -2.429252     0.037779 

 

Timings for individual modules:

Sum of individual times         ...     4032.620 sec (=  67.210 min)
GTO integral calculation        ...        2.860 sec (=   0.048 min)   0.1 %
SCF iterations                  ...     2463.492 sec (=  41.058 min)  61.1 %
MP2 module                      ...     1566.268 sec (=  26.104 min)  38.8 %
                             ****ORCA TERMINATED NORMALLY****
TOTAL RUN TIME: 0 days 1 hours 7 minutes 23 seconds 481 msec
# of primitive gaussian functions

