
                                 *****************
                                 * O   R   C   A *
                                 *****************

                                            #,                                       
                                            ###                                      
                                            ####                                     
                                            #####                                    
                                            ######                                   
                                           ########,                                 
                                     ,,################,,,,,                         
                               ,,#################################,,                 
                          ,,##########################################,,             
                       ,#########################################, ''#####,          
                    ,#############################################,,   '####,        
                  ,##################################################,,,,####,       
                ,###########''''           ''''###############################       
              ,#####''   ,,,,##########,,,,          '''####'''          '####       
            ,##' ,,,,###########################,,,                        '##       
           ' ,,###''''                  '''############,,,                           
         ,,##''                                '''############,,,,        ,,,,,,###''
      ,#''                                            '''#######################'''  
     '                                                          ''''####''''         
             ,#######,   #######,   ,#######,      ##                                
            ,#'     '#,  ##    ##  ,#'     '#,    #''#        ######   ,####,        
            ##       ##  ##   ,#'  ##            #'  '#       #        #'  '#        
            ##       ##  #######   ##           ,######,      #####,   #    #        
            '#,     ,#'  ##    ##  '#,     ,#' ,#      #,         ##   #,  ,#        
             '#######'   ##     ##  '#######'  #'      '#     #####' # '####'        



                  #######################################################
                  #                        -***-                        #
                  #          Department of theory and spectroscopy      #
                  #    Directorship and core code : Frank Neese         #
                  #        Max Planck Institute fuer Kohlenforschung    #
                  #                Kaiser Wilhelm Platz 1               #
                  #                 D-45470 Muelheim/Ruhr               #
                  #                      Germany                        #
                  #                                                     #
                  #                  All rights reserved                #
                  #                        -***-                        #
                  #######################################################


                         Program Version 5.0.4 -  RELEASE  -


 With contributions from (in alphabetic order):
   Daniel Aravena         : Magnetic Suceptibility
   Michael Atanasov       : Ab Initio Ligand Field Theory (pilot matlab implementation)
   Alexander A. Auer      : GIAO ZORA, VPT2 properties, NMR spectrum
   Ute Becker             : Parallelization
   Giovanni Bistoni       : ED, misc. LED, open-shell LED, HFLD
   Martin Brehm           : Molecular dynamics
   Dmytro Bykov           : SCF Hessian
   Vijay G. Chilkuri      : MRCI spin determinant printing, contributions to CSF-ICE
   Dipayan Datta          : RHF DLPNO-CCSD density
   Achintya Kumar Dutta   : EOM-CC, STEOM-CC
   Dmitry Ganyushin       : Spin-Orbit,Spin-Spin,Magnetic field MRCI
   Miquel Garcia          : C-PCM and meta-GGA Hessian, CC/C-PCM, Gaussian charge scheme
   Yang Guo               : DLPNO-NEVPT2, F12-NEVPT2, CIM, IAO-localization
   Andreas Hansen         : Spin unrestricted coupled pair/coupled cluster methods
   Benjamin Helmich-Paris : MC-RPA, TRAH-SCF, COSX integrals
   Lee Huntington         : MR-EOM, pCC
   Robert Izsak           : Overlap fitted RIJCOSX, COSX-SCS-MP3, EOM
   Marcus Kettner         : VPT2
   Christian Kollmar      : KDIIS, OOCD, Brueckner-CCSD(T), CCSD density, CASPT2, CASPT2-K
   Simone Kossmann        : Meta GGA functionals, TD-DFT gradient, OOMP2, MP2 Hessian
   Martin Krupicka        : Initial AUTO-CI
   Lucas Lang             : DCDCAS
   Marvin Lechner         : AUTO-CI (C++ implementation), FIC-MRCC
   Dagmar Lenk            : GEPOL surface, SMD
   Dimitrios Liakos       : Extrapolation schemes; Compound Job, initial MDCI parallelization
   Dimitrios Manganas     : Further ROCIS development; embedding schemes
   Dimitrios Pantazis     : SARC Basis sets
   Anastasios Papadopoulos: AUTO-CI, single reference methods and gradients
   Taras Petrenko         : DFT Hessian,TD-DFT gradient, ASA, ECA, R-Raman, ABS, FL, XAS/XES, NRVS
   Peter Pinski           : DLPNO-MP2, DLPNO-MP2 Gradient
   Christoph Reimann      : Effective Core Potentials
   Marius Retegan         : Local ZFS, SOC
   Christoph Riplinger    : Optimizer, TS searches, QM/MM, DLPNO-CCSD(T), (RO)-DLPNO pert. Triples
   Tobias Risthaus        : Range-separated hybrids, TD-DFT gradient, RPA, STAB
   Michael Roemelt        : Original ROCIS implementation
   Masaaki Saitow         : Open-shell DLPNO-CCSD energy and density
   Barbara Sandhoefer     : DKH picture change effects
   Avijit Sen             : IP-ROCIS
   Kantharuban Sivalingam : CASSCF convergence, NEVPT2, FIC-MRCI
   Bernardo de Souza      : ESD, SOC TD-DFT
   Georgi Stoychev        : AutoAux, RI-MP2 NMR, DLPNO-MP2 response
   Willem Van den Heuvel  : Paramagnetic NMR
   Boris Wezisla          : Elementary symmetry handling
   Frank Wennmohs         : Technical directorship


 We gratefully acknowledge several colleagues who have allowed us to
 interface, adapt or use parts of their codes:
   Stefan Grimme, W. Hujo, H. Kruse, P. Pracht,  : VdW corrections, initial TS optimization,
                  C. Bannwarth, S. Ehlert          DFT functionals, gCP, sTDA/sTD-DF
   Ed Valeev, F. Pavosevic, A. Kumar             : LibInt (2-el integral package), F12 methods
   Garnet Chan, S. Sharma, J. Yang, R. Olivares  : DMRG
   Ulf Ekstrom                                   : XCFun DFT Library
   Mihaly Kallay                                 : mrcc  (arbitrary order and MRCC methods)
   Jiri Pittner, Ondrej Demel                    : Mk-CCSD
   Frank Weinhold                                : gennbo (NPA and NBO analysis)
   Christopher J. Cramer and Donald G. Truhlar   : smd solvation model
   Lars Goerigk                                  : TD-DFT with DH, B97 family of functionals
   V. Asgeirsson, H. Jonsson                     : NEB implementation
   FAccTs GmbH                                   : IRC, NEB, NEB-TS, DLPNO-Multilevel, CI-OPT
                                                   MM, QMMM, 2- and 3-layer-ONIOM, Crystal-QMMM,
                                                   LR-CPCM, SF, NACMEs, symmetry and pop. for TD-DFT,
                                                   nearIR, NL-DFT gradient (VV10), updates on ESD,
                                                   ML-optimized integration grids
   S Lehtola, MJT Oliveira, MAL Marques          : LibXC Library
   Liviu Ungur et al                             : ANISO software


 Your calculation uses the libint2 library for the computation of 2-el integrals
 For citations please refer to: http://libint.valeyev.net

 Your ORCA version has been built with support for libXC version: 5.1.0
 For citations please refer to: https://tddft.org/programs/libxc/

 This ORCA versions uses:
   CBLAS   interface :  Fast vector & matrix operations
   LAPACKE interface :  Fast linear algebra routines
   SCALAPACK package :  Parallel linear algebra routines
   Shared memory     :  Shared parallel matrices
   BLAS/LAPACK       :  OpenBLAS 0.3.15  USE64BITINT DYNAMIC_ARCH NO_AFFINITY Sandybridge SINGLE_THREADED
        Core in use  :  Sandybridge
   Copyright (c) 2011-2014, The OpenBLAS Project


================================================================================

----- Orbital basis set information -----
Your calculation utilizes the basis: cc-pVDZ 
       H, B-Ne : Obtained from the ccRepo (grant-hill.group.shef.ac.uk/ccrepo) Feb. 2017
                 T. H. Dunning, Jr., J. Chem. Phys. 90, 1007 (1989)
            He : Obtained from the ccRepo (grant-hill.group.shef.ac.uk/ccrepo) Feb. 2017
                 D. E. Woon, T. H. Dunning, Jr., J. Chem. Phys. 100, 2975 (1994)
  Li-Be, Na-Mg : Obtained from the ccRepo (grant-hill.group.shef.ac.uk/ccrepo) Feb. 2017
                 B. P. Prascher, D. E. Woon, K. A. Peterson, T. H. Dunning, Jr., A. K. Wilson, Theor. Chem. Acc. 128, 69 (2011)
         Al-Ar : Obtained from the ccRepo (grant-hill.group.shef.ac.uk/ccrepo) Feb. 2017
                 D. E. Woon, T. H. Dunning, Jr., J. Chem. Phys. 98, 1358 (1993)
            Ca : Obtained from the Peterson Research Group Website (tyr0.chem.wsu.edu/~kipeters) Feb. 2017
                 J. Koput, K. A. Peterson, J. Phys. Chem. 106, 9595 (2002)
         Sc-Zn : Obtained from the ccRepo (grant-hill.group.shef.ac.uk/ccrepo) Feb. 2017
                 N. B. Balabanov, K. A. Peterson, J. Chem. Phys. 123, 064107 (2005)
                 N. B. Balabanov, K. A. Peterson, J. Chem. Phys. 125, 074110 (2006)
         Ga-Kr : Obtained from the ccRepo (grant-hill.group.shef.ac.uk/ccrepo) Feb. 2017
                 A. K. Wilson, D. E. Woon, K. A. Peterson, T. H. Dunning, Jr., J. Chem. Phys. 110, 7667 (1999)

================================================================================
                                        WARNINGS
                       Please study these warnings very carefully!
================================================================================


WARNING: No MP2 level density has been requested!
         To caclulate MP2 level properties use
         %mp2 Density relaxed end
         or
         %mp2 Density unrelaxed end

WARNING: Post HF methods need fully converged wavefunctions
  ===> : Setting SCFConvForced true
         You can overwrite this default with %scf ConvForced false 


INFO   : the flag for use of the SHARK integral package has been found!

================================================================================
                                       INPUT FILE
================================================================================
NAME = /scratch/allen/tmpyp4_amber_gaff2/2.Mdgx/conf11/conf11/Conf296.orca
|  1> ! PAL2
|  2> ! mp2 cc-pvdz TightSCF  NoKeepInts
|  3> 
|  4> %scf
|  5>   MaxCore 2000
|  6> end
|  7> %mp2
|  8>   MaxCore 2000
|  9> end
| 10> * xyz 0 1
| 11>    C       -3.60000         6.08600         1.15100
| 12>    C        1.47400         4.04100         0.05700
| 13>    C       -2.80200         4.09300         0.04900
| 14>    C       -3.62900         4.42300        -1.03600
| 15>    C       -4.40600         5.56400        -0.99300
| 16>    C       -5.20200         7.61000         0.08800
| 17>    C        0.13200         4.30700         0.06100
| 18>    C       -0.56900         3.05600         0.04700
| 19>    C        1.64900         2.61800         0.02300
| 20>    C       -2.80200         4.95900         1.15300
| 21>    N       -4.38700         6.37500         0.09000
| 22>    N        0.38800         2.06700         0.02500
| 23>    N       -2.01000         0.39500        -0.07500
| 24>    N       -0.38800        -2.07400        -0.02700
| 25>    N        2.01000        -0.40100         0.06500
| 26>    C       -1.96000         2.86100         0.02400
| 27>    C       -2.62300         1.61500        -0.01800
| 28>    C       -5.57300        -4.32900         1.06600
| 29>    C       -4.07300         1.47100         0.05600
| 30>    C       -4.10600        -2.75600        -0.02600
| 31>    C       -4.99500        -2.75700        -1.11100
| 32>    C       -6.13200        -3.54200        -1.07600
| 33>    C       -7.65100        -5.11300         0.04000
| 34>    C       -4.32400         0.14100         0.03700
| 35>    C       -3.02500        -0.52000        -0.04800
| 36>    C       -4.42200        -3.56600         1.07500
| 37>    N       -6.40700        -4.31300         0.00100
| 38>    C       -2.86700        -1.92200        -0.04000
| 39>    C       -1.65000        -2.62400        -0.02700
| 40>    C        3.56800        -6.14200        -1.04000
| 41>    C       -1.47600        -4.04900        -0.03400
| 42>    C        2.80300        -4.09900        -0.00800
| 43>    C        3.65700        -4.38400         1.06900
| 44>    C        4.42700        -5.53000         1.05900
| 45>    C        5.24500        -7.58800         0.01400
| 46>    C       -0.13400        -4.31500        -0.02200
| 47>    C        0.56800        -3.06400        -0.02700
| 48>    C        2.77500        -5.01200        -1.07400
| 49>    N        4.37600        -6.39100         0.01700
| 50>    C        1.95900        -2.86900        -0.00900
| 51>    C        2.62100        -1.62200         0.00900
| 52>    C        5.54300         4.33900        -1.13000
| 53>    C        4.07000        -1.47900        -0.09400
| 54>    C        4.10400         2.75100        -0.02100
| 55>    C        5.02700         2.72900         1.03600
| 56>    C        6.16600         3.50900         0.97800
| 57>    C        7.61900         5.15300        -0.11500
| 58>    C        4.32100        -0.14800        -0.09200
| 59>    C        3.02500         0.51400         0.01500
| 60>    C        4.38700         3.58200        -1.11500
| 61>    C        2.86600         1.91600         0.01300
| 62>    N        6.41300         4.29600        -0.09500
| 63>    H       -3.64100         6.77500         1.98600
| 64>    H        2.27400         4.76600         0.08100
| 65>    H       -3.66600         3.80000        -1.92100
| 66>    H       -5.05200         5.86400        -1.80800
| 67>    H       -4.63300         8.41100        -0.39100
| 68>    H       -6.12300         7.42200        -0.46300
| 69>    H       -5.43200         7.88000         1.11900
| 70>    H       -0.33200         5.28200         0.06900
| 71>    H       -2.19500         4.75100         2.02700
| 72>    H        0.18200         1.07200         0.00500
| 73>    H       -0.18300        -1.08000        -0.02100
| 74>    H       -5.86400        -4.96200         1.89500
| 75>    H       -4.79400         2.27200         0.13900
| 76>    H       -4.80000        -2.16000        -1.99400
| 77>    H       -6.84100        -3.58200        -1.89300
| 78>    H       -8.42800        -4.53600         0.54600
| 79>    H       -7.95600        -5.33700        -0.98100
| 80>    H       -7.45600        -6.03700         0.58400
| 81>    H       -5.28700        -0.34400         0.10000
| 82>    H       -3.78000        -3.60100         1.94700
| 83>    H        3.58700        -6.86800        -1.84300
| 84>    H       -2.27600        -4.77400        -0.05000
| 85>    H        3.71400        -3.72400         1.92600
| 86>    H        5.09200        -5.79500         1.87100
| 87>    H        6.20500        -7.32900        -0.43900
| 88>    H        5.39300        -7.91700         1.04200
| 89>    H        4.75900        -8.37300        -0.56400
| 90>    H        0.32900        -5.29000        -0.00800
| 91>    H        2.14600        -4.84200        -1.94000
| 92>    H        5.80800         4.98600        -1.95600
| 93>    H        4.78800        -2.28100        -0.18500
| 94>    H        4.86000         2.11400         1.91200
| 95>    H        6.90100         3.53100         1.77200
| 96>    H        7.38300         6.10900         0.35600
| 97>    H        8.41400         4.65200         0.43500
| 98>    H        7.92100         5.31000        -1.15000
| 99>    H        5.28300         0.33600        -0.17900
|100>    H        3.72000         3.63200        -1.96700
|101> *
|102> 
|103>                          ****END OF INPUT****
================================================================================

                       ****************************
                       * Single Point Calculation *
                       ****************************

---------------------------------
CARTESIAN COORDINATES (ANGSTROEM)
---------------------------------
  C     -3.600000    6.086000    1.151000
  C      1.474000    4.041000    0.057000
  C     -2.802000    4.093000    0.049000
  C     -3.629000    4.423000   -1.036000
  C     -4.406000    5.564000   -0.993000
  C     -5.202000    7.610000    0.088000
  C      0.132000    4.307000    0.061000
  C     -0.569000    3.056000    0.047000
  C      1.649000    2.618000    0.023000
  C     -2.802000    4.959000    1.153000
  N     -4.387000    6.375000    0.090000
  N      0.388000    2.067000    0.025000
  N     -2.010000    0.395000   -0.075000
  N     -0.388000   -2.074000   -0.027000
  N      2.010000   -0.401000    0.065000
  C     -1.960000    2.861000    0.024000
  C     -2.623000    1.615000   -0.018000
  C     -5.573000   -4.329000    1.066000
  C     -4.073000    1.471000    0.056000
  C     -4.106000   -2.756000   -0.026000
  C     -4.995000   -2.757000   -1.111000
  C     -6.132000   -3.542000   -1.076000
  C     -7.651000   -5.113000    0.040000
  C     -4.324000    0.141000    0.037000
  C     -3.025000   -0.520000   -0.048000
  C     -4.422000   -3.566000    1.075000
  N     -6.407000   -4.313000    0.001000
  C     -2.867000   -1.922000   -0.040000
  C     -1.650000   -2.624000   -0.027000
  C      3.568000   -6.142000   -1.040000
  C     -1.476000   -4.049000   -0.034000
  C      2.803000   -4.099000   -0.008000
  C      3.657000   -4.384000    1.069000
  C      4.427000   -5.530000    1.059000
  C      5.245000   -7.588000    0.014000
  C     -0.134000   -4.315000   -0.022000
  C      0.568000   -3.064000   -0.027000
  C      2.775000   -5.012000   -1.074000
  N      4.376000   -6.391000    0.017000
  C      1.959000   -2.869000   -0.009000
  C      2.621000   -1.622000    0.009000
  C      5.543000    4.339000   -1.130000
  C      4.070000   -1.479000   -0.094000
  C      4.104000    2.751000   -0.021000
  C      5.027000    2.729000    1.036000
  C      6.166000    3.509000    0.978000
  C      7.619000    5.153000   -0.115000
  C      4.321000   -0.148000   -0.092000
  C      3.025000    0.514000    0.015000
  C      4.387000    3.582000   -1.115000
  C      2.866000    1.916000    0.013000
  N      6.413000    4.296000   -0.095000
  H     -3.641000    6.775000    1.986000
  H      2.274000    4.766000    0.081000
  H     -3.666000    3.800000   -1.921000
  H     -5.052000    5.864000   -1.808000
  H     -4.633000    8.411000   -0.391000
  H     -6.123000    7.422000   -0.463000
  H     -5.432000    7.880000    1.119000
  H     -0.332000    5.282000    0.069000
  H     -2.195000    4.751000    2.027000
  H      0.182000    1.072000    0.005000
  H     -0.183000   -1.080000   -0.021000
  H     -5.864000   -4.962000    1.895000
  H     -4.794000    2.272000    0.139000
  H     -4.800000   -2.160000   -1.994000
  H     -6.841000   -3.582000   -1.893000
  H     -8.428000   -4.536000    0.546000
  H     -7.956000   -5.337000   -0.981000
  H     -7.456000   -6.037000    0.584000
  H     -5.287000   -0.344000    0.100000
  H     -3.780000   -3.601000    1.947000
  H      3.587000   -6.868000   -1.843000
  H     -2.276000   -4.774000   -0.050000
  H      3.714000   -3.724000    1.926000
  H      5.092000   -5.795000    1.871000
  H      6.205000   -7.329000   -0.439000
  H      5.393000   -7.917000    1.042000
  H      4.759000   -8.373000   -0.564000
  H      0.329000   -5.290000   -0.008000
  H      2.146000   -4.842000   -1.940000
  H      5.808000    4.986000   -1.956000
  H      4.788000   -2.281000   -0.185000
  H      4.860000    2.114000    1.912000
  H      6.901000    3.531000    1.772000
  H      7.383000    6.109000    0.356000
  H      8.414000    4.652000    0.435000
  H      7.921000    5.310000   -1.150000
  H      5.283000    0.336000   -0.179000
  H      3.720000    3.632000   -1.967000

----------------------------
CARTESIAN COORDINATES (A.U.)
----------------------------
  NO LB      ZA    FRAG     MASS         X           Y           Z
   0 C     6.0000    0    12.011   -6.803014   11.500873    2.175075
   1 C     6.0000    0    12.011    2.785456    7.636383    0.107714
   2 C     6.0000    0    12.011   -5.295013    7.734649    0.092597
   3 C     6.0000    0    12.011   -6.857816    8.358259   -1.957756
   4 C     6.0000    0    12.011   -8.326133   10.514436   -1.876498
   5 C     6.0000    0    12.011   -9.830355   14.380816    0.166296
   6 C     6.0000    0    12.011    0.249444    8.139050    0.115273
   7 C     6.0000    0    12.011   -1.075254    5.775003    0.088817
   8 C     6.0000    0    12.011    3.116158    4.947303    0.043464
   9 C     6.0000    0    12.011   -5.295013    9.371152    2.178854
  10 N     7.0000    0    14.007   -8.290229   12.047004    0.170075
  11 N     7.0000    0    14.007    0.733214    3.906064    0.047243
  12 N     7.0000    0    14.007   -3.798350    0.746442   -0.141729
  13 N     7.0000    0    14.007   -0.733214   -3.919292   -0.051023
  14 N     7.0000    0    14.007    3.798350   -0.757780    0.122832
  15 C     6.0000    0    12.011   -3.703863    5.406506    0.045353
  16 C     6.0000    0    12.011   -4.956752    3.051908   -0.034015
  17 C     6.0000    0    12.011  -10.531444   -8.180624    2.014448
  18 C     6.0000    0    12.011   -7.696855    2.779787    0.105825
  19 C     6.0000    0    12.011   -7.759216   -5.208085   -0.049133
  20 C     6.0000    0    12.011   -9.439182   -5.209975   -2.099486
  21 C     6.0000    0    12.011  -11.587801   -6.693410   -2.033345
  22 C     6.0000    0    12.011  -14.458295   -9.662170    0.075589
  23 C     6.0000    0    12.011   -8.171176    0.266451    0.069920
  24 C     6.0000    0    12.011   -5.716422   -0.982658   -0.090707
  25 C     6.0000    0    12.011   -8.356369   -6.738763    2.031456
  26 N     7.0000    0    14.007  -12.107475   -8.150389    0.001890
  27 C     6.0000    0    12.011   -5.417845   -3.632054   -0.075589
  28 C     6.0000    0    12.011   -3.118048   -4.958641   -0.051023
  29 C     6.0000    0    12.011    6.742543  -11.606698   -1.965315
  30 C     6.0000    0    12.011   -2.789236   -7.651501   -0.064251
  31 C     6.0000    0    12.011    5.296902   -7.745987   -0.015118
  32 C     6.0000    0    12.011    6.910728   -8.284559    2.020117
  33 C     6.0000    0    12.011    8.365818  -10.450186    2.001220
  34 C     6.0000    0    12.011    9.911614  -14.339242    0.026456
  35 C     6.0000    0    12.011   -0.253223   -8.154168   -0.041574
  36 C     6.0000    0    12.011    1.073364   -5.790121   -0.051023
  37 C     6.0000    0    12.011    5.243990   -9.471307   -2.029566
  38 N     7.0000    0    14.007    8.269442  -12.077240    0.032125
  39 C     6.0000    0    12.011    3.701973   -5.421624   -0.017008
  40 C     6.0000    0    12.011    4.952972   -3.065136    0.017008
  41 C     6.0000    0    12.011   10.474752    8.199522   -2.135391
  42 C     6.0000    0    12.011    7.691185   -2.794905   -0.177634
  43 C     6.0000    0    12.011    7.755436    5.198637   -0.039684
  44 C     6.0000    0    12.011    9.499653    5.157063    1.957756
  45 C     6.0000    0    12.011   11.652051    6.631049    1.848152
  46 C     6.0000    0    12.011   14.397823    9.737759   -0.217319
  47 C     6.0000    0    12.011    8.165507   -0.279679   -0.173855
  48 C     6.0000    0    12.011    5.716422    0.971319    0.028346
  49 C     6.0000    0    12.011    8.290229    6.768999   -2.107045
  50 C     6.0000    0    12.011    5.415955    3.620715    0.024566
  51 N     7.0000    0    14.007   12.118814    8.118263   -0.179524
  52 H     1.0000    0     1.008   -6.880493   12.802895    3.752996
  53 H     1.0000    0     1.008    4.297237    9.006435    0.153068
  54 H     1.0000    0     1.008   -6.927736    7.180959   -3.630164
  55 H     1.0000    0     1.008   -9.546896   11.081354   -3.416625
  56 H     1.0000    0     1.008   -8.755101   15.894487   -0.738883
  57 H     1.0000    0     1.008  -11.570793   14.025547   -0.874943
  58 H     1.0000    0     1.008  -10.264992   14.891042    2.114604
  59 H     1.0000    0     1.008   -0.627389    9.981533    0.130391
  60 H     1.0000    0     1.008   -4.147949    8.978089    3.830475
  61 H     1.0000    0     1.008    0.343930    2.025786    0.009449
  62 H     1.0000    0     1.008   -0.345820   -2.040904   -0.039684
  63 H     1.0000    0     1.008  -11.081354   -9.376821    3.581031
  64 H     1.0000    0     1.008   -9.059347    4.293458    0.262672
  65 H     1.0000    0     1.008   -9.070685   -4.081808   -3.768114
  66 H     1.0000    0     1.008  -12.927616   -6.768999   -3.577252
  67 H     1.0000    0     1.008  -15.926612   -8.571798    1.031790
  68 H     1.0000    0     1.008  -15.034661  -10.085468   -1.853821
  69 H     1.0000    0     1.008  -14.089798  -11.408277    1.103600
  70 H     1.0000    0     1.008   -9.990982   -0.650066    0.188973
  71 H     1.0000    0     1.008   -7.143165   -6.804904    3.679297
  72 H     1.0000    0     1.008    6.778448  -12.978639   -3.482765
  73 H     1.0000    0     1.008   -4.301017   -9.021553   -0.094486
  74 H     1.0000    0     1.008    7.018443   -7.037340    3.639613
  75 H     1.0000    0     1.008    9.622485  -10.950963    3.535678
  76 H     1.0000    0     1.008   11.725751  -13.849803   -0.829590
  77 H     1.0000    0     1.008   10.191293  -14.960962    1.969095
  78 H     1.0000    0     1.008    8.993207  -15.822677   -1.065806
  79 H     1.0000    0     1.008    0.621720   -9.996651   -0.015118
  80 H     1.0000    0     1.008    4.055352   -9.150054   -3.666069
  81 H     1.0000    0     1.008   10.975529    9.422175   -3.696304
  82 H     1.0000    0     1.008    9.048009   -4.310465   -0.349599
  83 H     1.0000    0     1.008    9.184069    3.994881    3.613156
  84 H     1.0000    0     1.008   13.041000    6.672623    3.348595
  85 H     1.0000    0     1.008   13.951848   11.544337    0.672743
  86 H     1.0000    0     1.008   15.900156    8.791006    0.822031
  87 H     1.0000    0     1.008   14.968521   10.034446   -2.173185
  88 H     1.0000    0     1.008    9.983423    0.634948   -0.338261
  89 H     1.0000    0     1.008    7.029781    6.863485   -3.717091

--------------------------------
INTERNAL COORDINATES (ANGSTROEM)
--------------------------------
 C      0   0   0     0.000000000000     0.00000000     0.00000000
 C      1   0   0     5.578918981308     0.00000000     0.00000000
 C      1   2   0     2.413142556916    46.12807482     0.00000000
 C      3   1   2     1.403586121333    87.93636317   231.79962068
 C      4   3   1     1.381107888617   120.10934412     0.07742708
 C      5   4   3     2.447098894610   152.55967517     1.75868519
 C      2   1   3     1.368114030335    15.42536452    18.53932246
 C      7   2   1     1.434084376876   108.05010202   225.96378371
 C      2   1   3     1.434123425651   118.64270943   328.32971758
 C      1   2   3     1.380918896967    34.46739315    44.07900546
 N      1   2   3     1.352261439220   116.98749966   298.22858815
 N      9   2   1     1.376127174356   106.58526707    11.66291534
 N     12   9   2     2.925062050624   168.53581413   171.12065651
 N     13  12   9     2.954513327098    91.55032014    11.12112580
 N     14  13  12     2.925371258490    88.43092389   359.84326247
 C      8   7   2     1.404790019896   127.24786865   181.11170171
 C     13  12   9     1.366535034311    81.72106996   188.00453233
 C     14  13  12     5.758810554272    80.56209567   166.76250791
 C     17  13  12     1.459010623676   111.08861209   183.82872609
 C     18  14  13     2.412235892279    27.27532823    36.33507194
 C     20  18  14     1.402692767501    87.95206320   148.94598259
 C     21  20  18     1.382106725257   120.14573887   359.70382047
 C     18  14  13     2.446510985056   144.15733107    82.80075377
 C     19  17  13     1.353610726908   106.29293361   359.75308708
 C     13  12   9     1.366813447402   172.21332906    33.46711076
 C     18  14  13     1.380960173213    15.08449437   309.23336894
 N     22  21  20     1.352773077792   120.73759875     0.27865223
 C     25  13  17     1.410897586645   125.60330303   182.37774668
 C     14  13  12     1.376642291955    80.24689249   177.85461986
 C     14  13  12     5.764089607215   164.51507311   312.20821879
 C     29  14  13     1.435600919476   106.58649366   178.76395472
 C     30  14  13     2.413316804732    27.10625047    82.12560436
 C     32  30  14     1.403734305344    87.90059683   149.76154742
 C     33  32  30     1.380694028378   120.14881443   359.74174632
 C     34  33  32     2.448777858443   152.49203239     2.45173620
 C     31  29  14     1.368160809262   108.16950133     0.70383075
 C     14  13  12     1.376239804685   169.26375223   353.09862627
 C     30  14  13     1.380907310430    14.68948582   353.70041132
 N     34  33  32     1.352658863128   120.85575621     0.19603406
 C     37  14  29     1.404717053360   126.01551127   180.90772073
 C     15  14  13     1.366491126938    81.61824056   183.09049352
 C      2   1   3     4.249062720177   154.16147765   139.08737633
 C     41  15  14     1.459677704153   111.05201287   175.08990246
 C     42   2   1     2.412953791518    41.78584867   164.47075609
 C     44  42   2     1.403446472082    87.95153797   233.97558675
 C     45  44  42     1.381696421071   120.11137308     0.19721020
 C     42   2   1     2.450019795838   135.97209175    74.78560519
 C     43  41  15     1.354461516618   106.26758155     0.30894352
 C     15  14  13     1.367461151185   171.87382904   332.35056460
 C     42   2   1     1.381886391857    32.59078432   213.32603528
 C      9   2   1     1.404988612053   126.98745415   192.66725287
 N     42   2   1     1.352765315936   113.57249190   102.52219438
 H      1   2   3     1.083340666642   114.75213009   156.33018050
 H      2   1   3     1.079907866440   115.04369058   159.81748240
 H      4   3   1     1.082923358322   121.10509073   179.54431819
 H      5   4   3     1.082377475745   122.77301896   179.44652955
 H      6   5   4     1.093070446037   104.46446308    99.96559666
 H      6   5   4     1.089580653279    84.68113291   209.45663271
 H      6   5   4     1.090303168848   133.89879813   322.28310554
 H      7   2   1     1.079807853278   126.66122480    46.20219749
 H     10   1   2     1.084245820836   118.76688869    87.15139911
 H     12   9   2     1.016297692608   125.29023241   180.00180175
 H     14  13  12     1.014936943854    44.97226959   359.42596618
 H     18  14  13     1.082871645210   128.03556573   234.20482432
 H     19  17  13     1.080893611786   126.41830519   178.11313280
 H     21  20  18     1.083569563987   121.05669627   180.67006309
 H     22  21  20     1.082483256222   122.73097286   180.59748951
 H     23  18  14     1.092105306278   103.92715769   234.93429879
 H     23  18  14     1.088871893291   134.19244188    12.25587044
 H     23  18  14     1.089833473518    84.85857450   125.45241208
 H     24  19  17     1.080075460327   127.28078426   178.44613241
 H     26  18  14     1.083408048706   118.76995697   244.94906660
 H     30  14  13     1.082703098730   127.99711412   279.66882698
 H     31  29  14     1.079759695488   125.22293469   180.92530585
 H     33  32  30     1.083188810873   121.01964473   180.74284758
 H     34  33  32     1.082494341787   122.70821597   180.59516895
 H     35  34  33     1.092652735319   105.73575241    97.19771933
 H     35  34  33     1.089462711615    84.05943581   206.43036958
 H     35  34  33     1.089268102902   133.08365142   318.50306270
 H     36  31  29     1.079439669458   126.61599965   178.98859863
 H     38  30  73     1.083742127999   118.77264435   359.90091293
 H     42   2   1     1.082178358682   119.31790784   319.15372484
 H     43  41  15     1.080281907652   126.36969097   182.06329380
 H     45  44  42     1.083277434455   121.10105945   179.58025624
 H     46  45  44     1.082194529648   122.72144639   179.46906377
 H     47  42   2     1.091546151109   106.65128841   315.16475048
 H     47  42   2     1.088818625851   132.46019523    94.52397119
 H     47  42   2     1.089531091801    83.63838232   206.04504406
 H     48  43  41     1.080402239909   127.23657387   181.62955349
 H     50  42   2     1.083186502870   118.77001737    94.71359229

---------------------------
INTERNAL COORDINATES (A.U.)
---------------------------
 C      0   0   0     0.000000000000     0.00000000     0.00000000
 C      1   0   0    10.542628998007     0.00000000     0.00000000
 C      1   2   0     4.560178554682    46.12807482     0.00000000
 C      3   1   2     2.652393374693    87.93636317   231.79962068
 C      4   3   1     2.609915670884   120.10934412     0.07742708
 C      5   4   3     4.624346733434   152.55967517     1.75868519
 C      2   1   3     2.585360837309    15.42536452    18.53932246
 C      7   2   1     2.710026725231   108.05010202   225.96378371
 C      2   1   3     2.710100516721   118.64270943   328.32971758
 C      1   2   3     2.609558528424    34.46739315    44.07900546
 N      1   2   3     2.555403781587   116.98749966   298.22858815
 N      9   2   1     2.600503484979   106.58526707    11.66291534
 N     12   9   2     5.527566200405   168.53581413   171.12065651
 N     13  12   9     5.583221047236    91.55032014    11.12112580
 N     14  13  12     5.528150518591    88.43092389   359.84326247
 C      8   7   2     2.654668413270   127.24786865   181.11170171
 C     13  12   9     2.582376967257    81.72106996   188.00453233
 C     14  13  12    10.882574804710    80.56209567   166.76250791
 C     17  13  12     2.757130505230   111.08861209   183.82872609
 C     18  14  13     4.558465206823    27.27532823    36.33507194
 C     20  18  14     2.650705180609    87.95206320   148.94598259
 C     21  20  18     2.611803198586   120.14573887   359.70382047
 C     18  14  13     4.623235745386   144.15733107    82.80075377
 C     19  17  13     2.557953565794   106.29293361   359.75308708
 C     13  12   9     2.582903091751   172.21332906    33.46711076
 C     18  14  13     2.609636529225    15.08449437   309.23336894
 N     22  21  20     2.556370638369   120.73759875     0.27865223
 C     25  13  17     2.666210041769   125.60330303   182.37774668
 C     14  13  12     2.601476916169    80.24689249   177.85461986
 C     14  13  12    10.892550769017   164.51507311   312.20821879
 C     29  14  13     2.712892575415   106.58649366   178.76395472
 C     30  14  13     4.560507835333    27.10625047    82.12560436
 C     32  30  14     2.652673401891    87.90059683   149.76154742
 C     33  32  30     2.609133588376   120.14881443   359.74174632
 C     34  33  32     4.627519515267   152.49203239     2.45173620
 C     31  29  14     2.585449236669   108.16950133     0.70383075
 C     14  13  12     2.600716325456   169.26375223   353.09862627
 C     30  14  13     2.609536633043    14.68948582   353.70041132
 N     34  33  32     2.556154803934   120.85575621     0.19603406
 C     37  14  29     2.654530526499   126.01551127   180.90772073
 C     15  14  13     2.582293994346    81.61824056   183.09049352
 C      2   1   3     8.029564866989   154.16147765   139.08737633
 C     41  15  14     2.758391104639   111.05201287   175.08990246
 C     42   2   1     4.559821839776    41.78584867   164.47075609
 C     44  42   2     2.652129475853    87.95153797   233.97558675
 C     45  44  42     2.611027836043   120.11137308     0.19721020
 C     42   2   1     4.629866436820   135.97209175    74.78560519
 C     43  41  15     2.559561325344   106.26758155     0.30894352
 C     15  14  13     2.584127074516   171.87382904   332.35056460
 C     42   2   1     2.611386828803    32.59078432   213.32603528
 C      9   2   1     2.655043698059   126.98745415   192.66725287
 N     42   2   1     2.556355970587   113.57249190   102.52219438
 H      1   2   3     2.047217169693   114.75213009   156.33018050
 H      2   1   3     2.040730117440   115.04369058   159.81748240
 H      4   3   1     2.046428571255   121.10509073   179.54431819
 H      5   4   3     2.045397002683   122.77301896   179.44652955
 H      6   5   4     2.065603788093   104.46446308    99.96559666
 H      6   5   4     2.059009035516    84.68113291   209.45663271
 H      6   5   4     2.060374392069   133.89879813   322.28310554
 H      7   2   1     2.040541119952   126.66122480    46.20219749
 H     10   1   2     2.048927663228   118.76688869    87.15139911
 H     12   9   2     1.920524309565   125.29023241   180.00180175
 H     14  13  12     1.917952867083    44.97226959   359.42596618
 H     18  14  13     2.046330847636   128.03556573   234.20482432
 H     19  17  13     2.042592906181   126.41830519   178.11313280
 H     21  20  18     2.047649722989   121.05669627   180.67006309
 H     22  21  20     2.045596898814   122.73097286   180.59748951
 H     23  18  14     2.063779938267   103.92715769   234.93429879
 H     23  18  14     2.057669673245   134.19244188    12.25587044
 H     23  18  14     2.059486796529    84.85857450   125.45241208
 H     24  19  17     2.041046823986   127.28078426   178.44613241
 H     26  18  14     2.047344503340   118.76995697   244.94906660
 H     30  14  13     2.046012340948   127.99711412   279.66882698
 H     31  29  14     2.040450114918   125.22293469   180.92530585
 H     33  32  30     2.046930203877   121.01964473   180.74284758
 H     34  33  32     2.045617847496   122.70821597   180.59516895
 H     35  34  33     2.064814429233   105.73575241    97.19771933
 H     35  34  33     2.058786158072    84.05943581   206.43036958
 H     35  34  33     2.058418400901   133.08365142   318.50306270
 H     36  31  29     2.039845353366   126.61599965   178.98859863
 H     38  30  73     2.047975821711   118.77264435   359.90091293
 H     42   2   1     2.045020725966   119.31790784   319.15372484
 H     43  41  15     2.041436952892   126.36969097   182.06329380
 H     45  44  42     2.047097678177   121.10105945   179.58025624
 H     46  45  44     2.045051284662   122.72144639   179.46906377
 H     47  42   2     2.062723288131   106.65128841   315.16475048
 H     47  42   2     2.057569012371   132.46019523    94.52397119
 H     47  42   2     2.058915377895    83.63838232   206.04504406
 H     48  43  41     2.041664347903   127.23657387   181.62955349
 H     50  42   2     2.046925842384   118.77001737    94.71359229

---------------------
BASIS SET INFORMATION
---------------------
There are 3 groups of distinct atoms

 Group   1 Type C   : 17s4p1d contracted to 3s2p1d pattern {881/31/1}
 Group   2 Type N   : 17s4p1d contracted to 3s2p1d pattern {881/31/1}
 Group   3 Type H   : 4s1p contracted to 2s1p pattern {31/1}

Atom   0C    basis set group =>   1
Atom   1N    basis set group =>   2
Atom   2C    basis set group =>   1
Atom   3N    basis set group =>   2
Atom   4C    basis set group =>   1
Atom   5N    basis set group =>   2
Atom   6C    basis set group =>   1
Atom   7N    basis set group =>   2
Atom   8C    basis set group =>   1
Atom   9N    basis set group =>   2
Atom  10C    basis set group =>   1
Atom  11N    basis set group =>   2
Atom  12C    basis set group =>   1
Atom  13N    basis set group =>   2
Atom  14C    basis set group =>   1
Atom  15N    basis set group =>   2
Atom  16C    basis set group =>   1
Atom  17C    basis set group =>   1
Atom  18C    basis set group =>   1
Atom  19C    basis set group =>   1
Atom  20C    basis set group =>   1
Atom  21C    basis set group =>   1
Atom  22C    basis set group =>   1
Atom  23C    basis set group =>   1
Atom  24C    basis set group =>   1
Atom  25C    basis set group =>   1
Atom  26C    basis set group =>   1
Atom  27C    basis set group =>   1
Atom  28C    basis set group =>   1
Atom  29C    basis set group =>   1
Atom  30C    basis set group =>   1
Atom  31C    basis set group =>   1
Atom  32C    basis set group =>   1
Atom  33C    basis set group =>   1
Atom  34C    basis set group =>   1
Atom  35C    basis set group =>   1
Atom  36C    basis set group =>   1
Atom  37C    basis set group =>   1
Atom  38C    basis set group =>   1
Atom  39C    basis set group =>   1
Atom  40C    basis set group =>   1
Atom  41C    basis set group =>   1
Atom  42C    basis set group =>   1
Atom  43C    basis set group =>   1
Atom  44C    basis set group =>   1
Atom  45C    basis set group =>   1
Atom  46C    basis set group =>   1
Atom  47C    basis set group =>   1
Atom  48C    basis set group =>   1
Atom  49C    basis set group =>   1
Atom  50C    basis set group =>   1
Atom  51C    basis set group =>   1
Atom  52H    basis set group =>   3
Atom  53H    basis set group =>   3
Atom  54H    basis set group =>   3
Atom  55H    basis set group =>   3
Atom  56H    basis set group =>   3
Atom  57H    basis set group =>   3
Atom  58H    basis set group =>   3
Atom  59H    basis set group =>   3
Atom  60H    basis set group =>   3
Atom  61H    basis set group =>   3
Atom  62H    basis set group =>   3
Atom  63H    basis set group =>   3
Atom  64H    basis set group =>   3
Atom  65H    basis set group =>   3
Atom  66H    basis set group =>   3
Atom  67H    basis set group =>   3
Atom  68H    basis set group =>   3
Atom  69H    basis set group =>   3
Atom  70H    basis set group =>   3
Atom  71H    basis set group =>   3
Atom  72H    basis set group =>   3
Atom  73H    basis set group =>   3
Atom  74H    basis set group =>   3
Atom  75H    basis set group =>   3
Atom  76H    basis set group =>   3
Atom  77H    basis set group =>   3
Atom  78H    basis set group =>   3
Atom  79H    basis set group =>   3
Atom  80H    basis set group =>   3
Atom  81H    basis set group =>   3
Atom  82H    basis set group =>   3
Atom  83H    basis set group =>   3
Atom  84H    basis set group =>   3
Atom  85H    basis set group =>   3
Atom  86H    basis set group =>   3
Atom  87H    basis set group =>   3
Atom  88H    basis set group =>   3
Atom  89H    basis set group =>   3


           ************************************************************
           *        Program running with 8 parallel MPI-processes     *
           *              working on a common directory               *
           ************************************************************
------------------------------------------------------------------------------
                           ORCA GTO INTEGRAL CALCULATION
------------------------------------------------------------------------------
------------------------------------------------------------------------------
                   ___                                                        
                  /   \      - P O W E R E D   B Y -                         
                 /     \                                                     
                 |  |  |   _    _      __       _____    __    __             
                 |  |  |  | |  | |    /  \     |  _  \  |  |  /  |          
                  \  \/   | |  | |   /    \    | | | |  |  | /  /          
                 / \  \   | |__| |  /  /\  \   | |_| |  |  |/  /          
                |  |  |   |  __  | /  /__\  \  |    /   |      \           
                |  |  |   | |  | | |   __   |  |    \   |  |\   \          
                \     /   | |  | | |  |  |  |  | |\  \  |  | \   \       
                 \___/    |_|  |_| |__|  |__|  |_| \__\ |__|  \__/        
                                                                              
                      - O R C A' S   B I G   F R I E N D -                    
                                      &                                       
                       - I N T E G R A L  F E E D E R -                       
                                                                              
 v1 FN, 2020, v2 2021                                                         
------------------------------------------------------------------------------


Reading SHARK input file /scratch/chu_02/allen/tmpyp4_amber_gaff2/conf1/conf1/Conf296.orca.SHARKINP.tmp ... ok
----------------------
SHARK INTEGRAL PACKAGE
----------------------

Number of atoms                             ...     90
Number of basis functions                   ...   1230
Number of shells                            ...    738
Maximum angular momentum                    ...      2
Integral batch strategy                     ... SHARK/LIBINT Hybrid
RI-J (if used) integral strategy            ... SPLIT-RIJ (Revised 2003 algorithm where possible)
Printlevel                                  ...      1
Contraction scheme used                     ... PARTIAL GENERAL contraction
Coulomb Range Separation                    ... NOT USED
Exchange Range Separation                   ... NOT USED
Finite Nucleus Model                        ... NOT USED
Auxiliary Coulomb fitting basis             ... NOT available
Auxiliary J/K fitting basis                 ... NOT available
Auxiliary Correlation fitting basis         ... NOT available
Auxiliary 'external' fitting basis          ... NOT available
Integral threshold                          ...     2.500000e-11
Primitive cut-off                           ...     2.500000e-12
Primitive pair pre-selection threshold      ...     2.500000e-12

Calculating pre-screening integrals         ... done (  0.1 sec) Dimension = 738
Calculating pre-screening integrals (ORCA)  ... done (  0.3 sec) Dimension = 426
Organizing shell pair data                  ... done (  0.5 sec)
Shell pair information
Total number of shell pairs                 ...    272691
Shell pairs after pre-screening             ...     71590
Total number of primitive shell pairs       ...    422091
Primitive shell pairs kept                  ...     92345
          la=0 lb=0:  29406 shell pairs
          la=1 lb=0:  25960 shell pairs
          la=1 lb=1:   4694 shell pairs
          la=2 lb=0:   7877 shell pairs
          la=2 lb=1:   3122 shell pairs
          la=2 lb=2:    531 shell pairs

Calculating one electron integrals          ... done (  0.2 sec)
Calculating Nuclear repulsion               ... done (  0.0 sec) ENN=   6223.792881481934 Eh

SHARK setup successfully completed in   1.6 seconds

Maximum memory used throughout the entire GTOINT-calculation: 99.0 MB


           ************************************************************
           *        Program running with 8 parallel MPI-processes     *
           *              working on a common directory               *
           ************************************************************
-------------------------------------------------------------------------------
                                 ORCA SCF
-------------------------------------------------------------------------------

------------
SCF SETTINGS
------------
Hamiltonian:
 Ab initio Hamiltonian  Method          .... Hartree-Fock(GTOs)


General Settings:
 Integral files         IntName         .... /scratch/chu_02/allen/tmpyp4_amber_gaff2/conf1/conf1/Conf296.orca
 Hartree-Fock type      HFTyp           .... RHF
 Total Charge           Charge          ....    0
 Multiplicity           Mult            ....    1
 Number of Electrons    NEL             ....  358
 Basis Dimension        Dim             ....  918
 Nuclear Repulsion      ENuc            ....   6223.7928814819 Eh

Convergence Acceleration:
 DIIS                   CNVDIIS         .... on
   Start iteration      DIISMaxIt       ....    12
   Startup error        DIISStart       ....  0.200000
   # of expansion vecs  DIISMaxEq       ....     5
   Bias factor          DIISBfac        ....   1.050
   Max. coefficient     DIISMaxC        ....  10.000
 Trust-Rad. Augm. Hess. CNVTRAH         .... auto
   Auto Start mean grad. ratio tolernc. ....  1.125000
   Auto Start start iteration           ....    20
   Auto Start num. interpolation iter.  ....    10
   Max. Number of Micro iterations      ....    16
   Max. Number of Macro iterations      .... Maxiter - #DIIS iter
   Number of Davidson start vectors     ....     2
   Converg. threshold I  (grad. norm)   ....   1.000e-05
   Converg. threshold II (energy diff.) ....   1.000e-08
   Grad. Scal. Fac. for Micro threshold ....   0.100
   Minimum threshold for Micro iter.    ....   0.010
   NR start threshold (gradient norm)   ....   0.001
   Initial trust radius                 ....   0.400
   Minimum AH scaling param. (alpha)    ....   1.000
   Maximum AH scaling param. (alpha)    .... 1000.000
   Orbital update algorithm             .... Taylor
   White noise on init. David. guess    .... on
   Maximum white noise                  ....   0.010
   Quad. conv. algorithm                .... NR
 SOSCF                  CNVSOSCF        .... on
   Start iteration      SOSCFMaxIt      ....   150
   Startup grad/error   SOSCFStart      ....  0.003300
 Level Shifting         CNVShift        .... on
   Level shift para.    LevelShift      ....    0.2500
   Turn off err/grad.   ShiftErr        ....    0.0010
 Zerner damping         CNVZerner       .... off
 Static damping         CNVDamp         .... on
   Fraction old density DampFac         ....    0.7000
   Max. Damping (<1)    DampMax         ....    0.9800
   Min. Damping (>=0)   DampMin         ....    0.0000
   Turn off err/grad.   DampErr         ....    0.1000
 Fernandez-Rico         CNVRico         .... off

SCF Procedure:
 Maximum # iterations   MaxIter         ....   125
 SCF integral mode      SCFMode         .... Direct
   Integral package                     .... SHARK and LIBINT hybrid scheme
 Reset frequency        DirectResetFreq ....    20
 Integral Threshold     Thresh          ....  2.500e-11 Eh
 Primitive CutOff       TCut            ....  2.500e-12 Eh

Convergence Tolerance:
 Convergence Check Mode ConvCheckMode   .... Total+1el-Energy
 Convergence forced     ConvForced      .... 1
 Energy Change          TolE            ....  1.000e-08 Eh
 1-El. energy change                    ....  1.000e-05 Eh
 Orbital Gradient       TolG            ....  1.000e-05
 Orbital Rotation angle TolX            ....  1.000e-05
 DIIS Error             TolErr          ....  5.000e-07


Diagonalization of the overlap matrix:
Smallest eigenvalue                        ... 2.258e-04
Time for diagonalization                   ...    0.208 sec
Threshold for overlap eigenvalues          ... 1.000e-08
Number of eigenvalues below threshold      ... 0
Time for construction of square roots      ...    0.122 sec
Total time needed                          ...    0.335 sec

Time for model grid setup =    1.354 sec

------------------------------
INITIAL GUESS: MODEL POTENTIAL
------------------------------
Loading Hartree-Fock densities                     ... done
Calculating cut-offs                               ... done
Initializing the effective Hamiltonian             ... done
Setting up the integral package (SHARK)            ... done
Starting the Coulomb interaction                   ... done (   1.6 sec)
Reading the grid                                   ... done
Mapping shells                                     ... done
Starting the XC term evaluation                    ... done (   0.3 sec)
Transforming the Hamiltonian                       ... done (   0.1 sec)
Diagonalizing the Hamiltonian                      ... done (   0.2 sec)
Back transforming the eigenvectors                 ... done (   0.0 sec)
Now organizing SCF variables                       ... done
                      ------------------
                      INITIAL GUESS DONE (   3.7 sec)
                      ------------------
--------------
SCF ITERATIONS
--------------
ITER       Energy         Delta-E        Max-DP      RMS-DP      [F,P]     Damp
               ***  Starting incremental Fock matrix formation  ***
  0  -2121.6652726903   0.000000000000 0.06912904  0.00120975  0.2333943 0.7000
  1  -2122.3323164205  -0.667043730180 0.05247248  0.00098076  0.1443738 0.7000
                               ***Turning on DIIS***
  2  -2122.7466259572  -0.414309536731 0.11635326  0.00222010  0.0803055 0.0000
  3  -2117.7016447338   5.044981223398 0.03072313  0.00068444  0.0443472 0.0000
  4  -2123.4079359891  -5.706291255308 0.00880904  0.00022893  0.0069662 0.0000
  5  -2123.5902739389  -0.182337949760 0.00505746  0.00013588  0.0049152 0.0000
  6  -2123.5724596542   0.017814284660 0.00320279  0.00008905  0.0019290 0.0000
  7  -2123.6777473866  -0.105287732373 0.00268735  0.00007125  0.0014789 0.0000
  8  -2123.6997599998  -0.022012613164 0.00262178  0.00006817  0.0013647 0.0000
  9  -2123.6621040394   0.037655960348 0.00213770  0.00004710  0.0010642 0.0000
 10  -2123.6791497748  -0.017045735351 0.00453892  0.00009494  0.0008032 0.0000
                      *** Initiating the SOSCF procedure ***
                           *** Shutting down DIIS ***
                      *** Re-Reading the Fockian *** 
                      *** Removing any level shift *** 
ITER      Energy       Delta-E        Grad      Rot      Max-DP    RMS-DP
 11  -2123.55167499   0.1274747843  0.000352  0.000352  0.000286  0.000007
               *** Restarting incremental Fock matrix formation ***
 12  -2123.62181320  -0.0701382071  0.001002  0.006851  0.001080  0.000028
 13  -2123.62188058  -0.0000673842  0.001045  0.025487  0.003588  0.000083
 14  -2123.62195334  -0.0000727625  0.000430  0.002962  0.000417  0.000012
 15  -2123.62196350  -0.0000101517  0.000140  0.001769  0.000227  0.000007
 16  -2123.62196581  -0.0000023182  0.000105  0.001827  0.000409  0.000008
 17  -2123.62196761  -0.0000018000  0.000121  0.002601  0.000334  0.000008
 18  -2123.62196875  -0.0000011359  0.000056  0.002987  0.000367  0.000009
 19  -2123.62196999  -0.0000012441  0.000075  0.003627  0.000435  0.000011
 20  -2123.62197096  -0.0000009682  0.000052  0.001348  0.000151  0.000004
 21  -2123.62197124  -0.0000002813  0.000029  0.001032  0.000133  0.000003
 22  -2123.62197142  -0.0000001799  0.000032  0.000379  0.000085  0.000002
 23  -2123.62197151  -0.0000000912  0.000020  0.000300  0.000100  0.000001
 24  -2123.62197155  -0.0000000389  0.000009  0.000066  0.000038  0.000000
 25  -2123.62197158  -0.0000000231  0.000004  0.000052  0.000014  0.000000
 26  -2123.62197158  -0.0000000033  0.000003  0.000047  0.000020  0.000000
                  ***Gradient check signals convergence***
              ***Rediagonalizing the Fockian in SOSCF/NRSCF***

               *****************************************************
               *                     SUCCESS                       *
               *           SCF CONVERGED AFTER  27 CYCLES          *
               *****************************************************


----------------
TOTAL SCF ENERGY
----------------

Total Energy       :        -2123.62197157 Eh          -57786.69167 eV

Components:
Nuclear Repulsion  :         6223.79288148 Eh          169358.01430 eV
Electronic Energy  :        -8347.41485306 Eh         -227144.70597 eV
One Electron Energy:       -15288.87125342 Eh         -416031.33743 eV
Two Electron Energy:         6941.45640037 Eh          188886.63146 eV

Virial components:
Potential Energy   :        -4245.60686398 Eh         -115528.83614 eV
Kinetic Energy     :         2121.98489240 Eh           57742.14448 eV
Virial Ratio       :            2.00077148


---------------
SCF CONVERGENCE
---------------

  Last Energy change         ...    6.7430e-09  Tolerance :   1.0000e-08
  Last MAX-Density change    ...    1.4047e-05  Tolerance :   1.0000e-07
  Last RMS-Density change    ...    1.6423e-07  Tolerance :   5.0000e-09
  Last Orbital Gradient      ...    1.6917e-06  Tolerance :   1.0000e-05
  Last Orbital Rotation      ...    3.1048e-05  Tolerance :   1.0000e-05

             **** THE GBW FILE WAS UPDATED (/scratch/chu_02/allen/tmpyp4_amber_gaff2/conf1/conf1/Conf296.orca.gbw) ****
             **** DENSITY /scratch/chu_02/allen/tmpyp4_amber_gaff2/conf1/conf1/Conf296.orca.scfp WAS UPDATED ****
             **** ENERGY FILE WAS UPDATED (/scratch/chu_02/allen/tmpyp4_amber_gaff2/conf1/conf1/Conf296.orca.en.tmp) ****
             **** THE GBW FILE WAS UPDATED (/scratch/chu_02/allen/tmpyp4_amber_gaff2/conf1/conf1/Conf296.orca.gbw) ****
             **** DENSITY /scratch/chu_02/allen/tmpyp4_amber_gaff2/conf1/conf1/Conf296.orca.scfp WAS UPDATED ****
----------------
ORBITAL ENERGIES
----------------

  NO   OCC          E(Eh)            E(eV) 
   0   2.0000     -15.639605      -425.5753 
   1   2.0000     -15.639584      -425.5747 
   2   2.0000     -15.628055      -425.2610 
   3   2.0000     -15.626826      -425.2276 
   4   2.0000     -15.516123      -422.2152 
   5   2.0000     -15.515843      -422.2075 
   6   2.0000     -15.445068      -420.2817 
   7   2.0000     -15.440559      -420.1590 
   8   2.0000     -11.303048      -307.5716 
   9   2.0000     -11.302738      -307.5631 
  10   2.0000     -11.295471      -307.3654 
  11   2.0000     -11.295226      -307.3587 
  12   2.0000     -11.295177      -307.3574 
  13   2.0000     -11.294962      -307.3515 
  14   2.0000     -11.294259      -307.3324 
  15   2.0000     -11.294003      -307.3254 
  16   2.0000     -11.285597      -307.0967 
  17   2.0000     -11.285573      -307.0961 
  18   2.0000     -11.284196      -307.0586 
  19   2.0000     -11.282688      -307.0176 
  20   2.0000     -11.243205      -305.9432 
  21   2.0000     -11.242881      -305.9343 
  22   2.0000     -11.234522      -305.7069 
  23   2.0000     -11.234177      -305.6975 
  24   2.0000     -11.234006      -305.6928 
  25   2.0000     -11.233830      -305.6881 
  26   2.0000     -11.232261      -305.6454 
  27   2.0000     -11.231759      -305.6317 
  28   2.0000     -11.225833      -305.4704 
  29   2.0000     -11.225736      -305.4678 
  30   2.0000     -11.225358      -305.4575 
  31   2.0000     -11.224508      -305.4344 
  32   2.0000     -11.196612      -304.6753 
  33   2.0000     -11.196443      -304.6707 
  34   2.0000     -11.196376      -304.6689 
  35   2.0000     -11.196169      -304.6633 
  36   2.0000     -11.174322      -304.0688 
  37   2.0000     -11.174269      -304.0673 
  38   2.0000     -11.170958      -303.9772 
  39   2.0000     -11.170590      -303.9672 
  40   2.0000     -11.166299      -303.8504 
  41   2.0000     -11.166081      -303.8445 
  42   2.0000     -11.165078      -303.8172 
  43   2.0000     -11.164928      -303.8131 
  44   2.0000     -11.156446      -303.5823 
  45   2.0000     -11.156106      -303.5731 
  46   2.0000     -11.153987      -303.5154 
  47   2.0000     -11.153813      -303.5107 
  48   2.0000     -11.145893      -303.2952 
  49   2.0000     -11.144430      -303.2554 
  50   2.0000     -11.137220      -303.0592 
  51   2.0000     -11.135767      -303.0196 
  52   2.0000      -1.326074       -36.0843 
  53   2.0000      -1.325967       -36.0814 
  54   2.0000      -1.315885       -35.8070 
  55   2.0000      -1.315100       -35.7857 
  56   2.0000      -1.215200       -33.0673 
  57   2.0000      -1.213188       -33.0125 
  58   2.0000      -1.162350       -31.6292 
  59   2.0000      -1.154204       -31.4075 
  60   2.0000      -1.115859       -30.3641 
  61   2.0000      -1.111630       -30.2490 
  62   2.0000      -1.106399       -30.1066 
  63   2.0000      -1.102494       -30.0004 
  64   2.0000      -1.049900       -28.5692 
  65   2.0000      -1.049719       -28.5643 
  66   2.0000      -1.040396       -28.3106 
  67   2.0000      -1.039802       -28.2945 
  68   2.0000      -1.025984       -27.9184 
  69   2.0000      -1.010676       -27.5019 
  70   2.0000      -1.007333       -27.4109 
  71   2.0000      -0.998496       -27.1705 
  72   2.0000      -0.978969       -26.6391 
  73   2.0000      -0.977334       -26.5946 
  74   2.0000      -0.967307       -26.3218 
  75   2.0000      -0.962106       -26.1802 
  76   2.0000      -0.951373       -25.8882 
  77   2.0000      -0.944430       -25.6992 
  78   2.0000      -0.936997       -25.4970 
  79   2.0000      -0.923126       -25.1195 
  80   2.0000      -0.891636       -24.2626 
  81   2.0000      -0.877576       -23.8801 
  82   2.0000      -0.875552       -23.8250 
  83   2.0000      -0.868393       -23.6302 
  84   2.0000      -0.865812       -23.5599 
  85   2.0000      -0.856397       -23.3037 
  86   2.0000      -0.850354       -23.1393 
  87   2.0000      -0.842154       -22.9162 
  88   2.0000      -0.821951       -22.3664 
  89   2.0000      -0.797775       -21.7085 
  90   2.0000      -0.797601       -21.7038 
  91   2.0000      -0.738862       -20.1055 
  92   2.0000      -0.727642       -19.8001 
  93   2.0000      -0.727307       -19.7910 
  94   2.0000      -0.722857       -19.6699 
  95   2.0000      -0.717624       -19.5275 
  96   2.0000      -0.711281       -19.3549 
  97   2.0000      -0.710651       -19.3378 
  98   2.0000      -0.697561       -18.9816 
  99   2.0000      -0.690651       -18.7936 
 100   2.0000      -0.683340       -18.5946 
 101   2.0000      -0.681081       -18.5332 
 102   2.0000      -0.679733       -18.4965 
 103   2.0000      -0.672885       -18.3101 
 104   2.0000      -0.668945       -18.2029 
 105   2.0000      -0.668154       -18.1814 
 106   2.0000      -0.661396       -17.9975 
 107   2.0000      -0.659230       -17.9386 
 108   2.0000      -0.657272       -17.8853 
 109   2.0000      -0.654647       -17.8138 
 110   2.0000      -0.651431       -17.7263 
 111   2.0000      -0.650608       -17.7039 
 112   2.0000      -0.648152       -17.6371 
 113   2.0000      -0.646587       -17.5945 
 114   2.0000      -0.633867       -17.2484 
 115   2.0000      -0.623197       -16.9581 
 116   2.0000      -0.616719       -16.7818 
 117   2.0000      -0.616442       -16.7742 
 118   2.0000      -0.610300       -16.6071 
 119   2.0000      -0.608149       -16.5486 
 120   2.0000      -0.607548       -16.5322 
 121   2.0000      -0.606782       -16.5114 
 122   2.0000      -0.602134       -16.3849 
 123   2.0000      -0.594693       -16.1824 
 124   2.0000      -0.585291       -15.9266 
 125   2.0000      -0.584954       -15.9174 
 126   2.0000      -0.577718       -15.7205 
 127   2.0000      -0.577073       -15.7030 
 128   2.0000      -0.568076       -15.4581 
 129   2.0000      -0.564718       -15.3668 
 130   2.0000      -0.553276       -15.0554 
 131   2.0000      -0.541384       -14.7318 
 132   2.0000      -0.541066       -14.7232 
 133   2.0000      -0.534750       -14.5513 
 134   2.0000      -0.533845       -14.5267 
 135   2.0000      -0.529918       -14.4198 
 136   2.0000      -0.524421       -14.2702 
 137   2.0000      -0.522587       -14.2203 
 138   2.0000      -0.517850       -14.0914 
 139   2.0000      -0.514418       -13.9980 
 140   2.0000      -0.509918       -13.8756 
 141   2.0000      -0.507412       -13.8074 
 142   2.0000      -0.503162       -13.6917 
 143   2.0000      -0.501849       -13.6560 
 144   2.0000      -0.497540       -13.5387 
 145   2.0000      -0.497114       -13.5272 
 146   2.0000      -0.496066       -13.4986 
 147   2.0000      -0.494555       -13.4575 
 148   2.0000      -0.490502       -13.3472 
 149   2.0000      -0.467740       -12.7279 
 150   2.0000      -0.459691       -12.5088 
 151   2.0000      -0.451046       -12.2736 
 152   2.0000      -0.446004       -12.1364 
 153   2.0000      -0.445813       -12.1312 
 154   2.0000      -0.444362       -12.0917 
 155   2.0000      -0.439501       -11.9594 
 156   2.0000      -0.434939       -11.8353 
 157   2.0000      -0.429742       -11.6939 
 158   2.0000      -0.388867       -10.5816 
 159   2.0000      -0.383204       -10.4275 
 160   2.0000      -0.375352       -10.2139 
 161   2.0000      -0.373828       -10.1724 
 162   2.0000      -0.360246        -9.8028 
 163   2.0000      -0.359957        -9.7949 
 164   2.0000      -0.352090        -9.5809 
 165   2.0000      -0.351692        -9.5700 
 166   2.0000      -0.337602        -9.1866 
 167   2.0000      -0.332651        -9.0519 
 168   2.0000      -0.326676        -8.8893 
 169   2.0000      -0.300163        -8.1678 
 170   2.0000      -0.291741        -7.9387 
 171   2.0000      -0.291088        -7.9209 
 172   2.0000      -0.287033        -7.8106 
 173   2.0000      -0.255369        -6.9490 
 174   2.0000      -0.245889        -6.6910 
 175   2.0000      -0.187140        -5.0923 
 176   2.0000      -0.176832        -4.8118 
 177   2.0000      -0.064306        -1.7498 
 178   2.0000      -0.053581        -1.4580 
 179   0.0000       0.031982         0.8703 
 180   0.0000       0.070113         1.9079 
 181   0.0000       0.092778         2.5246 
 182   0.0000       0.095490         2.5984 
 183   0.0000       0.133842         3.6420 
 184   0.0000       0.134183         3.6513 
 185   0.0000       0.142535         3.8786 
 186   0.0000       0.143265         3.8984 
 187   0.0000       0.161156         4.3853 
 188   0.0000       0.162211         4.4140 
 189   0.0000       0.162371         4.4183 
 190   0.0000       0.168383         4.5819 
 191   0.0000       0.168829         4.5941 
 192   0.0000       0.201460         5.4820 
 193   0.0000       0.201874         5.4933 
 194   0.0000       0.205612         5.5950 
 195   0.0000       0.205949         5.6042 
 196   0.0000       0.208352         5.6695 
 197   0.0000       0.209027         5.6879 
 198   0.0000       0.211752         5.7621 
 199   0.0000       0.212300         5.7770 
 200   0.0000       0.236453         6.4342 
 201   0.0000       0.237294         6.4571 
 202   0.0000       0.242356         6.5948 
 203   0.0000       0.243282         6.6200 
 204   0.0000       0.253166         6.8890 
 205   0.0000       0.254155         6.9159 
 206   0.0000       0.258679         7.0390 
 207   0.0000       0.260101         7.0777 
 208   0.0000       0.261140         7.1060 
 209   0.0000       0.265299         7.2192 
 210   0.0000       0.266161         7.2426 
 211   0.0000       0.270252         7.3539 
 212   0.0000       0.273774         7.4498 
 213   0.0000       0.275105         7.4860 
 214   0.0000       0.278822         7.5871 
 215   0.0000       0.279276         7.5995 
 216   0.0000       0.281931         7.6717 
 217   0.0000       0.283420         7.7123 
 218   0.0000       0.284142         7.7319 
 219   0.0000       0.288820         7.8592 
 220   0.0000       0.291157         7.9228 
 221   0.0000       0.292391         7.9564 
 222   0.0000       0.293413         7.9842 
 223   0.0000       0.294660         8.0181 
 224   0.0000       0.300115         8.1665 
 225   0.0000       0.300981         8.1901 
 226   0.0000       0.302497         8.2314 
 227   0.0000       0.303211         8.2508 
 228   0.0000       0.303561         8.2603 
 229   0.0000       0.307364         8.3638 
 230   0.0000       0.313571         8.5327 
 231   0.0000       0.318310         8.6617 
 232   0.0000       0.325756         8.8643 
 233   0.0000       0.329464         8.9652 
 234   0.0000       0.329814         8.9747 
 235   0.0000       0.335893         9.1401 
 236   0.0000       0.357045         9.7157 
 237   0.0000       0.385310        10.4848 
 238   0.0000       0.397393        10.8136 
 239   0.0000       0.398989        10.8570 
 240   0.0000       0.404672        11.0117 
 241   0.0000       0.410334        11.1658 
 242   0.0000       0.421167        11.4605 
 243   0.0000       0.425408        11.5759 
 244   0.0000       0.430603        11.7173 
 245   0.0000       0.434689        11.8285 
 246   0.0000       0.436742        11.8844 
 247   0.0000       0.437889        11.9156 
 248   0.0000       0.438547        11.9335 
 249   0.0000       0.444530        12.0963 
 250   0.0000       0.444951        12.1077 
 251   0.0000       0.445949        12.1349 
 252   0.0000       0.454784        12.3753 
 253   0.0000       0.469076        12.7642 
 254   0.0000       0.469964        12.7884 
 255   0.0000       0.476738        12.9727 
 256   0.0000       0.478116        13.0102 
 257   0.0000       0.487828        13.2745 
 258   0.0000       0.488515        13.2932 
 259   0.0000       0.497568        13.5395 
 260   0.0000       0.501687        13.6516 
 261   0.0000       0.504224        13.7206 
 262   0.0000       0.506215        13.7748 
 263   0.0000       0.510145        13.8818 
 264   0.0000       0.511838        13.9278 
 265   0.0000       0.514387        13.9972 
 266   0.0000       0.516013        14.0414 
 267   0.0000       0.521179        14.1820 
 268   0.0000       0.535719        14.5777 
 269   0.0000       0.538738        14.6598 
 270   0.0000       0.541536        14.7360 
 271   0.0000       0.545492        14.8436 
 272   0.0000       0.550275        14.9737 
 273   0.0000       0.551654        15.0113 
 274   0.0000       0.561722        15.2852 
 275   0.0000       0.562152        15.2969 
 276   0.0000       0.572866        15.5885 
 277   0.0000       0.576619        15.6906 
 278   0.0000       0.582485        15.8502 
 279   0.0000       0.586276        15.9534 
 280   0.0000       0.589732        16.0474 
 281   0.0000       0.590621        16.0716 
 282   0.0000       0.593603        16.1528 
 283   0.0000       0.596225        16.2241 
 284   0.0000       0.598475        16.2853 
 285   0.0000       0.604064        16.4374 
 286   0.0000       0.605199        16.4683 
 287   0.0000       0.607084        16.5196 
 288   0.0000       0.609317        16.5804 
 289   0.0000       0.613704        16.6997 
 290   0.0000       0.616746        16.7825 
 291   0.0000       0.627811        17.0836 
 292   0.0000       0.638611        17.3775 
 293   0.0000       0.641718        17.4620 
 294   0.0000       0.645878        17.5752 
 295   0.0000       0.647099        17.6085 
 296   0.0000       0.655810        17.8455 
 297   0.0000       0.658873        17.9289 
 298   0.0000       0.662938        18.0395 
 299   0.0000       0.664084        18.0706 
 300   0.0000       0.672476        18.2990 
 301   0.0000       0.672948        18.3118 
 302   0.0000       0.674486        18.3537 
 303   0.0000       0.681268        18.5382 
 304   0.0000       0.682844        18.5811 
 305   0.0000       0.685976        18.6664 
 306   0.0000       0.688836        18.7442 
 307   0.0000       0.697717        18.9858 
 308   0.0000       0.699537        19.0354 
 309   0.0000       0.701142        19.0791 
 310   0.0000       0.702894        19.1267 
 311   0.0000       0.705616        19.2008 
 312   0.0000       0.707627        19.2555 
 313   0.0000       0.709274        19.3003 
 314   0.0000       0.712046        19.3757 
 315   0.0000       0.713291        19.4096 
 316   0.0000       0.715904        19.4807 
 317   0.0000       0.718091        19.5402 
 318   0.0000       0.720183        19.5972 
 319   0.0000       0.720537        19.6068 
 320   0.0000       0.724412        19.7123 
 321   0.0000       0.727868        19.8063 
 322   0.0000       0.730480        19.8774 
 323   0.0000       0.733168        19.9505 
 324   0.0000       0.739368        20.1192 
 325   0.0000       0.742245        20.1975 
 326   0.0000       0.743558        20.2332 
 327   0.0000       0.744904        20.2699 
 328   0.0000       0.746667        20.3178 
 329   0.0000       0.748728        20.3739 
 330   0.0000       0.752688        20.4817 
 331   0.0000       0.754689        20.5361 
 332   0.0000       0.756706        20.5910 
 333   0.0000       0.758780        20.6475 
 334   0.0000       0.764665        20.8076 
 335   0.0000       0.766463        20.8565 
 336   0.0000       0.774764        21.0824 
 337   0.0000       0.778942        21.1961 
 338   0.0000       0.782718        21.2988 
 339   0.0000       0.788012        21.4429 
 340   0.0000       0.791156        21.5285 
 341   0.0000       0.794515        21.6198 
 342   0.0000       0.796506        21.6740 
 343   0.0000       0.799507        21.7557 
 344   0.0000       0.802368        21.8336 
 345   0.0000       0.808596        22.0030 
 346   0.0000       0.810941        22.0668 
 347   0.0000       0.811258        22.0755 
 348   0.0000       0.813874        22.1466 
 349   0.0000       0.815930        22.2026 
 350   0.0000       0.818530        22.2733 
 351   0.0000       0.821869        22.3642 
 352   0.0000       0.825289        22.4573 
 353   0.0000       0.828545        22.5459 
 354   0.0000       0.831487        22.6259 
 355   0.0000       0.832655        22.6577 
 356   0.0000       0.833120        22.6703 
 357   0.0000       0.834670        22.7125 
 358   0.0000       0.837362        22.7858 
 359   0.0000       0.838578        22.8189 
 360   0.0000       0.839054        22.8318 
 361   0.0000       0.842818        22.9342 
 362   0.0000       0.844866        22.9900 
 363   0.0000       0.845290        23.0015 
 364   0.0000       0.847169        23.0526 
 365   0.0000       0.847793        23.0696 
 366   0.0000       0.849449        23.1147 
 367   0.0000       0.852821        23.2064 
 368   0.0000       0.856659        23.3109 
 369   0.0000       0.860403        23.4128 
 370   0.0000       0.862385        23.4667 
 371   0.0000       0.865807        23.5598 
 372   0.0000       0.870590        23.6900 
 373   0.0000       0.877604        23.8808 
 374   0.0000       0.879751        23.9392 
 375   0.0000       0.881446        23.9854 
 376   0.0000       0.885379        24.0924 
 377   0.0000       0.891706        24.2645 
 378   0.0000       0.896735        24.4014 
 379   0.0000       0.897199        24.4140 
 380   0.0000       0.899053        24.4645 
 381   0.0000       0.901089        24.5199 
 382   0.0000       0.903256        24.5788 
 383   0.0000       0.904695        24.6180 
 384   0.0000       0.907099        24.6834 
 385   0.0000       0.908371        24.7180 
 386   0.0000       0.908640        24.7254 
 387   0.0000       0.909886        24.7593 
 388   0.0000       0.913179        24.8489 
 389   0.0000       0.913598        24.8603 
 390   0.0000       0.917367        24.9628 
 391   0.0000       0.919922        25.0323 
 392   0.0000       0.922438        25.1008 
 393   0.0000       0.924456        25.1557 
 394   0.0000       0.926639        25.2151 
 395   0.0000       0.931276        25.3413 
 396   0.0000       0.932799        25.3828 
 397   0.0000       0.936293        25.4778 
 398   0.0000       0.938568        25.5397 
 399   0.0000       0.940764        25.5995 
 400   0.0000       0.943903        25.6849 
 401   0.0000       0.945406        25.7258 
 402   0.0000       0.946603        25.7584 
 403   0.0000       0.949721        25.8432 
 404   0.0000       0.954324        25.9685 
 405   0.0000       0.954652        25.9774 
 406   0.0000       0.955926        26.0121 
 407   0.0000       0.964577        26.2475 
 408   0.0000       0.968135        26.3443 
 409   0.0000       0.969048        26.3691 
 410   0.0000       0.973559        26.4919 
 411   0.0000       0.977183        26.5905 
 412   0.0000       0.982962        26.7477 
 413   0.0000       0.986932        26.8558 
 414   0.0000       0.989723        26.9317 
 415   0.0000       0.991964        26.9927 
 416   0.0000       0.999184        27.1892 
 417   0.0000       1.002140        27.2696 
 418   0.0000       1.010493        27.4969 
 419   0.0000       1.012592        27.5540 
 420   0.0000       1.024182        27.8694 
 421   0.0000       1.027734        27.9661 
 422   0.0000       1.030427        28.0393 
 423   0.0000       1.038843        28.2684 
 424   0.0000       1.044767        28.4296 
 425   0.0000       1.047325        28.4992 
 426   0.0000       1.052550        28.6413 
 427   0.0000       1.062994        28.9255 
 428   0.0000       1.065977        29.0067 
 429   0.0000       1.076945        29.3052 
 430   0.0000       1.078758        29.3545 
 431   0.0000       1.082485        29.4559 
 432   0.0000       1.084254        29.5041 
 433   0.0000       1.090203        29.6659 
 434   0.0000       1.091674        29.7059 
 435   0.0000       1.106423        30.1073 
 436   0.0000       1.108946        30.1760 
 437   0.0000       1.112416        30.2704 
 438   0.0000       1.115209        30.3464 
 439   0.0000       1.118043        30.4235 
 440   0.0000       1.121490        30.5173 
 441   0.0000       1.124735        30.6056 
 442   0.0000       1.130248        30.7556 
 443   0.0000       1.133172        30.8352 
 444   0.0000       1.134494        30.8711 
 445   0.0000       1.135247        30.8917 
 446   0.0000       1.137553        30.9544 
 447   0.0000       1.139020        30.9943 
 448   0.0000       1.143024        31.1033 
 449   0.0000       1.146621        31.2011 
 450   0.0000       1.149689        31.2846 
 451   0.0000       1.152390        31.3581 
 452   0.0000       1.154118        31.4052 
 453   0.0000       1.160155        31.5694 
 454   0.0000       1.161902        31.6170 
 455   0.0000       1.162429        31.6313 
 456   0.0000       1.177287        32.0356 
 457   0.0000       1.179353        32.0918 
 458   0.0000       1.180508        32.1233 
 459   0.0000       1.183318        32.1997 
 460   0.0000       1.185459        32.2580 
 461   0.0000       1.193525        32.4775 
 462   0.0000       1.196362        32.5547 
 463   0.0000       1.207452        32.8565 
 464   0.0000       1.207961        32.8703 
 465   0.0000       1.209858        32.9219 
 466   0.0000       1.216210        33.0947 
 467   0.0000       1.217937        33.1418 
 468   0.0000       1.223096        33.2821 
 469   0.0000       1.228347        33.4250 
 470   0.0000       1.234500        33.5924 
 471   0.0000       1.236552        33.6483 
 472   0.0000       1.238409        33.6988 
 473   0.0000       1.241220        33.7753 
 474   0.0000       1.242972        33.8230 
 475   0.0000       1.248808        33.9818 
 476   0.0000       1.249523        34.0013 
 477   0.0000       1.251931        34.0668 
 478   0.0000       1.255428        34.1619 
 479   0.0000       1.256567        34.1929 
 480   0.0000       1.260149        34.2904 
 481   0.0000       1.261892        34.3378 
 482   0.0000       1.266648        34.4672 
 483   0.0000       1.270480        34.5715 
 484   0.0000       1.275943        34.7202 
 485   0.0000       1.279246        34.8100 
 486   0.0000       1.282053        34.8864 
 487   0.0000       1.286679        35.0123 
 488   0.0000       1.289465        35.0881 
 489   0.0000       1.291185        35.1349 
 490   0.0000       1.293688        35.2030 
 491   0.0000       1.294248        35.2183 
 492   0.0000       1.302980        35.4559 
 493   0.0000       1.307961        35.5914 
 494   0.0000       1.309350        35.6292 
 495   0.0000       1.317057        35.8389 
 496   0.0000       1.318310        35.8730 
 497   0.0000       1.325061        36.0567 
 498   0.0000       1.328035        36.1377 
 499   0.0000       1.329202        36.1694 
 500   0.0000       1.334968        36.3263 
 501   0.0000       1.336715        36.3739 
 502   0.0000       1.342129        36.5212 
 503   0.0000       1.343754        36.5654 
 504   0.0000       1.350021        36.7359 
 505   0.0000       1.351642        36.7801 
 506   0.0000       1.353355        36.8267 
 507   0.0000       1.355196        36.8768 
 508   0.0000       1.356983        36.9254 
 509   0.0000       1.358609        36.9696 
[...]
 76 H s       :     0.893700  s :     0.893700
      pz      :     0.021923  p :     0.079500
      px      :     0.043197
      py      :     0.014379
 77 H s       :     0.890601  s :     0.890601
      pz      :     0.047511  p :     0.078760
      px      :     0.015009
      py      :     0.016240
 78 H s       :     0.891017  s :     0.891017
      pz      :     0.025643  p :     0.078690
      px      :     0.020591
      py      :     0.032455
 79 H s       :     0.908521  s :     0.908521
      pz      :     0.022199  p :     0.086831
      px      :     0.021802
      py      :     0.042830
 80 H s       :     0.872889  s :     0.872889
      pz      :     0.038702  p :     0.083895
      px      :     0.029822
      py      :     0.015371
 81 H s       :     0.887273  s :     0.887273
      pz      :     0.037731  p :     0.083749
      px      :     0.016115
      py      :     0.029904
 82 H s       :     0.915017  s :     0.915017
      pz      :     0.022203  p :     0.086917
      px      :     0.031253
      py      :     0.033460
 83 H s       :     0.872367  s :     0.872367
      pz      :     0.039249  p :     0.083942
      px      :     0.015247
      py      :     0.029446
 84 H s       :     0.887267  s :     0.887267
      pz      :     0.035804  p :     0.083849
      px      :     0.031741
      py      :     0.016305
 85 H s       :     0.893977  s :     0.893977
      pz      :     0.022505  p :     0.079711
      px      :     0.014094
      py      :     0.043112
 86 H s       :     0.890605  s :     0.890605
      pz      :     0.024725  p :     0.078880
      px      :     0.033005
      py      :     0.021150
 87 H s       :     0.890217  s :     0.890217
      pz      :     0.047950  p :     0.078696
      px      :     0.015618
      py      :     0.015129
 88 H s       :     0.915070  s :     0.915070
      pz      :     0.022210  p :     0.086932
      px      :     0.042376
      py      :     0.022347
 89 H s       :     0.872438  s :     0.872438
      pz      :     0.037914  p :     0.083958
      px      :     0.030519
      py      :     0.015524


                      *****************************
                      * MAYER POPULATION ANALYSIS *
                      *****************************

  NA   - Mulliken gross atomic population
  ZA   - Total nuclear charge
  QA   - Mulliken gross atomic charge
  VA   - Mayer's total valence
  BVA  - Mayer's bonded valence
  FA   - Mayer's free valence

  ATOM       NA         ZA         QA         VA         BVA        FA
  0 C      5.7906     6.0000     0.2094     3.8254     3.8254    -0.0000
  1 N      7.4377     7.0000    -0.4377     3.3847     3.3847    -0.0000
  2 C      6.0661     6.0000    -0.0661     3.9174     3.9174     0.0000
  3 N      7.3392     7.0000    -0.3392     3.4404     3.4404     0.0000
  4 C      6.0819     6.0000    -0.0819     3.9834     3.9834     0.0000
  5 N      7.5629     7.0000    -0.5629     3.0824     3.0824     0.0000
  6 C      6.0505     6.0000    -0.0505     3.9901     3.9901     0.0000
  7 N      7.3379     7.0000    -0.3379     3.4416     3.4416     0.0000
  8 C      5.7926     6.0000     0.2074     3.8236     3.8236    -0.0000
  9 N      7.5634     7.0000    -0.5634     3.0858     3.0858     0.0000
 10 C      5.8873     6.0000     0.1127     3.8896     3.8896     0.0000
 11 N      7.4373     7.0000    -0.4373     3.3851     3.3851    -0.0000
 12 C      6.0653     6.0000    -0.0653     3.9155     3.9155     0.0000
 13 N      7.4415     7.0000    -0.4415     3.3697     3.3697     0.0000
 14 C      5.7677     6.0000     0.2323     3.7984     3.7984    -0.0000
 15 N      7.4406     7.0000    -0.4406     3.3717     3.3717    -0.0000
 16 C      5.7611     6.0000     0.2389     3.7931     3.7931     0.0000
 17 C      6.0552     6.0000    -0.0552     3.9886     3.9886    -0.0000
 18 C      6.1909     6.0000    -0.1909     3.7351     3.7351    -0.0000
 19 C      5.7742     6.0000     0.2258     3.8855     3.8855    -0.0000
 20 C      5.7941     6.0000     0.2059     3.8242     3.8242    -0.0000
 21 C      6.0724     6.0000    -0.0724     3.9033     3.9033    -0.0000
 22 C      6.0854     6.0000    -0.0854     3.9839     3.9839    -0.0000
 23 C      6.0518     6.0000    -0.0518     3.9893     3.9893    -0.0000
 24 C      5.7909     6.0000     0.2091     3.8242     3.8242    -0.0000
 25 C      5.8863     6.0000     0.1137     3.8896     3.8896     0.0000
 26 C      6.0729     6.0000    -0.0729     3.9030     3.9030     0.0000
 27 C      5.7730     6.0000     0.2270     3.8874     3.8874     0.0000
 28 C      6.0499     6.0000    -0.0499     3.9880     3.9880    -0.0000
 29 C      6.1873     6.0000    -0.1873     3.7327     3.7327    -0.0000
 30 C      5.7668     6.0000     0.2332     3.7907     3.7907    -0.0000
 31 C      5.7925     6.0000     0.2075     3.8282     3.8282    -0.0000
 32 C      6.0651     6.0000    -0.0651     3.9168     3.9168     0.0000
 33 C      6.0847     6.0000    -0.0847     3.9849     3.9849     0.0000
 34 C      6.0499     6.0000    -0.0499     3.9932     3.9932    -0.0000
 35 C      5.8000     6.0000     0.2000     3.8258     3.8258    -0.0000
 36 C      5.8848     6.0000     0.1152     3.8945     3.8945     0.0000
 37 C      6.0671     6.0000    -0.0671     3.9173     3.9173     0.0000
 38 C      5.7616     6.0000     0.2384     3.7990     3.7990     0.0000
 39 C      6.0623     6.0000    -0.0623     3.9924     3.9924     0.0000
 40 C      6.1913     6.0000    -0.1913     3.7429     3.7429     0.0000
 41 C      5.7805     6.0000     0.2195     3.8799     3.8799     0.0000
 42 C      5.7950     6.0000     0.2050     3.8281     3.8281     0.0000
 43 C      6.0743     6.0000    -0.0743     3.9037     3.9037    -0.0000
 44 C      6.0886     6.0000    -0.0886     3.9852     3.9852     0.0000
 45 C      6.0505     6.0000    -0.0505     3.9928     3.9928     0.0000
 46 C      5.7991     6.0000     0.2009     3.8247     3.8247    -0.0000
 47 C      5.8843     6.0000     0.1157     3.8939     3.8939     0.0000
 48 C      6.0764     6.0000    -0.0764     3.9025     3.9025     0.0000
 49 C      5.7771     6.0000     0.2229     3.8813     3.8813     0.0000
 50 C      6.0548     6.0000    -0.0548     3.9900     3.9900     0.0000
 51 C      6.1901     6.0000    -0.1901     3.7373     3.7373    -0.0000
 52 H      0.9416     1.0000     0.0584     0.9848     0.9848    -0.0000
 53 H      1.0134     1.0000    -0.0134     0.9996     0.9996     0.0000
 54 H      0.9535     1.0000     0.0465     1.0094     1.0094    -0.0000
 55 H      0.9434     1.0000     0.0566     0.9854     0.9854    -0.0000
 56 H      0.9372     1.0000     0.0628     0.9718     0.9718    -0.0000
 57 H      0.9405     1.0000     0.0595     0.9833     0.9833     0.0000
 58 H      0.9411     1.0000     0.0589     0.9863     0.9863    -0.0000
 59 H      1.0164     1.0000    -0.0164     0.9989     0.9989     0.0000
 60 H      0.9516     1.0000     0.0484     1.0068     1.0068    -0.0000
 61 H      0.8267     1.0000     0.1733     1.0427     1.0427    -0.0000
 62 H      0.8278     1.0000     0.1722     1.0434     1.0434     0.0000
 63 H      0.9431     1.0000     0.0569     0.9855     0.9855     0.0000
 64 H      1.0227     1.0000    -0.0227     0.9942     0.9942     0.0000
 65 H      0.9540     1.0000     0.0460     1.0091     1.0091     0.0000
 66 H      0.9422     1.0000     0.0578     0.9848     0.9848     0.0000
 67 H      0.9371     1.0000     0.0629     0.9719     0.9719    -0.0000
 68 H      0.9418     1.0000     0.0582     0.9867     0.9867     0.0000
 69 H      0.9406     1.0000     0.0594     0.9830     0.9830    -0.0000
 70 H      1.0233     1.0000    -0.0233     0.9946     0.9946    -0.0000
 71 H      0.9514     1.0000     0.0486     1.0068     1.0068    -0.0000
 72 H      0.9466     1.0000     0.0534     0.9852     0.9852    -0.0000
 73 H      1.0152     1.0000    -0.0152     0.9982     0.9982     0.0000
 74 H      0.9560     1.0000     0.0440     1.0098     1.0098    -0.0000
 75 H      0.9477     1.0000     0.0523     0.9858     0.9858     0.0000
 76 H      0.9405     1.0000     0.0595     0.9714     0.9714     0.0000
 77 H      0.9438     1.0000     0.0562     0.9850     0.9850    -0.0000
 78 H      0.9446     1.0000     0.0554     0.9845     0.9845    -0.0000
 79 H      1.0133     1.0000    -0.0133     0.9999     0.9999     0.0000
 80 H      0.9559     1.0000     0.0441     1.0069     1.0069     0.0000
 81 H      0.9466     1.0000     0.0534     0.9854     0.9854    -0.0000
 82 H      1.0237     1.0000    -0.0237     0.9943     0.9943    -0.0000
 83 H      0.9568     1.0000     0.0432     1.0096     1.0096     0.0000
 84 H      0.9472     1.0000     0.0528     0.9857     0.9857    -0.0000
 85 H      0.9415     1.0000     0.0585     0.9715     0.9715    -0.0000
 86 H      0.9435     1.0000     0.0565     0.9840     0.9840    -0.0000
 87 H      0.9434     1.0000     0.0566     0.9855     0.9855    -0.0000
 88 H      1.0237     1.0000    -0.0237     0.9939     0.9939     0.0000
 89 H      0.9554     1.0000     0.0446     1.0066     1.0066     0.0000

  Mayer bond orders larger than 0.100000
B(  0-C ,  1-N ) :   1.1264 B(  0-C , 17-C ) :   1.6228 B(  0-C , 52-H ) :   0.9689 
B(  1-N ,  8-C ) :   1.1231 B(  1-N , 10-C ) :   0.9578 B(  2-C , 12-C ) :   1.5416 
B(  2-C , 16-C ) :   1.3159 B(  2-C , 53-H ) :   0.9781 B(  3-N , 14-C ) :   1.1983 
B(  3-N , 16-C ) :   1.1962 B(  3-N , 61-H ) :   0.8981 B(  4-C ,  6-C ) :   1.2782 
B(  4-C , 17-C ) :   1.2759 B(  4-C , 18-C ) :   1.2378 B(  5-N , 19-C ) :   1.4107 
B(  5-N , 27-C ) :   1.4123 B(  6-C ,  8-C ) :   1.6222 B(  6-C , 54-H ) :   0.9710 
B(  7-N , 30-C ) :   1.1911 B(  7-N , 38-C ) :   1.2040 B(  7-N , 62-H ) :   0.8987 
B(  8-C , 55-H ) :   0.9702 B(  9-N , 41-C ) :   1.4114 B(  9-N , 49-C ) :   1.4136 
B( 10-C , 56-H ) :   0.9762 B( 10-C , 57-H ) :   0.9822 B( 10-C , 58-H ) :   0.9828 
B( 11-N , 20-C ) :   1.1224 B( 11-N , 24-C ) :   1.1272 B( 11-N , 25-C ) :   0.9577 
B( 12-C , 14-C ) :   1.3174 B( 12-C , 59-H ) :   0.9777 B( 13-N , 31-C ) :   1.1178 
B( 13-N , 35-C ) :   1.1097 B( 13-N , 36-C ) :   0.9632 B( 14-C , 18-C ) :   1.2074 
B( 15-N , 42-C ) :   1.1180 B( 15-N , 46-C ) :   1.1118 B( 15-N , 47-C ) :   0.9625 
B( 16-C , 51-C ) :   1.2077 B( 17-C , 60-H ) :   0.9713 B( 18-C , 19-C ) :   1.2263 
B( 19-C , 21-C ) :   1.2070 B( 20-C , 28-C ) :   1.6217 B( 20-C , 63-H ) :   0.9703 
B( 21-C , 26-C ) :   1.6452 B( 21-C , 64-H ) :   0.9738 B( 22-C , 23-C ) :   1.2807 
B( 22-C , 28-C ) :   1.2775 B( 22-C , 29-C ) :   1.2313 B( 23-C , 24-C ) :   1.6186 
B( 23-C , 65-H ) :   0.9711 B( 24-C , 66-H ) :   0.9690 B( 25-C , 67-H ) :   0.9762 
B( 25-C , 68-H ) :   0.9830 B( 25-C , 69-H ) :   0.9820 B( 26-C , 27-C ) :   1.2058 
B( 26-C , 70-H ) :   0.9735 B( 27-C , 29-C ) :   1.2290 B( 28-C , 71-H ) :   0.9713 
B( 29-C , 30-C ) :   1.2087 B( 30-C , 32-C ) :   1.3160 B( 31-C , 39-C ) :   1.6385 
B( 31-C , 72-H ) :   0.9698 B( 32-C , 37-C ) :   1.5423 B( 32-C , 73-H ) :   0.9776 
B( 33-C , 34-C ) :   1.2691 B( 33-C , 39-C ) :   1.2615 B( 33-C , 40-C ) :   1.2642 
B( 34-C , 35-C ) :   1.6356 B( 34-C , 74-H ) :   0.9705 B( 35-C , 75-H ) :   0.9699 
B( 36-C , 76-H ) :   0.9762 B( 36-C , 77-H ) :   0.9822 B( 36-C , 78-H ) :   0.9832 
B( 37-C , 38-C ) :   1.3167 B( 37-C , 79-H ) :   0.9780 B( 38-C , 40-C ) :   1.2051 
B( 39-C , 80-H ) :   0.9716 B( 40-C , 41-C ) :   1.2100 B( 41-C , 43-C ) :   1.2219 
B( 42-C , 50-C ) :   1.6339 B( 42-C , 81-H ) :   0.9696 B( 43-C , 48-C ) :   1.6294 
B( 43-C , 82-H ) :   0.9739 B( 44-C , 45-C ) :   1.2726 B( 44-C , 50-C ) :   1.2652 
B( 44-C , 51-C ) :   1.2543 B( 45-C , 46-C ) :   1.6318 B( 45-C , 83-H ) :   0.9710 
B( 46-C , 84-H ) :   0.9703 B( 47-C , 85-H ) :   0.9761 B( 47-C , 86-H ) :   0.9828 
B( 47-C , 87-H ) :   0.9826 B( 48-C , 49-C ) :   1.2207 B( 48-C , 88-H ) :   0.9736 
B( 49-C , 51-C ) :   1.2127 B( 50-C , 89-H ) :   0.9714 

-------
TIMINGS
-------

Total SCF time: 0 days 0 hours 40 min 40 sec 

Total time                  ....    2440.863 sec
Sum of individual times     ....    2437.991 sec  ( 99.9%)

Fock matrix formation       ....    2420.838 sec  ( 99.2%)
Diagonalization             ....       4.715 sec  (  0.2%)
Density matrix formation    ....       0.475 sec  (  0.0%)
Population analysis         ....       0.294 sec  (  0.0%)
Initial guess               ....       2.322 sec  (  0.1%)
Orbital Transformation      ....       0.000 sec  (  0.0%)
Orbital Orthonormalization  ....       0.000 sec  (  0.0%)
DIIS solution               ....       2.576 sec  (  0.1%)
SOSCF solution              ....       5.417 sec  (  0.2%)

Maximum memory used throughout the entire SCF-calculation: 304.1 MB


           ************************************************************
           *        Program running with 8 parallel MPI-processes     *
           *              working on a common directory               *
           ************************************************************

------------------------------------------------------------------------------
                                ORCA  MP2 
------------------------------------------------------------------------------

Freezing NCore=104 chemical core electrons

----------
MP2 ENERGY (disk based algorithm)
----------

Dimension of the basis                    ...  918
Memory devoted to MP2                     ... 7000 MB   
Data format for buffers                   ... DOUBLE
Compression type for matrix containers    ... UNCOMPRESSED

-------------------------------
PARTIAL EXCHANGE TRANSFORMATION
-------------------------------

Transformation type                        ... one-operator
Generation of integrals (i,mue|j,nue)      ... ON
Generation of integrals (mue,kappa|nue,tau)... OFF
Generation of integrals (i,mue|a,nue)      ... OFF
Dimension of the basis                     ...  918
Number of internal MOs                     ...  127 (  52- 178)
Pair cutoff                                ... 2.500e-12 Eh
Number of AO pairs in the trafo            ... 421821
Total Number of distinct AO pairs          ... 421821
Memory devoted for trafo                   ... 7000.0 MB 
Max. Number of MO pairs treated together   ... 1088      
Number Format for Storage                  ... Double (8 Byte)
Integral package used                      ... LIBINT

Starting integral evaluation:
    ... done with AO integral generation
Closing buffer AOK     (38.40 GB; CompressionRatio= 1.32)
Collecting buffer AOK 
Number of MO pairs included in the trafo   ... 8128
------------------------
SORTING OF (i,mue|j,nue)
------------------------

IBATCH = 1 of  1
Closing buffer KAO     (51.03 GB; CompressionRatio= 1.00)
Collecting buffer KAO 
N(AO-Batches) Done                         ... 171551712 
N(AO-Batches) Skipped                      ... 169503262 
N(IJ)-pairs Skipped                        ...         0 
TOTAL TIME for half transformation         ...  1194.186 sec
AO-integral generation                     ...   256.454 sec
Half transformation                        ...   501.494 sec
K-integral sorting                         ...   156.765 sec

Finished integral transformation - now doing MP2 part

OPERATOR COMBINATION   0   0: ij=( 52..178, 52..178)
Process 2:   Internal MO  84
Process 5:   Internal MO 132
Process 0:   Internal MO  54
Process 0:   Internal MO  57
Process 1:   Internal MO  69
Process 0:   Internal MO  60
Process 4:   Internal MO 117
Process 0:   Internal MO  63
Process 1:   Internal MO  72
Process 3:   Internal MO 102
Process 2:   Internal MO  87
Process 0:   Internal MO  66
Process 7:   Internal MO 165
Process 1:   Internal MO  75
Process 6:   Internal MO 150
Process 2:   Internal MO  90
Process 1:   Internal MO  78
Process 5:   Internal MO 135
Process 3:   Internal MO 105
Process 4:   Internal MO 120
Process 1:   Internal MO  81
Process 2:   Internal MO  93
Process 3:   Internal MO 108
Process 7:   Internal MO 168
Process 2:   Internal MO  96
Process 4:   Internal MO 123
Process 6:   Internal MO 153
Process 5:   Internal MO 138
Process 3:   Internal MO 111
Process 2:   Internal MO  99
Process 4:   Internal MO 126
Process 5:   Internal MO 141
Process 3:   Internal MO 114
Process 6:   Internal MO 156
Process 7:   Internal MO 171
Process 4:   Internal MO 129
Process 5:   Internal MO 144
Process 6:   Internal MO 159
Process 7:   Internal MO 174
Process 5:   Internal MO 147
Process 6:   Internal MO 162
Process 7:   Internal MO 177
-----------------------------------------------
 MP2 CORRELATION ENERGY   :     -7.289954961 Eh
-----------------------------------------------


-------
TIMINGS
-------
Total time                : 1570.016 sec
Integral trafo            : 1197.448 sec ( 76.3%)
K(i,j)                    :    9.178 sec (  0.6%)
T(i,j)                    :    0.116 sec (  0.0%)

---------------------------------------
MP2 TOTAL ENERGY:    -2130.911926535 Eh
---------------------------------------

Maximum memory used throughout the entire MP2-calculation: 6735.7 MB

-------------------------   --------------------
FINAL SINGLE POINT ENERGY     -2130.911926534790
-------------------------   --------------------


                            ***************************************
                            *     ORCA property calculations      *
                            ***************************************


  WARNING: The energy has been calculated at the MP2 level but the densities
           used in the property calculations are still SCF densities
           MP2 response densities have not been calculated 
           use %mp2 Density relaxed end
           or  %mp2 Density unrelaxed end

                                    ---------------------
                                    Active property flags
                                    ---------------------
   (+) Dipole Moment


------------------------------------------------------------------------------
                       ORCA ELECTRIC PROPERTIES CALCULATION
------------------------------------------------------------------------------

Dipole Moment Calculation                       ... on
Quadrupole Moment Calculation                   ... off
Polarizability Calculation                      ... off
GBWName                                         ... /scratch/chu_02/allen/tmpyp4_amber_gaff2/conf1/conf1/Conf296.orca.gbw
Electron density                                ... /scratch/chu_02/allen/tmpyp4_amber_gaff2/conf1/conf1/Conf296.orca.scfp
The origin for moment calculation is the CENTER OF MASS  = (-0.000640, -0.004496 -0.000999)

-------------
DIPOLE MOMENT
-------------
                                X             Y             Z
Electronic contribution:     -0.94003      -0.00101      -0.05948
Nuclear contribution   :      0.03083       0.20946       0.07423
                        -----------------------------------------
Total Dipole Moment    :     -0.90920       0.20845       0.01475
                        -----------------------------------------
Magnitude (a.u.)       :      0.93290
Magnitude (Debye)      :      2.37125



--------------------
Rotational spectrum 
--------------------
 
Rotational constants in cm-1:     0.001499     0.001473     0.000762 
Rotational constants in MHz :    44.945626    44.150402    22.853568 

 Dipole components along the rotational axes: 
x,y,z [a.u.] :    -0.925290    -0.117808     0.016415 
x,y,z [Debye]:    -2.351900    -0.299445     0.041722 

 

Timings for individual modules:

Sum of individual times         ...     4016.189 sec (=  66.936 min)
GTO integral calculation        ...        2.764 sec (=   0.046 min)   0.1 %
SCF iterations                  ...     2442.102 sec (=  40.702 min)  60.8 %
MP2 module                      ...     1571.322 sec (=  26.189 min)  39.1 %
                             ****ORCA TERMINATED NORMALLY****
TOTAL RUN TIME: 0 days 1 hours 6 minutes 58 seconds 365 msec
# of primitive gaussian functions

