
                                 *****************
                                 * O   R   C   A *
                                 *****************

                                            #,                                       
                                            ###                                      
                                            ####                                     
                                            #####                                    
                                            ######                                   
                                           ########,                                 
                                     ,,################,,,,,                         
                               ,,#################################,,                 
                          ,,##########################################,,             
                       ,#########################################, ''#####,          
                    ,#############################################,,   '####,        
                  ,##################################################,,,,####,       
                ,###########''''           ''''###############################       
              ,#####''   ,,,,##########,,,,          '''####'''          '####       
            ,##' ,,,,###########################,,,                        '##       
           ' ,,###''''                  '''############,,,                           
         ,,##''                                '''############,,,,        ,,,,,,###''
      ,#''                                            '''#######################'''  
     '                                                          ''''####''''         
             ,#######,   #######,   ,#######,      ##                                
            ,#'     '#,  ##    ##  ,#'     '#,    #''#        ######   ,####,        
            ##       ##  ##   ,#'  ##            #'  '#       #        #'  '#        
            ##       ##  #######   ##           ,######,      #####,   #    #        
            '#,     ,#'  ##    ##  '#,     ,#' ,#      #,         ##   #,  ,#        
             '#######'   ##     ##  '#######'  #'      '#     #####' # '####'        



                  #######################################################
                  #                        -***-                        #
                  #          Department of theory and spectroscopy      #
                  #    Directorship and core code : Frank Neese         #
                  #        Max Planck Institute fuer Kohlenforschung    #
                  #                Kaiser Wilhelm Platz 1               #
                  #                 D-45470 Muelheim/Ruhr               #
                  #                      Germany                        #
                  #                                                     #
                  #                  All rights reserved                #
                  #                        -***-                        #
                  #######################################################


                         Program Version 5.0.4 -  RELEASE  -


 With contributions from (in alphabetic order):
   Daniel Aravena         : Magnetic Suceptibility
   Michael Atanasov       : Ab Initio Ligand Field Theory (pilot matlab implementation)
   Alexander A. Auer      : GIAO ZORA, VPT2 properties, NMR spectrum
   Ute Becker             : Parallelization
   Giovanni Bistoni       : ED, misc. LED, open-shell LED, HFLD
   Martin Brehm           : Molecular dynamics
   Dmytro Bykov           : SCF Hessian
   Vijay G. Chilkuri      : MRCI spin determinant printing, contributions to CSF-ICE
   Dipayan Datta          : RHF DLPNO-CCSD density
   Achintya Kumar Dutta   : EOM-CC, STEOM-CC
   Dmitry Ganyushin       : Spin-Orbit,Spin-Spin,Magnetic field MRCI
   Miquel Garcia          : C-PCM and meta-GGA Hessian, CC/C-PCM, Gaussian charge scheme
   Yang Guo               : DLPNO-NEVPT2, F12-NEVPT2, CIM, IAO-localization
   Andreas Hansen         : Spin unrestricted coupled pair/coupled cluster methods
   Benjamin Helmich-Paris : MC-RPA, TRAH-SCF, COSX integrals
   Lee Huntington         : MR-EOM, pCC
   Robert Izsak           : Overlap fitted RIJCOSX, COSX-SCS-MP3, EOM
   Marcus Kettner         : VPT2
   Christian Kollmar      : KDIIS, OOCD, Brueckner-CCSD(T), CCSD density, CASPT2, CASPT2-K
   Simone Kossmann        : Meta GGA functionals, TD-DFT gradient, OOMP2, MP2 Hessian
   Martin Krupicka        : Initial AUTO-CI
   Lucas Lang             : DCDCAS
   Marvin Lechner         : AUTO-CI (C++ implementation), FIC-MRCC
   Dagmar Lenk            : GEPOL surface, SMD
   Dimitrios Liakos       : Extrapolation schemes; Compound Job, initial MDCI parallelization
   Dimitrios Manganas     : Further ROCIS development; embedding schemes
   Dimitrios Pantazis     : SARC Basis sets
   Anastasios Papadopoulos: AUTO-CI, single reference methods and gradients
   Taras Petrenko         : DFT Hessian,TD-DFT gradient, ASA, ECA, R-Raman, ABS, FL, XAS/XES, NRVS
   Peter Pinski           : DLPNO-MP2, DLPNO-MP2 Gradient
   Christoph Reimann      : Effective Core Potentials
   Marius Retegan         : Local ZFS, SOC
   Christoph Riplinger    : Optimizer, TS searches, QM/MM, DLPNO-CCSD(T), (RO)-DLPNO pert. Triples
   Tobias Risthaus        : Range-separated hybrids, TD-DFT gradient, RPA, STAB
   Michael Roemelt        : Original ROCIS implementation
   Masaaki Saitow         : Open-shell DLPNO-CCSD energy and density
   Barbara Sandhoefer     : DKH picture change effects
   Avijit Sen             : IP-ROCIS
   Kantharuban Sivalingam : CASSCF convergence, NEVPT2, FIC-MRCI
   Bernardo de Souza      : ESD, SOC TD-DFT
   Georgi Stoychev        : AutoAux, RI-MP2 NMR, DLPNO-MP2 response
   Willem Van den Heuvel  : Paramagnetic NMR
   Boris Wezisla          : Elementary symmetry handling
   Frank Wennmohs         : Technical directorship


 We gratefully acknowledge several colleagues who have allowed us to
 interface, adapt or use parts of their codes:
   Stefan Grimme, W. Hujo, H. Kruse, P. Pracht,  : VdW corrections, initial TS optimization,
                  C. Bannwarth, S. Ehlert          DFT functionals, gCP, sTDA/sTD-DF
   Ed Valeev, F. Pavosevic, A. Kumar             : LibInt (2-el integral package), F12 methods
   Garnet Chan, S. Sharma, J. Yang, R. Olivares  : DMRG
   Ulf Ekstrom                                   : XCFun DFT Library
   Mihaly Kallay                                 : mrcc  (arbitrary order and MRCC methods)
   Jiri Pittner, Ondrej Demel                    : Mk-CCSD
   Frank Weinhold                                : gennbo (NPA and NBO analysis)
   Christopher J. Cramer and Donald G. Truhlar   : smd solvation model
   Lars Goerigk                                  : TD-DFT with DH, B97 family of functionals
   V. Asgeirsson, H. Jonsson                     : NEB implementation
   FAccTs GmbH                                   : IRC, NEB, NEB-TS, DLPNO-Multilevel, CI-OPT
                                                   MM, QMMM, 2- and 3-layer-ONIOM, Crystal-QMMM,
                                                   LR-CPCM, SF, NACMEs, symmetry and pop. for TD-DFT,
                                                   nearIR, NL-DFT gradient (VV10), updates on ESD,
                                                   ML-optimized integration grids
   S Lehtola, MJT Oliveira, MAL Marques          : LibXC Library
   Liviu Ungur et al                             : ANISO software


 Your calculation uses the libint2 library for the computation of 2-el integrals
 For citations please refer to: http://libint.valeyev.net

 Your ORCA version has been built with support for libXC version: 5.1.0
 For citations please refer to: https://tddft.org/programs/libxc/

 This ORCA versions uses:
   CBLAS   interface :  Fast vector & matrix operations
   LAPACKE interface :  Fast linear algebra routines
   SCALAPACK package :  Parallel linear algebra routines
   Shared memory     :  Shared parallel matrices
   BLAS/LAPACK       :  OpenBLAS 0.3.15  USE64BITINT DYNAMIC_ARCH NO_AFFINITY Sandybridge SINGLE_THREADED
        Core in use  :  Sandybridge
   Copyright (c) 2011-2014, The OpenBLAS Project


================================================================================

----- Orbital basis set information -----
Your calculation utilizes the basis: cc-pVDZ 
       H, B-Ne : Obtained from the ccRepo (grant-hill.group.shef.ac.uk/ccrepo) Feb. 2017
                 T. H. Dunning, Jr., J. Chem. Phys. 90, 1007 (1989)
            He : Obtained from the ccRepo (grant-hill.group.shef.ac.uk/ccrepo) Feb. 2017
                 D. E. Woon, T. H. Dunning, Jr., J. Chem. Phys. 100, 2975 (1994)
  Li-Be, Na-Mg : Obtained from the ccRepo (grant-hill.group.shef.ac.uk/ccrepo) Feb. 2017
                 B. P. Prascher, D. E. Woon, K. A. Peterson, T. H. Dunning, Jr., A. K. Wilson, Theor. Chem. Acc. 128, 69 (2011)
         Al-Ar : Obtained from the ccRepo (grant-hill.group.shef.ac.uk/ccrepo) Feb. 2017
                 D. E. Woon, T. H. Dunning, Jr., J. Chem. Phys. 98, 1358 (1993)
            Ca : Obtained from the Peterson Research Group Website (tyr0.chem.wsu.edu/~kipeters) Feb. 2017
                 J. Koput, K. A. Peterson, J. Phys. Chem. 106, 9595 (2002)
         Sc-Zn : Obtained from the ccRepo (grant-hill.group.shef.ac.uk/ccrepo) Feb. 2017
                 N. B. Balabanov, K. A. Peterson, J. Chem. Phys. 123, 064107 (2005)
                 N. B. Balabanov, K. A. Peterson, J. Chem. Phys. 125, 074110 (2006)
         Ga-Kr : Obtained from the ccRepo (grant-hill.group.shef.ac.uk/ccrepo) Feb. 2017
                 A. K. Wilson, D. E. Woon, K. A. Peterson, T. H. Dunning, Jr., J. Chem. Phys. 110, 7667 (1999)

================================================================================
                                        WARNINGS
                       Please study these warnings very carefully!
================================================================================


WARNING: No MP2 level density has been requested!
         To caclulate MP2 level properties use
         %mp2 Density relaxed end
         or
         %mp2 Density unrelaxed end

WARNING: Post HF methods need fully converged wavefunctions
  ===> : Setting SCFConvForced true
         You can overwrite this default with %scf ConvForced false 


INFO   : the flag for use of the SHARK integral package has been found!

================================================================================
                                       INPUT FILE
================================================================================
NAME = /scratch/allen/tmpyp4_amber_gaff2/2.Mdgx/conf11/conf11/Conf156.orca
|  1> ! PAL2
|  2> ! mp2 cc-pvdz TightSCF  NoKeepInts
|  3> 
|  4> %scf
|  5>   MaxCore 2000
|  6> end
|  7> %mp2
|  8>   MaxCore 2000
|  9> end
| 10> * xyz 0 1
| 11>    C       -4.85900         5.25800        -0.43600
| 12>    C        1.47400         4.04100         0.05700
| 13>    C       -2.80200         4.09300         0.04900
| 14>    C       -2.30900         5.29300         0.58500
| 15>    C       -3.10000         6.42400         0.59500
| 16>    C       -5.18900         7.61800         0.14700
| 17>    C        0.13200         4.30700         0.06100
| 18>    C       -0.56900         3.05600         0.04700
| 19>    C        1.64900         2.61800         0.02300
| 20>    C       -4.10800         4.09900        -0.46400
| 21>    N       -4.35300         6.39800         0.08700
| 22>    N        0.38800         2.06700         0.02500
| 23>    N       -2.01000         0.39500        -0.07500
| 24>    N       -0.38800        -2.07400        -0.02700
| 25>    N        2.01000        -0.40100         0.06500
| 26>    C       -1.96000         2.86100         0.02400
| 27>    C       -2.62300         1.61500        -0.01800
| 28>    C       -5.57300        -4.32900         1.06600
| 29>    C       -4.07300         1.47100         0.05600
| 30>    C       -4.10600        -2.75600        -0.02600
| 31>    C       -4.99500        -2.75700        -1.11100
| 32>    C       -6.13200        -3.54200        -1.07600
| 33>    C       -7.65100        -5.11300         0.04000
| 34>    C       -4.32400         0.14100         0.03700
| 35>    C       -3.02500        -0.52000        -0.04800
| 36>    C       -4.42200        -3.56600         1.07500
| 37>    N       -6.40700        -4.31300         0.00100
| 38>    C       -2.86700        -1.92200        -0.04000
| 39>    C       -1.65000        -2.62400        -0.02700
| 40>    C        3.56800        -6.14200        -1.04000
| 41>    C       -1.47600        -4.04900        -0.03400
| 42>    C        2.80300        -4.09900        -0.00800
| 43>    C        3.65700        -4.38400         1.06900
| 44>    C        4.42700        -5.53000         1.05900
| 45>    C        5.24500        -7.58800         0.01400
| 46>    C       -0.13400        -4.31500        -0.02200
| 47>    C        0.56800        -3.06400        -0.02700
| 48>    C        2.77500        -5.01200        -1.07400
| 49>    N        4.37600        -6.39100         0.01700
| 50>    C        1.95900        -2.86900        -0.00900
| 51>    C        2.62100        -1.62200         0.00900
| 52>    C        5.54300         4.33900        -1.13000
| 53>    C        4.07000        -1.47900        -0.09400
| 54>    C        4.10400         2.75100        -0.02100
| 55>    C        5.02700         2.72900         1.03600
| 56>    C        6.16600         3.50900         0.97800
| 57>    C        7.61900         5.15300        -0.11500
| 58>    C        4.32100        -0.14800        -0.09200
| 59>    C        3.02500         0.51400         0.01500
| 60>    C        4.38700         3.58200        -1.11500
| 61>    C        2.86600         1.91600         0.01300
| 62>    N        6.41300         4.29600        -0.09500
| 63>    H       -5.86600         5.31200        -0.83200
| 64>    H        2.27400         4.76600         0.08100
| 65>    H       -1.31200         5.34900         1.00400
| 66>    H       -2.76600         7.36900         1.00500
| 67>    H       -5.69500         7.65500         1.11500
| 68>    H       -4.54700         8.49000         0.02600
| 69>    H       -5.92300         7.58000        -0.65700
| 70>    H       -0.33200         5.28200         0.06900
| 71>    H       -4.54100         3.20800        -0.90400
| 72>    H        0.18200         1.07200         0.00500
| 73>    H       -0.18300        -1.08000        -0.02100
| 74>    H       -5.86400        -4.96200         1.89500
| 75>    H       -4.79400         2.27200         0.13900
| 76>    H       -4.80000        -2.16000        -1.99400
| 77>    H       -6.84100        -3.58200        -1.89300
| 78>    H       -8.42800        -4.53600         0.54600
| 79>    H       -7.95600        -5.33700        -0.98100
| 80>    H       -7.45600        -6.03700         0.58400
| 81>    H       -5.28700        -0.34400         0.10000
| 82>    H       -3.78000        -3.60100         1.94700
| 83>    H        3.58700        -6.86800        -1.84300
| 84>    H       -2.27600        -4.77400        -0.05000
| 85>    H        3.71400        -3.72400         1.92600
| 86>    H        5.09200        -5.79500         1.87100
| 87>    H        6.20500        -7.32900        -0.43900
| 88>    H        5.39300        -7.91700         1.04200
| 89>    H        4.75900        -8.37300        -0.56400
| 90>    H        0.32900        -5.29000        -0.00800
| 91>    H        2.14600        -4.84200        -1.94000
| 92>    H        5.80800         4.98600        -1.95600
| 93>    H        4.78800        -2.28100        -0.18500
| 94>    H        4.86000         2.11400         1.91200
| 95>    H        6.90100         3.53100         1.77200
| 96>    H        7.38300         6.10900         0.35600
| 97>    H        8.41400         4.65200         0.43500
| 98>    H        7.92100         5.31000        -1.15000
| 99>    H        5.28300         0.33600        -0.17900
|100>    H        3.72000         3.63200        -1.96700
|101> *
|102> 
|103>                          ****END OF INPUT****
================================================================================

                       ****************************
                       * Single Point Calculation *
                       ****************************

---------------------------------
CARTESIAN COORDINATES (ANGSTROEM)
---------------------------------
  C     -4.859000    5.258000   -0.436000
  C      1.474000    4.041000    0.057000
  C     -2.802000    4.093000    0.049000
  C     -2.309000    5.293000    0.585000
  C     -3.100000    6.424000    0.595000
  C     -5.189000    7.618000    0.147000
  C      0.132000    4.307000    0.061000
  C     -0.569000    3.056000    0.047000
  C      1.649000    2.618000    0.023000
  C     -4.108000    4.099000   -0.464000
  N     -4.353000    6.398000    0.087000
  N      0.388000    2.067000    0.025000
  N     -2.010000    0.395000   -0.075000
  N     -0.388000   -2.074000   -0.027000
  N      2.010000   -0.401000    0.065000
  C     -1.960000    2.861000    0.024000
  C     -2.623000    1.615000   -0.018000
  C     -5.573000   -4.329000    1.066000
  C     -4.073000    1.471000    0.056000
  C     -4.106000   -2.756000   -0.026000
  C     -4.995000   -2.757000   -1.111000
  C     -6.132000   -3.542000   -1.076000
  C     -7.651000   -5.113000    0.040000
  C     -4.324000    0.141000    0.037000
  C     -3.025000   -0.520000   -0.048000
  C     -4.422000   -3.566000    1.075000
  N     -6.407000   -4.313000    0.001000
  C     -2.867000   -1.922000   -0.040000
  C     -1.650000   -2.624000   -0.027000
  C      3.568000   -6.142000   -1.040000
  C     -1.476000   -4.049000   -0.034000
  C      2.803000   -4.099000   -0.008000
  C      3.657000   -4.384000    1.069000
  C      4.427000   -5.530000    1.059000
  C      5.245000   -7.588000    0.014000
  C     -0.134000   -4.315000   -0.022000
  C      0.568000   -3.064000   -0.027000
  C      2.775000   -5.012000   -1.074000
  N      4.376000   -6.391000    0.017000
  C      1.959000   -2.869000   -0.009000
  C      2.621000   -1.622000    0.009000
  C      5.543000    4.339000   -1.130000
  C      4.070000   -1.479000   -0.094000
  C      4.104000    2.751000   -0.021000
  C      5.027000    2.729000    1.036000
  C      6.166000    3.509000    0.978000
  C      7.619000    5.153000   -0.115000
  C      4.321000   -0.148000   -0.092000
  C      3.025000    0.514000    0.015000
  C      4.387000    3.582000   -1.115000
  C      2.866000    1.916000    0.013000
  N      6.413000    4.296000   -0.095000
  H     -5.866000    5.312000   -0.832000
  H      2.274000    4.766000    0.081000
  H     -1.312000    5.349000    1.004000
  H     -2.766000    7.369000    1.005000
  H     -5.695000    7.655000    1.115000
  H     -4.547000    8.490000    0.026000
  H     -5.923000    7.580000   -0.657000
  H     -0.332000    5.282000    0.069000
  H     -4.541000    3.208000   -0.904000
  H      0.182000    1.072000    0.005000
  H     -0.183000   -1.080000   -0.021000
  H     -5.864000   -4.962000    1.895000
  H     -4.794000    2.272000    0.139000
  H     -4.800000   -2.160000   -1.994000
  H     -6.841000   -3.582000   -1.893000
  H     -8.428000   -4.536000    0.546000
  H     -7.956000   -5.337000   -0.981000
  H     -7.456000   -6.037000    0.584000
  H     -5.287000   -0.344000    0.100000
  H     -3.780000   -3.601000    1.947000
  H      3.587000   -6.868000   -1.843000
  H     -2.276000   -4.774000   -0.050000
  H      3.714000   -3.724000    1.926000
  H      5.092000   -5.795000    1.871000
  H      6.205000   -7.329000   -0.439000
  H      5.393000   -7.917000    1.042000
  H      4.759000   -8.373000   -0.564000
  H      0.329000   -5.290000   -0.008000
  H      2.146000   -4.842000   -1.940000
  H      5.808000    4.986000   -1.956000
  H      4.788000   -2.281000   -0.185000
  H      4.860000    2.114000    1.912000
  H      6.901000    3.531000    1.772000
  H      7.383000    6.109000    0.356000
  H      8.414000    4.652000    0.435000
  H      7.921000    5.310000   -1.150000
  H      5.283000    0.336000   -0.179000
  H      3.720000    3.632000   -1.967000

----------------------------
CARTESIAN COORDINATES (A.U.)
----------------------------
  NO LB      ZA    FRAG     MASS         X           Y           Z
   0 C     6.0000    0    12.011   -9.182179    9.936180   -0.823921
   1 C     6.0000    0    12.011    2.785456    7.636383    0.107714
   2 C     6.0000    0    12.011   -5.295013    7.734649    0.092597
   3 C     6.0000    0    12.011   -4.363378   10.002320    1.105490
   4 C     6.0000    0    12.011   -5.858151   12.139601    1.124387
   5 C     6.0000    0    12.011   -9.805789   14.395934    0.277790
   6 C     6.0000    0    12.011    0.249444    8.139050    0.115273
   7 C     6.0000    0    12.011   -1.075254    5.775003    0.088817
   8 C     6.0000    0    12.011    3.116158    4.947303    0.043464
   9 C     6.0000    0    12.011   -7.762995    7.745987   -0.876833
  10 N     7.0000    0    14.007   -8.225978   12.090468    0.164406
  11 N     7.0000    0    14.007    0.733214    3.906064    0.047243
  12 N     7.0000    0    14.007   -3.798350    0.746442   -0.141729
  13 N     7.0000    0    14.007   -0.733214   -3.919292   -0.051023
  14 N     7.0000    0    14.007    3.798350   -0.757780    0.122832
  15 C     6.0000    0    12.011   -3.703863    5.406506    0.045353
  16 C     6.0000    0    12.011   -4.956752    3.051908   -0.034015
  17 C     6.0000    0    12.011  -10.531444   -8.180624    2.014448
  18 C     6.0000    0    12.011   -7.696855    2.779787    0.105825
  19 C     6.0000    0    12.011   -7.759216   -5.208085   -0.049133
  20 C     6.0000    0    12.011   -9.439182   -5.209975   -2.099486
  21 C     6.0000    0    12.011  -11.587801   -6.693410   -2.033345
  22 C     6.0000    0    12.011  -14.458295   -9.662170    0.075589
  23 C     6.0000    0    12.011   -8.171176    0.266451    0.069920
  24 C     6.0000    0    12.011   -5.716422   -0.982658   -0.090707
  25 C     6.0000    0    12.011   -8.356369   -6.738763    2.031456
  26 N     7.0000    0    14.007  -12.107475   -8.150389    0.001890
  27 C     6.0000    0    12.011   -5.417845   -3.632054   -0.075589
  28 C     6.0000    0    12.011   -3.118048   -4.958641   -0.051023
  29 C     6.0000    0    12.011    6.742543  -11.606698   -1.965315
  30 C     6.0000    0    12.011   -2.789236   -7.651501   -0.064251
  31 C     6.0000    0    12.011    5.296902   -7.745987   -0.015118
  32 C     6.0000    0    12.011    6.910728   -8.284559    2.020117
  33 C     6.0000    0    12.011    8.365818  -10.450186    2.001220
  34 C     6.0000    0    12.011    9.911614  -14.339242    0.026456
  35 C     6.0000    0    12.011   -0.253223   -8.154168   -0.041574
  36 C     6.0000    0    12.011    1.073364   -5.790121   -0.051023
  37 C     6.0000    0    12.011    5.243990   -9.471307   -2.029566
  38 N     7.0000    0    14.007    8.269442  -12.077240    0.032125
  39 C     6.0000    0    12.011    3.701973   -5.421624   -0.017008
  40 C     6.0000    0    12.011    4.952972   -3.065136    0.017008
  41 C     6.0000    0    12.011   10.474752    8.199522   -2.135391
  42 C     6.0000    0    12.011    7.691185   -2.794905   -0.177634
  43 C     6.0000    0    12.011    7.755436    5.198637   -0.039684
  44 C     6.0000    0    12.011    9.499653    5.157063    1.957756
  45 C     6.0000    0    12.011   11.652051    6.631049    1.848152
  46 C     6.0000    0    12.011   14.397823    9.737759   -0.217319
  47 C     6.0000    0    12.011    8.165507   -0.279679   -0.173855
  48 C     6.0000    0    12.011    5.716422    0.971319    0.028346
  49 C     6.0000    0    12.011    8.290229    6.768999   -2.107045
  50 C     6.0000    0    12.011    5.415955    3.620715    0.024566
  51 N     7.0000    0    14.007   12.118814    8.118263   -0.179524
  52 H     1.0000    0     1.008  -11.085134   10.038225   -1.572252
  53 H     1.0000    0     1.008    4.297237    9.006435    0.153068
  54 H     1.0000    0     1.008   -2.479321   10.108145    1.897285
  55 H     1.0000    0     1.008   -5.226982   13.925392    1.899175
  56 H     1.0000    0     1.008  -10.761990   14.465854    2.107045
  57 H     1.0000    0     1.008   -8.592585   16.043775    0.049133
  58 H     1.0000    0     1.008  -11.192848   14.324124   -1.241550
  59 H     1.0000    0     1.008   -0.627389    9.981533    0.130391
  60 H     1.0000    0     1.008   -8.581246    6.062241   -1.708312
  61 H     1.0000    0     1.008    0.343930    2.025786    0.009449
  62 H     1.0000    0     1.008   -0.345820   -2.040904   -0.039684
  63 H     1.0000    0     1.008  -11.081354   -9.376821    3.581031
  64 H     1.0000    0     1.008   -9.059347    4.293458    0.262672
  65 H     1.0000    0     1.008   -9.070685   -4.081808   -3.768114
  66 H     1.0000    0     1.008  -12.927616   -6.768999   -3.577252
  67 H     1.0000    0     1.008  -15.926612   -8.571798    1.031790
  68 H     1.0000    0     1.008  -15.034661  -10.085468   -1.853821
  69 H     1.0000    0     1.008  -14.089798  -11.408277    1.103600
  70 H     1.0000    0     1.008   -9.990982   -0.650066    0.188973
  71 H     1.0000    0     1.008   -7.143165   -6.804904    3.679297
  72 H     1.0000    0     1.008    6.778448  -12.978639   -3.482765
  73 H     1.0000    0     1.008   -4.301017   -9.021553   -0.094486
  74 H     1.0000    0     1.008    7.018443   -7.037340    3.639613
  75 H     1.0000    0     1.008    9.622485  -10.950963    3.535678
  76 H     1.0000    0     1.008   11.725751  -13.849803   -0.829590
  77 H     1.0000    0     1.008   10.191293  -14.960962    1.969095
  78 H     1.0000    0     1.008    8.993207  -15.822677   -1.065806
  79 H     1.0000    0     1.008    0.621720   -9.996651   -0.015118
  80 H     1.0000    0     1.008    4.055352   -9.150054   -3.666069
  81 H     1.0000    0     1.008   10.975529    9.422175   -3.696304
  82 H     1.0000    0     1.008    9.048009   -4.310465   -0.349599
  83 H     1.0000    0     1.008    9.184069    3.994881    3.613156
  84 H     1.0000    0     1.008   13.041000    6.672623    3.348595
  85 H     1.0000    0     1.008   13.951848   11.544337    0.672743
  86 H     1.0000    0     1.008   15.900156    8.791006    0.822031
  87 H     1.0000    0     1.008   14.968521   10.034446   -2.173185
  88 H     1.0000    0     1.008    9.983423    0.634948   -0.338261
  89 H     1.0000    0     1.008    7.029781    6.863485   -3.717091

--------------------------------
INTERNAL COORDINATES (ANGSTROEM)
--------------------------------
 C      0   0   0     0.000000000000     0.00000000     0.00000000
 C      1   0   0     6.467691009935     0.00000000     0.00000000
 C      1   2   0     2.413234137004    19.81544410     0.00000000
 C      3   1   2     1.403689780543    87.90320020    43.29352091
 C      4   3   1     1.380196362841   120.13372390     0.11574566
 C      5   4   3     2.447500970378   152.57289620     1.64314942
 C      2   1   3     1.368114030335     4.55134804   288.27697662
 C      7   2   4     1.434084376876   108.05010202   225.71137768
 C      2   1   3     1.434123425651   107.72110899    25.31528258
 C      1   2   7     1.381327622253    46.47327531   260.01594759
 N      5   4   3     1.352312463893   120.83328302   359.71312174
 N      9   2   1     1.376127174356   106.58526707   354.48155751
 N     12   9   2     2.925062050624   168.53581413   171.12065651
 N     13  12   9     2.954513327098    91.55032014    11.12112580
 N     14  13  12     2.925371258490    88.43092389   359.84326247
 C      8   7   2     1.404790019896   127.24786865   181.11170171
 C     13  12   9     1.366535034311    81.72106996   188.00453233
 C     14  13  12     5.758810554272    80.56209567   166.76250791
 C     17  13  12     1.459010623676   111.08861209   183.82872609
 C     18  14  13     2.412235892279    27.27532823    36.33507194
 C     20  18  14     1.402692767501    87.95206320   148.94598259
 C     21  20  18     1.382106725257   120.14573887   359.70382047
 C     18  14  13     2.446510985056   144.15733107    82.80075377
 C     19  17  13     1.353610726908   106.29293361   359.75308708
 C     13  12   9     1.366813447402   172.21332906    33.46711076
 C     18  14  13     1.380960173213    15.08449437   309.23336894
 N     22  21  20     1.352773077792   120.73759875     0.27865223
 C     25  13  17     1.410897586645   125.60330303   182.37774668
 C     14  13  12     1.376642291955    80.24689249   177.85461986
 C     14  13  12     5.764089607215   164.51507311   312.20821879
 C     29  14  13     1.435600919476   106.58649366   178.76395472
 C     30  14  13     2.413316804732    27.10625047    82.12560436
 C     32  30  14     1.403734305344    87.90059683   149.76154742
 C     33  32  30     1.380694028378   120.14881443   359.74174632
 C     34  33  32     2.448777858443   152.49203239     2.45173620
 C     31  29  14     1.368160809262   108.16950133     0.70383075
 C     14  13  12     1.376239804685   169.26375223   353.09862627
 C     30  14  13     1.380907310430    14.68948582   353.70041132
 N     34  33  32     1.352658863128   120.85575621     0.19603406
 C     37  14  29     1.404717053360   126.01551127   180.90772073
 C     15  14  13     1.366491126938    81.61824056   183.09049352
 C      2   1   3     4.249062720177   154.58055708   148.03824937
 C     41  15  14     1.459677704153   111.05201287   175.08990246
 C     42   2   1     2.412953791518    41.78584867   209.72909229
 C     44  42   2     1.403446472082    87.95153797   233.97558675
 C     45  44  42     1.381696421071   120.11137308     0.19721020
 C     42   2   1     2.450019795838   135.97209175   120.04394139
 C     43  41  15     1.354461516618   106.26758155     0.30894352
 C     15  14  13     1.367461151185   171.87382904   332.35056460
 C     42   2   1     1.381886391857    32.59078432   258.58437148
 C      9   2   1     1.404988612053   126.98745415   175.48589504
 N     42   2   1     1.352765315936   113.57249190   147.78053058
 H      1   2   7     1.083411740752   161.32580900   199.05567978
 H      2   1   3     1.079907866440   126.92324529   200.79002668
 H      4   3   1     1.082915509170   121.01790968   179.56710346
 H      5   4   3     1.082903966195   122.75682238   179.47443529
 H      6   5   4     1.092899354927   104.45162910   100.06986770
 H      6   5   4     1.089582029955    84.71224613   209.51935443
 H      6   5   4     1.089319053354   133.88392174   322.40437816
 H      7   2  54     1.079807853278   126.66122480     1.30600390
 H     10   1   2     1.083960331377   118.73339061   199.71897554
 H     12   9   2     1.016297692608   125.29023241   180.00180175
 H     14  13  12     1.014936943854    44.97226959   359.42596618
 H     18  14  13     1.082871645210   128.03556573   234.20482432
 H     19  17  13     1.080893611786   126.41830519   178.11313280
 H     21  20  18     1.083569563987   121.05669627   180.67006309
 H     22  21  20     1.082483256222   122.73097286   180.59748951
 H     23  18  14     1.092105306278   103.92715769   234.93429879
 H     23  18  14     1.088871893291   134.19244188    12.25587044
 H     23  18  14     1.089833473518    84.85857450   125.45241208
 H     24  19  17     1.080075460327   127.28078426   178.44613241
 H     26  18  14     1.083408048706   118.76995697   244.94906660
 H     30  14  13     1.082703098730   127.99711412   279.66882698
 H     31  29  14     1.079759695488   125.22293469   180.92530585
 H     33  32  30     1.083188810873   121.01964473   180.74284758
 H     34  33  32     1.082494341787   122.70821597   180.59516895
 H     35  34  33     1.092652735319   105.73575241    97.19771933
 H     35  34  33     1.089462711615    84.05943581   206.43036958
 H     35  34  33     1.089268102902   133.08365142   318.50306270
 H     36  31  29     1.079439669458   126.61599965   178.98859863
 H     38  30  73     1.083742127999   118.77264435   359.90091293
 H     42   2   1     1.082178358682   119.31790784     4.41206104
 H     43  41  15     1.080281907652   126.36969097   182.06329380
 H     45  44  42     1.083277434455   121.10105945   179.58025624
 H     46  45  44     1.082194529648   122.72144639   179.46906377
 H     47  42   2     1.091546151109   106.65128841   315.16475048
 H     47  42   2     1.088818625851   132.46019523    94.52397119
 H     47  42   2     1.089531091801    83.63838232   206.04504406
 H     48  43  41     1.080402239909   127.23657387   181.62955349
 H     50  42   2     1.083186502870   118.77001737    94.71359229

---------------------------
INTERNAL COORDINATES (A.U.)
---------------------------
 C      0   0   0     0.000000000000     0.00000000     0.00000000
 C      1   0   0    12.222164727603     0.00000000     0.00000000
 C      1   2   0     4.560351615967    19.81544410     0.00000000
 C      3   1   2     2.652589262210    87.90320020    43.29352091
 C      4   3   1     2.608193136804   120.13372390     0.11574566
 C      5   4   3     4.625106546520   152.57289620     1.64314942
 C      2   1   3     2.585360837309     4.55134804   288.27697662
 C      7   2   4     2.710026725231   108.05010202   225.71137768
 C      2   1   3     2.710100516721   107.72110899    25.31528258
 C      1   2   7     2.610330907279    46.47327531   260.01594759
 N      5   4   3     2.555500204246   120.83328302   359.71312174
 N      9   2   1     2.600503484979   106.58526707   354.48155751
 N     12   9   2     5.527566200405   168.53581413   171.12065651
 N     13  12   9     5.583221047236    91.55032014    11.12112580
 N     14  13  12     5.528150518591    88.43092389   359.84326247
 C      8   7   2     2.654668413270   127.24786865   181.11170171
 C     13  12   9     2.582376967257    81.72106996   188.00453233
 C     14  13  12    10.882574804710    80.56209567   166.76250791
 C     17  13  12     2.757130505230   111.08861209   183.82872609
 C     18  14  13     4.558465206823    27.27532823    36.33507194
 C     20  18  14     2.650705180609    87.95206320   148.94598259
 C     21  20  18     2.611803198586   120.14573887   359.70382047
 C     18  14  13     4.623235745386   144.15733107    82.80075377
 C     19  17  13     2.557953565794   106.29293361   359.75308708
 C     13  12   9     2.582903091751   172.21332906    33.46711076
 C     18  14  13     2.609636529225    15.08449437   309.23336894
 N     22  21  20     2.556370638369   120.73759875     0.27865223
 C     25  13  17     2.666210041769   125.60330303   182.37774668
 C     14  13  12     2.601476916169    80.24689249   177.85461986
 C     14  13  12    10.892550769017   164.51507311   312.20821879
 C     29  14  13     2.712892575415   106.58649366   178.76395472
 C     30  14  13     4.560507835333    27.10625047    82.12560436
 C     32  30  14     2.652673401891    87.90059683   149.76154742
 C     33  32  30     2.609133588376   120.14881443   359.74174632
 C     34  33  32     4.627519515267   152.49203239     2.45173620
 C     31  29  14     2.585449236669   108.16950133     0.70383075
 C     14  13  12     2.600716325456   169.26375223   353.09862627
 C     30  14  13     2.609536633043    14.68948582   353.70041132
 N     34  33  32     2.556154803934   120.85575621     0.19603406
 C     37  14  29     2.654530526499   126.01551127   180.90772073
 C     15  14  13     2.582293994346    81.61824056   183.09049352
 C      2   1   3     8.029564866989   154.58055708   148.03824937
 C     41  15  14     2.758391104639   111.05201287   175.08990246
 C     42   2   1     4.559821839776    41.78584867   209.72909229
 C     44  42   2     2.652129475853    87.95153797   233.97558675
 C     45  44  42     2.611027836043   120.11137308     0.19721020
 C     42   2   1     4.629866436820   135.97209175   120.04394139
 C     43  41  15     2.559561325344   106.26758155     0.30894352
 C     15  14  13     2.584127074516   171.87382904   332.35056460
 C     42   2   1     2.611386828803    32.59078432   258.58437148
 C      9   2   1     2.655043698059   126.98745415   175.48589504
 N     42   2   1     2.556355970587   113.57249190   147.78053058
 H      1   2   7     2.047351480297   161.32580900   199.05567978
 H      2   1   3     2.040730117440   126.92324529   200.79002668
 H      4   3   1     2.046413738506   121.01790968   179.56710346
 H      5   4   3     2.046391925445   122.75682238   179.47443529
 H      6   5   4     2.065280472751   104.45162910   100.06986770
 H      6   5   4     2.059011637056    84.71224613   209.51935443
 H      6   5   4     2.058514683301   133.88392174   322.40437816
 H      7   2  54     2.040541119952   126.66122480     1.30600390
 H     10   1   2     2.048388166338   118.73339061   199.71897554
 H     12   9   2     1.920524309565   125.29023241   180.00180175
 H     14  13  12     1.917952867083    44.97226959   359.42596618
 H     18  14  13     2.046330847636   128.03556573   234.20482432
 H     19  17  13     2.042592906181   126.41830519   178.11313280
 H     21  20  18     2.047649722989   121.05669627   180.67006309
 H     22  21  20     2.045596898814   122.73097286   180.59748951
 H     23  18  14     2.063779938267   103.92715769   234.93429879
 H     23  18  14     2.057669673245   134.19244188    12.25587044
 H     23  18  14     2.059486796529    84.85857450   125.45241208
 H     24  19  17     2.041046823986   127.28078426   178.44613241
 H     26  18  14     2.047344503340   118.76995697   244.94906660
 H     30  14  13     2.046012340948   127.99711412   279.66882698
 H     31  29  14     2.040450114918   125.22293469   180.92530585
 H     33  32  30     2.046930203877   121.01964473   180.74284758
 H     34  33  32     2.045617847496   122.70821597   180.59516895
 H     35  34  33     2.064814429233   105.73575241    97.19771933
 H     35  34  33     2.058786158072    84.05943581   206.43036958
 H     35  34  33     2.058418400901   133.08365142   318.50306270
 H     36  31  29     2.039845353366   126.61599965   178.98859863
 H     38  30  73     2.047975821711   118.77264435   359.90091293
 H     42   2   1     2.045020725966   119.31790784     4.41206104
 H     43  41  15     2.041436952892   126.36969097   182.06329380
 H     45  44  42     2.047097678177   121.10105945   179.58025624
 H     46  45  44     2.045051284662   122.72144639   179.46906377
 H     47  42   2     2.062723288131   106.65128841   315.16475048
 H     47  42   2     2.057569012371   132.46019523    94.52397119
 H     47  42   2     2.058915377895    83.63838232   206.04504406
 H     48  43  41     2.041664347903   127.23657387   181.62955349
 H     50  42   2     2.046925842384   118.77001737    94.71359229

---------------------
BASIS SET INFORMATION
---------------------
There are 3 groups of distinct atoms

 Group   1 Type C   : 17s4p1d contracted to 3s2p1d pattern {881/31/1}
 Group   2 Type N   : 17s4p1d contracted to 3s2p1d pattern {881/31/1}
 Group   3 Type H   : 4s1p contracted to 2s1p pattern {31/1}

Atom   0C    basis set group =>   1
Atom   1N    basis set group =>   2
Atom   2C    basis set group =>   1
Atom   3N    basis set group =>   2
Atom   4C    basis set group =>   1
Atom   5N    basis set group =>   2
Atom   6C    basis set group =>   1
Atom   7N    basis set group =>   2
Atom   8C    basis set group =>   1
Atom   9N    basis set group =>   2
Atom  10C    basis set group =>   1
Atom  11N    basis set group =>   2
Atom  12C    basis set group =>   1
Atom  13N    basis set group =>   2
Atom  14C    basis set group =>   1
Atom  15N    basis set group =>   2
Atom  16C    basis set group =>   1
Atom  17C    basis set group =>   1
Atom  18C    basis set group =>   1
Atom  19C    basis set group =>   1
Atom  20C    basis set group =>   1
Atom  21C    basis set group =>   1
Atom  22C    basis set group =>   1
Atom  23C    basis set group =>   1
Atom  24C    basis set group =>   1
Atom  25C    basis set group =>   1
Atom  26C    basis set group =>   1
Atom  27C    basis set group =>   1
Atom  28C    basis set group =>   1
Atom  29C    basis set group =>   1
Atom  30C    basis set group =>   1
Atom  31C    basis set group =>   1
Atom  32C    basis set group =>   1
Atom  33C    basis set group =>   1
Atom  34C    basis set group =>   1
Atom  35C    basis set group =>   1
Atom  36C    basis set group =>   1
Atom  37C    basis set group =>   1
Atom  38C    basis set group =>   1
Atom  39C    basis set group =>   1
Atom  40C    basis set group =>   1
Atom  41C    basis set group =>   1
Atom  42C    basis set group =>   1
Atom  43C    basis set group =>   1
Atom  44C    basis set group =>   1
Atom  45C    basis set group =>   1
Atom  46C    basis set group =>   1
Atom  47C    basis set group =>   1
Atom  48C    basis set group =>   1
Atom  49C    basis set group =>   1
Atom  50C    basis set group =>   1
Atom  51C    basis set group =>   1
Atom  52H    basis set group =>   3
Atom  53H    basis set group =>   3
Atom  54H    basis set group =>   3
Atom  55H    basis set group =>   3
Atom  56H    basis set group =>   3
Atom  57H    basis set group =>   3
Atom  58H    basis set group =>   3
Atom  59H    basis set group =>   3
Atom  60H    basis set group =>   3
Atom  61H    basis set group =>   3
Atom  62H    basis set group =>   3
Atom  63H    basis set group =>   3
Atom  64H    basis set group =>   3
Atom  65H    basis set group =>   3
Atom  66H    basis set group =>   3
Atom  67H    basis set group =>   3
Atom  68H    basis set group =>   3
Atom  69H    basis set group =>   3
Atom  70H    basis set group =>   3
Atom  71H    basis set group =>   3
Atom  72H    basis set group =>   3
Atom  73H    basis set group =>   3
Atom  74H    basis set group =>   3
Atom  75H    basis set group =>   3
Atom  76H    basis set group =>   3
Atom  77H    basis set group =>   3
Atom  78H    basis set group =>   3
Atom  79H    basis set group =>   3
Atom  80H    basis set group =>   3
Atom  81H    basis set group =>   3
Atom  82H    basis set group =>   3
Atom  83H    basis set group =>   3
Atom  84H    basis set group =>   3
Atom  85H    basis set group =>   3
Atom  86H    basis set group =>   3
Atom  87H    basis set group =>   3
Atom  88H    basis set group =>   3
Atom  89H    basis set group =>   3


           ************************************************************
           *        Program running with 16 parallel MPI-processes    *
           *              working on a common directory               *
           ************************************************************
------------------------------------------------------------------------------
                           ORCA GTO INTEGRAL CALCULATION
------------------------------------------------------------------------------
------------------------------------------------------------------------------
                   ___                                                        
                  /   \      - P O W E R E D   B Y -                         
                 /     \                                                     
                 |  |  |   _    _      __       _____    __    __             
                 |  |  |  | |  | |    /  \     |  _  \  |  |  /  |          
                  \  \/   | |  | |   /    \    | | | |  |  | /  /          
                 / \  \   | |__| |  /  /\  \   | |_| |  |  |/  /          
                |  |  |   |  __  | /  /__\  \  |    /   |      \           
                |  |  |   | |  | | |   __   |  |    \   |  |\   \          
                \     /   | |  | | |  |  |  |  | |\  \  |  | \   \       
                 \___/    |_|  |_| |__|  |__|  |_| \__\ |__|  \__/        
                                                                              
                      - O R C A' S   B I G   F R I E N D -                    
                                      &                                       
                       - I N T E G R A L  F E E D E R -                       
                                                                              
 v1 FN, 2020, v2 2021                                                         
------------------------------------------------------------------------------


Reading SHARK input file /scratch/allen/tmpyp4_amber_gaff2/conf1/conf1/Conf156.orca.SHARKINP.tmp ... ok
----------------------
SHARK INTEGRAL PACKAGE
----------------------

Number of atoms                             ...     90
Number of basis functions                   ...   1230
Number of shells                            ...    738
Maximum angular momentum                    ...      2
Integral batch strategy                     ... SHARK/LIBINT Hybrid
RI-J (if used) integral strategy            ... SPLIT-RIJ (Revised 2003 algorithm where possible)
Printlevel                                  ...      1
Contraction scheme used                     ... PARTIAL GENERAL contraction
Coulomb Range Separation                    ... NOT USED
Exchange Range Separation                   ... NOT USED
Finite Nucleus Model                        ... NOT USED
Auxiliary Coulomb fitting basis             ... NOT available
Auxiliary J/K fitting basis                 ... NOT available
Auxiliary Correlation fitting basis         ... NOT available
Auxiliary 'external' fitting basis          ... NOT available
Integral threshold                          ...     2.500000e-11
Primitive cut-off                           ...     2.500000e-12
Primitive pair pre-selection threshold      ...     2.500000e-12

Calculating pre-screening integrals         ... done (  0.1 sec) Dimension = 738
Calculating pre-screening integrals (ORCA)  ... done (  0.3 sec) Dimension = 426
Organizing shell pair data                  ... done (  0.7 sec)
Shell pair information
Total number of shell pairs                 ...    272691
Shell pairs after pre-screening             ...     71683
Total number of primitive shell pairs       ...    422091
Primitive shell pairs kept                  ...     92566
          la=0 lb=0:  29417 shell pairs
          la=1 lb=0:  26021 shell pairs
          la=1 lb=1:   4705 shell pairs
          la=2 lb=0:   7887 shell pairs
          la=2 lb=1:   3124 shell pairs
          la=2 lb=2:    529 shell pairs

Calculating one electron integrals          ... done (  0.2 sec)
Calculating Nuclear repulsion               ... done (  0.0 sec) ENN=   6232.401935469081 Eh

SHARK setup successfully completed in   2.2 seconds

Maximum memory used throughout the entire GTOINT-calculation: 99.1 MB


           ************************************************************
           *        Program running with 16 parallel MPI-processes    *
           *              working on a common directory               *
           ************************************************************
-------------------------------------------------------------------------------
                                 ORCA SCF
-------------------------------------------------------------------------------

------------
SCF SETTINGS
------------
Hamiltonian:
 Ab initio Hamiltonian  Method          .... Hartree-Fock(GTOs)


General Settings:
 Integral files         IntName         .... /scratch/allen/tmpyp4_amber_gaff2/conf1/conf1/Conf156.orca
 Hartree-Fock type      HFTyp           .... RHF
 Total Charge           Charge          ....    0
 Multiplicity           Mult            ....    1
 Number of Electrons    NEL             ....  358
 Basis Dimension        Dim             ....  918
 Nuclear Repulsion      ENuc            ....   6232.4019354691 Eh

Convergence Acceleration:
 DIIS                   CNVDIIS         .... on
   Start iteration      DIISMaxIt       ....    12
   Startup error        DIISStart       ....  0.200000
   # of expansion vecs  DIISMaxEq       ....     5
   Bias factor          DIISBfac        ....   1.050
   Max. coefficient     DIISMaxC        ....  10.000
 Trust-Rad. Augm. Hess. CNVTRAH         .... auto
   Auto Start mean grad. ratio tolernc. ....  1.125000
   Auto Start start iteration           ....    20
   Auto Start num. interpolation iter.  ....    10
   Max. Number of Micro iterations      ....    16
   Max. Number of Macro iterations      .... Maxiter - #DIIS iter
   Number of Davidson start vectors     ....     2
   Converg. threshold I  (grad. norm)   ....   1.000e-05
   Converg. threshold II (energy diff.) ....   1.000e-08
   Grad. Scal. Fac. for Micro threshold ....   0.100
   Minimum threshold for Micro iter.    ....   0.010
   NR start threshold (gradient norm)   ....   0.001
   Initial trust radius                 ....   0.400
   Minimum AH scaling param. (alpha)    ....   1.000
   Maximum AH scaling param. (alpha)    .... 1000.000
   Orbital update algorithm             .... Taylor
   White noise on init. David. guess    .... on
   Maximum white noise                  ....   0.010
   Quad. conv. algorithm                .... NR
 SOSCF                  CNVSOSCF        .... on
   Start iteration      SOSCFMaxIt      ....   150
   Startup grad/error   SOSCFStart      ....  0.003300
 Level Shifting         CNVShift        .... on
   Level shift para.    LevelShift      ....    0.2500
   Turn off err/grad.   ShiftErr        ....    0.0010
 Zerner damping         CNVZerner       .... off
 Static damping         CNVDamp         .... on
   Fraction old density DampFac         ....    0.7000
   Max. Damping (<1)    DampMax         ....    0.9800
   Min. Damping (>=0)   DampMin         ....    0.0000
   Turn off err/grad.   DampErr         ....    0.1000
 Fernandez-Rico         CNVRico         .... off

SCF Procedure:
 Maximum # iterations   MaxIter         ....   125
 SCF integral mode      SCFMode         .... Direct
   Integral package                     .... SHARK and LIBINT hybrid scheme
 Reset frequency        DirectResetFreq ....    20
 Integral Threshold     Thresh          ....  2.500e-11 Eh
 Primitive CutOff       TCut            ....  2.500e-12 Eh

Convergence Tolerance:
 Convergence Check Mode ConvCheckMode   .... Total+1el-Energy
 Convergence forced     ConvForced      .... 1
 Energy Change          TolE            ....  1.000e-08 Eh
 1-El. energy change                    ....  1.000e-05 Eh
 Orbital Gradient       TolG            ....  1.000e-05
 Orbital Rotation angle TolX            ....  1.000e-05
 DIIS Error             TolErr          ....  5.000e-07


Diagonalization of the overlap matrix:
Smallest eigenvalue                        ... 2.111e-04
Time for diagonalization                   ...    0.442 sec
Threshold for overlap eigenvalues          ... 1.000e-08
Number of eigenvalues below threshold      ... 0
Time for construction of square roots      ...    0.270 sec
Total time needed                          ...    0.721 sec

Time for model grid setup =    1.293 sec

------------------------------
INITIAL GUESS: MODEL POTENTIAL
------------------------------
Loading Hartree-Fock densities                     ... done
Calculating cut-offs                               ... done
Initializing the effective Hamiltonian             ... done
Setting up the integral package (SHARK)            ... done
Starting the Coulomb interaction                   ... done (   1.4 sec)
Reading the grid                                   ... done
Mapping shells                                     ... done
Starting the XC term evaluation                    ... done (   0.2 sec)
Transforming the Hamiltonian                       ... done (   0.3 sec)
Diagonalizing the Hamiltonian                      ... done (   0.4 sec)
Back transforming the eigenvectors                 ... done (   0.1 sec)
Now organizing SCF variables                       ... done
                      ------------------
                      INITIAL GUESS DONE (   3.8 sec)
                      ------------------
--------------
SCF ITERATIONS
--------------
ITER       Energy         Delta-E        Max-DP      RMS-DP      [F,P]     Damp
               ***  Starting incremental Fock matrix formation  ***
  0  -2121.6805909989   0.000000000000 0.08283918  0.00122653  0.2317238 0.7000
  1  -2122.3308554363  -0.650264437432 0.06232262  0.00099754  0.1436624 0.7000
                               ***Turning on DIIS***
  2  -2122.7356729814  -0.404817545110 0.14483904  0.00226736  0.0802708 0.0000
  3  -2117.9970309866   4.738641994794 0.03628460  0.00067068  0.0436915 0.0000
  4  -2123.4192363573  -5.422205370676 0.01153135  0.00022526  0.0086065 0.0000
  5  -2123.5675568153  -0.148320458009 0.00565265  0.00013198  0.0049402 0.0000
  6  -2123.5516157885   0.015941026799 0.00365999  0.00008478  0.0020814 0.0000
  7  -2123.6469877253  -0.095371936781 0.00313607  0.00006690  0.0016019 0.0000
  8  -2123.6562296972  -0.009241971895 0.00331365  0.00006357  0.0014930 0.0000
  9  -2123.6271767353   0.029052961912 0.00264650  0.00004485  0.0011973 0.0000
 10  -2123.6359651859  -0.008788450627 0.00533389  0.00009413  0.0009301 0.0000
                      *** Initiating the SOSCF procedure ***
                           *** Shutting down DIIS ***
                      *** Re-Reading the Fockian *** 
                      *** Removing any level shift *** 
ITER      Energy       Delta-E        Grad      Rot      Max-DP    RMS-DP
 11  -2123.52829135   0.1076738396  0.000178  0.000178  0.000237  0.000005
               *** Restarting incremental Fock matrix formation ***
 12  -2123.59422628  -0.0659349368  0.000860  0.006396  0.001440  0.000035
 13  -2123.59433452  -0.0001082324  0.001076  0.032024  0.006700  0.000138
 14  -2123.59451965  -0.0001851329  0.000358  0.001434  0.000613  0.000012
 15  -2123.59453489  -0.0000152404  0.000144  0.001810  0.000624  0.000015
 16  -2123.59454277  -0.0000078790  0.000153  0.002522  0.000463  0.000009
 17  -2123.59454531  -0.0000025408  0.000114  0.001774  0.000289  0.000006
 18  -2123.59454653  -0.0000012206  0.000062  0.000545  0.000248  0.000003
 19  -2123.59454709  -0.0000005579  0.000041  0.000596  0.000160  0.000003
 20  -2123.59454730  -0.0000002171  0.000019  0.000319  0.000090  0.000002
 21  -2123.59454740  -0.0000000919  0.000019  0.000413  0.000099  0.000002
 22  -2123.59454747  -0.0000000714  0.000015  0.000416  0.000083  0.000001
 23  -2123.59454751  -0.0000000465  0.000008  0.000284  0.000056  0.000001
 24  -2123.59454754  -0.0000000272  0.000005  0.000247  0.000042  0.000001
 25  -2123.59454756  -0.0000000205  0.000006  0.000154  0.000025  0.000001
 26  -2123.59454757  -0.0000000132  0.000004  0.000151  0.000024  0.000001
 27  -2123.59454759  -0.0000000101  0.000003  0.000128  0.000021  0.000000
                  ***Gradient check signals convergence***
              ***Rediagonalizing the Fockian in SOSCF/NRSCF***

               *****************************************************
               *                     SUCCESS                       *
               *           SCF CONVERGED AFTER  28 CYCLES          *
               *****************************************************


----------------
TOTAL SCF ENERGY
----------------

Total Energy       :        -2123.59454759 Eh          -57785.94542 eV

Components:
Nuclear Repulsion  :         6232.40193547 Eh          169592.27857 eV
Electronic Energy  :        -8355.99648306 Eh         -227378.22399 eV
One Electron Energy:       -15305.52824695 Eh         -416484.59727 eV
Two Electron Energy:         6949.53176389 Eh          189106.37328 eV

Virial components:
Potential Energy   :        -4245.84589811 Eh         -115535.34059 eV
Kinetic Energy     :         2122.25135052 Eh           57749.39517 eV
Virial Ratio       :            2.00063291


---------------
SCF CONVERGENCE
---------------

  Last Energy change         ...   -4.3892e-09  Tolerance :   1.0000e-08
  Last MAX-Density change    ...    1.2269e-05  Tolerance :   1.0000e-07
  Last RMS-Density change    ...    2.6857e-07  Tolerance :   5.0000e-09
  Last Orbital Gradient      ...    1.9412e-06  Tolerance :   1.0000e-05
  Last Orbital Rotation      ...    8.0691e-05  Tolerance :   1.0000e-05

             **** THE GBW FILE WAS UPDATED (/scratch/allen/tmpyp4_amber_gaff2/conf1/conf1/Conf156.orca.gbw) ****
             **** DENSITY /scratch/allen/tmpyp4_amber_gaff2/conf1/conf1/Conf156.orca.scfp WAS UPDATED ****
             **** ENERGY FILE WAS UPDATED (/scratch/allen/tmpyp4_amber_gaff2/conf1/conf1/Conf156.orca.en.tmp) ****
             **** THE GBW FILE WAS UPDATED (/scratch/allen/tmpyp4_amber_gaff2/conf1/conf1/Conf156.orca.gbw) ****
             **** DENSITY /scratch/allen/tmpyp4_amber_gaff2/conf1/conf1/Conf156.orca.scfp WAS UPDATED ****
----------------
ORBITAL ENERGIES
----------------

  NO   OCC          E(Eh)            E(eV) 
   0   2.0000     -15.676081      -426.5679 
   1   2.0000     -15.636772      -425.4982 
   2   2.0000     -15.629133      -425.2903 
   3   2.0000     -15.588567      -424.1865 
   4   2.0000     -15.525541      -422.4714 
   5   2.0000     -15.515690      -422.2034 
   6   2.0000     -15.452519      -420.4844 
   7   2.0000     -15.442014      -420.1986 
   8   2.0000     -11.326727      -308.2159 
   9   2.0000     -11.325639      -308.1863 
  10   2.0000     -11.324825      -308.1641 
  11   2.0000     -11.301072      -307.5178 
  12   2.0000     -11.296655      -307.3976 
  13   2.0000     -11.295144      -307.3565 
  14   2.0000     -11.289300      -307.1975 
  15   2.0000     -11.288694      -307.1810 
  16   2.0000     -11.284429      -307.0649 
  17   2.0000     -11.278595      -306.9062 
  18   2.0000     -11.271482      -306.7126 
  19   2.0000     -11.260805      -306.4221 
  20   2.0000     -11.259848      -306.3960 
  21   2.0000     -11.253599      -306.2260 
  22   2.0000     -11.252240      -306.1890 
  23   2.0000     -11.240459      -305.8685 
  24   2.0000     -11.233983      -305.6922 
  25   2.0000     -11.233314      -305.6740 
  26   2.0000     -11.232714      -305.6577 
  27   2.0000     -11.227741      -305.5224 
  28   2.0000     -11.227418      -305.5136 
  29   2.0000     -11.211406      -305.0779 
  30   2.0000     -11.209889      -305.0366 
  31   2.0000     -11.197141      -304.6897 
  32   2.0000     -11.190009      -304.4956 
  33   2.0000     -11.189569      -304.4837 
  34   2.0000     -11.188392      -304.4516 
  35   2.0000     -11.187319      -304.4224 
  36   2.0000     -11.187136      -304.4174 
  37   2.0000     -11.185907      -304.3840 
  38   2.0000     -11.184729      -304.3519 
  39   2.0000     -11.174332      -304.0690 
  40   2.0000     -11.174286      -304.0678 
  41   2.0000     -11.169171      -303.9286 
  42   2.0000     -11.168870      -303.9204 
  43   2.0000     -11.160985      -303.7058 
  44   2.0000     -11.159387      -303.6624 
  45   2.0000     -11.159064      -303.6536 
  46   2.0000     -11.156679      -303.5887 
  47   2.0000     -11.154085      -303.5181 
  48   2.0000     -11.146542      -303.3128 
  49   2.0000     -11.137527      -303.0675 
  50   2.0000     -11.132408      -302.9282 
  51   2.0000     -11.122421      -302.6565 
  52   2.0000      -1.357224       -36.9320 
  53   2.0000      -1.323650       -36.0183 
  54   2.0000      -1.317287       -35.8452 
  55   2.0000      -1.282781       -34.9063 
  56   2.0000      -1.226469       -33.3739 
  57   2.0000      -1.209981       -32.9253 
  58   2.0000      -1.171597       -31.8808 
  59   2.0000      -1.152348       -31.3570 
  60   2.0000      -1.140994       -31.0480 
  61   2.0000      -1.112233       -30.2654 
  62   2.0000      -1.107068       -30.1249 
  63   2.0000      -1.079156       -29.3653 
  64   2.0000      -1.078962       -29.3601 
  65   2.0000      -1.047749       -28.5107 
  66   2.0000      -1.042056       -28.3558 
  67   2.0000      -1.039454       -28.2850 
  68   2.0000      -1.015257       -27.6265 
  69   2.0000      -1.012261       -27.5450 
  70   2.0000      -1.009053       -27.4577 
  71   2.0000      -0.993793       -27.0425 
  72   2.0000      -0.986231       -26.8367 
  73   2.0000      -0.980879       -26.6911 
  74   2.0000      -0.971889       -26.4464 
  75   2.0000      -0.960622       -26.1399 
  76   2.0000      -0.953277       -25.9400 
  77   2.0000      -0.945967       -25.7411 
  78   2.0000      -0.935020       -25.4432 
  79   2.0000      -0.918502       -24.9937 
  80   2.0000      -0.907892       -24.7050 
  81   2.0000      -0.894601       -24.3433 
  82   2.0000      -0.875584       -23.8258 
  83   2.0000      -0.873282       -23.7632 
  84   2.0000      -0.868203       -23.6250 
  85   2.0000      -0.856872       -23.3167 
  86   2.0000      -0.839107       -22.8333 
  87   2.0000      -0.836656       -22.7666 
  88   2.0000      -0.824292       -22.4301 
  89   2.0000      -0.797546       -21.7023 
  90   2.0000      -0.790620       -21.5139 
  91   2.0000      -0.751761       -20.4564 
  92   2.0000      -0.744112       -20.2483 
  93   2.0000      -0.733664       -19.9640 
  94   2.0000      -0.724923       -19.7262 
  95   2.0000      -0.721977       -19.6460 
  96   2.0000      -0.716353       -19.4929 
  97   2.0000      -0.712551       -19.3895 
  98   2.0000      -0.707248       -19.2452 
  99   2.0000      -0.697511       -18.9802 
 100   2.0000      -0.696207       -18.9448 
 101   2.0000      -0.684739       -18.6327 
 102   2.0000      -0.681828       -18.5535 
 103   2.0000      -0.679645       -18.4941 
 104   2.0000      -0.678259       -18.4564 
 105   2.0000      -0.672355       -18.2957 
 106   2.0000      -0.669968       -18.2308 
 107   2.0000      -0.661147       -17.9907 
 108   2.0000      -0.655160       -17.8278 
 109   2.0000      -0.654497       -17.8098 
 110   2.0000      -0.649524       -17.6744 
 111   2.0000      -0.643601       -17.5133 
 112   2.0000      -0.643342       -17.5062 
 113   2.0000      -0.639278       -17.3956 
 114   2.0000      -0.636988       -17.3333 
 115   2.0000      -0.626684       -17.0529 
 116   2.0000      -0.622819       -16.9478 
 117   2.0000      -0.618425       -16.8282 
 118   2.0000      -0.614582       -16.7236 
 119   2.0000      -0.613248       -16.6873 
 120   2.0000      -0.609514       -16.5857 
 121   2.0000      -0.608927       -16.5698 
 122   2.0000      -0.599408       -16.3107 
 123   2.0000      -0.586416       -15.9572 
 124   2.0000      -0.583097       -15.8669 
 125   2.0000      -0.580463       -15.7952 
 126   2.0000      -0.578711       -15.7475 
 127   2.0000      -0.575018       -15.6470 
 128   2.0000      -0.568278       -15.4636 
 129   2.0000      -0.559056       -15.2127 
 130   2.0000      -0.551016       -14.9939 
 131   2.0000      -0.547660       -14.9026 
 132   2.0000      -0.543565       -14.7912 
 133   2.0000      -0.541850       -14.7445 
 134   2.0000      -0.539632       -14.6841 
 135   2.0000      -0.534428       -14.5425 
 136   2.0000      -0.528102       -14.3704 
 137   2.0000      -0.521149       -14.1812 
 138   2.0000      -0.518407       -14.1066 
 139   2.0000      -0.513971       -13.9859 
 140   2.0000      -0.511946       -13.9308 
 141   2.0000      -0.510580       -13.8936 
 142   2.0000      -0.510397       -13.8886 
 143   2.0000      -0.504025       -13.7152 
 144   2.0000      -0.500417       -13.6170 
 145   2.0000      -0.496082       -13.4991 
 146   2.0000      -0.493307       -13.4236 
 147   2.0000      -0.482808       -13.1379 
 148   2.0000      -0.478115       -13.0102 
 149   2.0000      -0.466930       -12.7058 
 150   2.0000      -0.466058       -12.6821 
 151   2.0000      -0.457100       -12.4383 
 152   2.0000      -0.450284       -12.2528 
 153   2.0000      -0.445931       -12.1344 
 154   2.0000      -0.441252       -12.0071 
 155   2.0000      -0.428335       -11.6556 
 156   2.0000      -0.425101       -11.5676 
 157   2.0000      -0.416041       -11.3210 
 158   2.0000      -0.406828       -11.0704 
 159   2.0000      -0.387258       -10.5378 
 160   2.0000      -0.385204       -10.4819 
 161   2.0000      -0.378162       -10.2903 
 162   2.0000      -0.371384       -10.1059 
 163   2.0000      -0.358611        -9.7583 
 164   2.0000      -0.353992        -9.6326 
 165   2.0000      -0.340422        -9.2634 
 166   2.0000      -0.337824        -9.1927 
 167   2.0000      -0.326587        -8.8869 
 168   2.0000      -0.322659        -8.7800 
 169   2.0000      -0.305556        -8.3146 
 170   2.0000      -0.299385        -8.1467 
 171   2.0000      -0.285297        -7.7633 
 172   2.0000      -0.280708        -7.6384 
 173   2.0000      -0.262423        -7.1409 
 174   2.0000      -0.242753        -6.6057 
 175   2.0000      -0.190080        -5.1723 
 176   2.0000      -0.180561        -4.9133 
 177   2.0000      -0.077381        -2.1056 
 178   2.0000      -0.058839        -1.6011 
 179   0.0000       0.028265         0.7691 
 180   0.0000       0.065723         1.7884 
 181   0.0000       0.091055         2.4777 
 182   0.0000       0.108552         2.9539 
 183   0.0000       0.111814         3.0426 
 184   0.0000       0.135267         3.6808 
 185   0.0000       0.141011         3.8371 
 186   0.0000       0.142865         3.8875 
 187   0.0000       0.163489         4.4488 
 188   0.0000       0.164523         4.4769 
 189   0.0000       0.167114         4.5474 
 190   0.0000       0.171843         4.6761 
 191   0.0000       0.182302         4.9607 
 192   0.0000       0.185726         5.0539 
 193   0.0000       0.188142         5.1196 
 194   0.0000       0.203290         5.5318 
 195   0.0000       0.206621         5.6224 
 196   0.0000       0.207102         5.6355 
 197   0.0000       0.210206         5.7200 
 198   0.0000       0.218316         5.9407 
 199   0.0000       0.227930         6.2023 
 200   0.0000       0.232934         6.3385 
 201   0.0000       0.235457         6.4071 
 202   0.0000       0.238017         6.4768 
 203   0.0000       0.240914         6.5556 
 204   0.0000       0.247134         6.7249 
 205   0.0000       0.255366         6.9489 
 206   0.0000       0.256348         6.9756 
 207   0.0000       0.257926         7.0185 
 208   0.0000       0.259902         7.0723 
 209   0.0000       0.260782         7.0962 
 210   0.0000       0.263955         7.1826 
 211   0.0000       0.267478         7.2784 
 212   0.0000       0.270573         7.3627 
 213   0.0000       0.271340         7.3835 
 214   0.0000       0.272443         7.4136 
 215   0.0000       0.276798         7.5320 
 216   0.0000       0.278584         7.5807 
 217   0.0000       0.280430         7.6309 
 218   0.0000       0.285363         7.7651 
 219   0.0000       0.288434         7.8487 
 220   0.0000       0.289181         7.8690 
 221   0.0000       0.292573         7.9613 
 222   0.0000       0.294170         8.0048 
 223   0.0000       0.295313         8.0359 
 224   0.0000       0.298956         8.1350 
 225   0.0000       0.300195         8.1687 
 226   0.0000       0.305039         8.3005 
 227   0.0000       0.308923         8.4062 
 228   0.0000       0.310126         8.4390 
 229   0.0000       0.323848         8.8124 
 230   0.0000       0.327363         8.9080 
 231   0.0000       0.332435         9.0460 
 232   0.0000       0.338905         9.2221 
 233   0.0000       0.343638         9.3509 
 234   0.0000       0.350855         9.5473 
 235   0.0000       0.356314         9.6958 
 236   0.0000       0.376168        10.2360 
 237   0.0000       0.379124        10.3165 
 238   0.0000       0.392629        10.6840 
 239   0.0000       0.396287        10.7835 
 240   0.0000       0.400801        10.9064 
 241   0.0000       0.409705        11.1486 
 242   0.0000       0.413528        11.2527 
 243   0.0000       0.419491        11.4149 
 244   0.0000       0.427712        11.6386 
 245   0.0000       0.434501        11.8234 
 246   0.0000       0.437288        11.8992 
 247   0.0000       0.439163        11.9502 
 248   0.0000       0.442967        12.0537 
 249   0.0000       0.448752        12.2112 
 250   0.0000       0.458936        12.4883 
 251   0.0000       0.461958        12.5705 
 252   0.0000       0.469517        12.7762 
 253   0.0000       0.470003        12.7894 
 254   0.0000       0.472193        12.8490 
 255   0.0000       0.475809        12.9474 
 256   0.0000       0.476557        12.9678 
 257   0.0000       0.481135        13.0924 
 258   0.0000       0.486759        13.2454 
 259   0.0000       0.496897        13.5213 
 260   0.0000       0.503443        13.6994 
 261   0.0000       0.504314        13.7231 
 262   0.0000       0.507680        13.8147 
 263   0.0000       0.509509        13.8644 
 264   0.0000       0.514717        14.0062 
 265   0.0000       0.518446        14.1076 
 266   0.0000       0.524786        14.2801 
 267   0.0000       0.529004        14.3949 
 268   0.0000       0.534340        14.5401 
 269   0.0000       0.536522        14.5995 
 270   0.0000       0.539472        14.6798 
 271   0.0000       0.546802        14.8792 
 272   0.0000       0.556128        15.1330 
 273   0.0000       0.558455        15.1963 
 274   0.0000       0.561729        15.2854 
 275   0.0000       0.564842        15.3701 
 276   0.0000       0.570115        15.5136 
 277   0.0000       0.571788        15.5591 
 278   0.0000       0.577905        15.7256 
 279   0.0000       0.586901        15.9704 
 280   0.0000       0.589610        16.0441 
 281   0.0000       0.592127        16.1126 
 282   0.0000       0.594411        16.1748 
 283   0.0000       0.595715        16.2102 
 284   0.0000       0.596613        16.2347 
 285   0.0000       0.598725        16.2921 
 286   0.0000       0.607776        16.5384 
 287   0.0000       0.611752        16.6466 
 288   0.0000       0.618633        16.8339 
 289   0.0000       0.623545        16.9675 
 290   0.0000       0.626602        17.0507 
 291   0.0000       0.630587        17.1591 
 292   0.0000       0.634459        17.2645 
 293   0.0000       0.638438        17.3728 
 294   0.0000       0.645069        17.5532 
 295   0.0000       0.649255        17.6671 
 296   0.0000       0.653459        17.7815 
 297   0.0000       0.655955        17.8494 
 298   0.0000       0.663123        18.0445 
 299   0.0000       0.667294        18.1580 
 300   0.0000       0.670962        18.2578 
 301   0.0000       0.674702        18.3596 
 302   0.0000       0.676793        18.4165 
 303   0.0000       0.678502        18.4630 
 304   0.0000       0.681039        18.5320 
 305   0.0000       0.685126        18.6432 
 306   0.0000       0.689095        18.7512 
 307   0.0000       0.690606        18.7923 
 308   0.0000       0.695698        18.9309 
 309   0.0000       0.698102        18.9963 
 310   0.0000       0.701765        19.0960 
 311   0.0000       0.704550        19.1718 
 312   0.0000       0.708747        19.2860 
 313   0.0000       0.710403        19.3310 
 314   0.0000       0.710794        19.3417 
 315   0.0000       0.714933        19.4543 
 316   0.0000       0.716664        19.5014 
 317   0.0000       0.719029        19.5658 
 318   0.0000       0.721578        19.6351 
 319   0.0000       0.724885        19.7251 
 320   0.0000       0.727167        19.7872 
 321   0.0000       0.731120        19.8948 
 322   0.0000       0.732966        19.9450 
 323   0.0000       0.733058        19.9475 
 324   0.0000       0.735203        20.0059 
 325   0.0000       0.739972        20.1357 
 326   0.0000       0.744835        20.2680 
 327   0.0000       0.746995        20.3268 
 328   0.0000       0.750145        20.4125 
 329   0.0000       0.752820        20.4853 
 330   0.0000       0.756052        20.5732 
 331   0.0000       0.757937        20.6245 
 332   0.0000       0.760695        20.6996 
 333   0.0000       0.764305        20.7978 
 334   0.0000       0.767354        20.8808 
 335   0.0000       0.771967        21.0063 
 336   0.0000       0.776823        21.1384 
 337   0.0000       0.782466        21.2920 
 338   0.0000       0.784208        21.3394 
 339   0.0000       0.787892        21.4396 
 340   0.0000       0.793712        21.5980 
 341   0.0000       0.794553        21.6209 
 342   0.0000       0.795511        21.6470 
 343   0.0000       0.802447        21.8357 
 344   0.0000       0.804692        21.8968 
 345   0.0000       0.805836        21.9279 
 346   0.0000       0.808059        21.9884 
 347   0.0000       0.812361        22.1055 
 348   0.0000       0.816170        22.2091 
 349   0.0000       0.817164        22.2362 
 350   0.0000       0.819172        22.2908 
 351   0.0000       0.819741        22.3063 
 352   0.0000       0.822014        22.3681 
 353   0.0000       0.823695        22.4139 
 354   0.0000       0.829420        22.5697 
 355   0.0000       0.832697        22.6588 
 356   0.0000       0.834757        22.7149 
 357   0.0000       0.835629        22.7386 
 358   0.0000       0.836465        22.7614 
 359   0.0000       0.838891        22.8274 
 360   0.0000       0.842307        22.9203 
 361   0.0000       0.843737        22.9592 
 362   0.0000       0.844788        22.9878 
 363   0.0000       0.845513        23.0076 
 364   0.0000       0.849209        23.1081 
 365   0.0000       0.853570        23.2268 
 366   0.0000       0.858055        23.3489 
 367   0.0000       0.862209        23.4619 
 368   0.0000       0.864117        23.5138 
 369   0.0000       0.865126        23.5413 
 370   0.0000       0.870614        23.6906 
 371   0.0000       0.871224        23.7072 
 372   0.0000       0.874582        23.7986 
 373   0.0000       0.879133        23.9224 
 374   0.0000       0.879716        23.9383 
 375   0.0000       0.882390        24.0111 
 376   0.0000       0.886259        24.1163 
 377   0.0000       0.889352        24.2005 
 378   0.0000       0.892267        24.2798 
 379   0.0000       0.893432        24.3115 
 380   0.0000       0.896512        24.3953 
 381   0.0000       0.898770        24.4568 
 382   0.0000       0.900144        24.4942 
 383   0.0000       0.901848        24.5405 
 384   0.0000       0.904153        24.6033 
 385   0.0000       0.906232        24.6598 
 386   0.0000       0.907669        24.6989 
 387   0.0000       0.909477        24.7481 
 388   0.0000       0.912684        24.8354 
 389   0.0000       0.915197        24.9038 
 390   0.0000       0.920486        25.0477 
 391   0.0000       0.924445        25.1554 
 392   0.0000       0.926180        25.2026 
 393   0.0000       0.927713        25.2443 
 394   0.0000       0.928350        25.2617 
 395   0.0000       0.931424        25.3453 
 396   0.0000       0.932562        25.3763 
 397   0.0000       0.934806        25.4374 
 398   0.0000       0.942393        25.6438 
 399   0.0000       0.943390        25.6709 
 400   0.0000       0.946368        25.7520 
 401   0.0000       0.952534        25.9198 
 402   0.0000       0.952869        25.9289 
 403   0.0000       0.953758        25.9531 
 404   0.0000       0.960564        26.1383 
 405   0.0000       0.964977        26.2584 
 406   0.0000       0.967222        26.3194 
 407   0.0000       0.971988        26.4491 
 408   0.0000       0.975635        26.5484 
 409   0.0000       0.980131        26.6707 
 410   0.0000       0.981462        26.7069 
 411   0.0000       0.985593        26.8194 
 412   0.0000       0.992217        26.9996 
 413   0.0000       1.001032        27.2395 
 414   0.0000       1.001688        27.2573 
 415   0.0000       1.008278        27.4366 
 416   0.0000       1.009539        27.4709 
 417   0.0000       1.013016        27.5656 
 418   0.0000       1.017992        27.7010 
 419   0.0000       1.024225        27.8706 
 420   0.0000       1.030694        28.0466 
 421   0.0000       1.032482        28.0953 
 422   0.0000       1.043828        28.4040 
 423   0.0000       1.045878        28.4598 
 424   0.0000       1.051313        28.6077 
 425   0.0000       1.059866        28.8404 
 426   0.0000       1.067402        29.0455 
 427   0.0000       1.069923        29.1141 
 428   0.0000       1.075758        29.2729 
 429   0.0000       1.079725        29.3808 
 430   0.0000       1.081657        29.4334 
 431   0.0000       1.084245        29.5038 
 432   0.0000       1.089899        29.6576 
 433   0.0000       1.094537        29.7839 
 434   0.0000       1.096639        29.8411 
 435   0.0000       1.104957        30.0674 
 436   0.0000       1.107122        30.1263 
 437   0.0000       1.111496        30.2453 
 438   0.0000       1.117717        30.4146 
 439   0.0000       1.120201        30.4822 
 440   0.0000       1.121356        30.5136 
 441   0.0000       1.121970        30.5304 
 442   0.0000       1.125946        30.6386 
 443   0.0000       1.129194        30.7269 
 444   0.0000       1.131831        30.7987 
 445   0.0000       1.134488        30.8710 
 446   0.0000       1.140894        31.0453 
 447   0.0000       1.147831        31.2341 
 448   0.0000       1.149439        31.2778 
 449   0.0000       1.152693        31.3664 
 450   0.0000       1.154142        31.4058 
 451   0.0000       1.155747        31.4495 
 452   0.0000       1.162238        31.6261 
 453   0.0000       1.165557        31.7164 
 454   0.0000       1.167808        31.7777 
 455   0.0000       1.172502        31.9054 
 456   0.0000       1.174382        31.9566 
 457   0.0000       1.180877        32.1333 
 458   0.0000       1.185427        32.2571 
 459   0.0000       1.191761        32.4295 
 460   0.0000       1.195155        32.5218 
 461   0.0000       1.198671        32.6175 
 462   0.0000       1.201568        32.6963 
 463   0.0000       1.204169        32.7671 
 464   0.0000       1.207034        32.8451 
 465   0.0000       1.209154        32.9028 
 466   0.0000       1.213201        33.0129 
 467   0.0000       1.217763        33.1370 
 468   0.0000       1.221867        33.2487 
 469   0.0000       1.226773        33.3822 
 470   0.0000       1.229487        33.4561 
 471   0.0000       1.234017        33.5793 
 472   0.0000       1.234609        33.5954 
 473   0.0000       1.236878        33.6572 
 474   0.0000       1.242220        33.8025 
 475   0.0000       1.242814        33.8187 
 476   0.0000       1.248382        33.9702 
 477   0.0000       1.252071        34.0706 
 478   0.0000       1.254110        34.1261 
 479   0.0000       1.254388        34.1336 
 480   0.0000       1.259357        34.2688 
 481   0.0000       1.262838        34.3636 
 482   0.0000       1.270812        34.5806 
 483   0.0000       1.272824        34.6353 
 484   0.0000       1.274073        34.6693 
 485   0.0000       1.279413        34.8146 
 486   0.0000       1.283275        34.9197 
 487   0.0000       1.284173        34.9441 
 488   0.0000       1.289938        35.1010 
 489   0.0000       1.293004        35.1844 
 490   0.0000       1.295345        35.2481 
 491   0.0000       1.298212        35.3262 
 492   0.0000       1.300984        35.4016 
 493   0.0000       1.304295        35.4917 
 494   0.0000       1.310801        35.6687 
 495   0.0000       1.314021        35.7563 
 496   0.0000       1.318412        35.8758 
 497   0.0000       1.322549        35.9884 
 498   0.0000       1.323685        36.0193 
 499   0.0000       1.327111        36.1125 
 500   0.0000       1.329917        36.1889 
 501   0.0000       1.335766        36.3480 
 502   0.0000       1.339950        36.4619 
 503   0.0000       1.343520        36.5590 
 504   0.0000       1.345757        36.6199 
 505   0.0000       1.349278        36.7157 
 506   0.0000       1.350890        36.7596 
 507   0.0000       1.355246        36.8781 
 508   0.0000       1.359418        36.9916 
 509   0.0000       1.362610        37.0785 
[...]
      pz      :     0.022105  p :     0.079770
      px      :     0.043596
      py      :     0.014069
 77 H s       :     0.884894  s :     0.884894
      pz      :     0.047955  p :     0.079261
      px      :     0.015022
      py      :     0.016284
 78 H s       :     0.885300  s :     0.885300
      pz      :     0.025868  p :     0.079219
      px      :     0.020462
      py      :     0.032889
 79 H s       :     0.910343  s :     0.910343
      pz      :     0.021825  p :     0.086368
      px      :     0.021669
      py      :     0.042873
 80 H s       :     0.865037  s :     0.865037
      pz      :     0.039348  p :     0.084785
      px      :     0.030268
      py      :     0.015169
 81 H s       :     0.887097  s :     0.887097
      pz      :     0.037802  p :     0.084098
      px      :     0.016195
      py      :     0.030101
 82 H s       :     0.916186  s :     0.916186
      pz      :     0.021984  p :     0.086725
      px      :     0.031620
      py      :     0.033121
 83 H s       :     0.873806  s :     0.873806
      pz      :     0.039232  p :     0.084044
      px      :     0.015284
      py      :     0.029527
 84 H s       :     0.887128  s :     0.887128
      pz      :     0.035744  p :     0.083459
      px      :     0.031683
      py      :     0.016032
 85 H s       :     0.893264  s :     0.893264
      pz      :     0.022482  p :     0.079766
      px      :     0.014085
      py      :     0.043199
 86 H s       :     0.891252  s :     0.891252
      pz      :     0.024720  p :     0.078807
      px      :     0.032962
      py      :     0.021125
 87 H s       :     0.890088  s :     0.890088
      pz      :     0.047996  p :     0.078718
      px      :     0.015586
      py      :     0.015136
 88 H s       :     0.910783  s :     0.910783
      pz      :     0.021693  p :     0.087039
      px      :     0.042891
      py      :     0.022454
 89 H s       :     0.871345  s :     0.871345
      pz      :     0.037942  p :     0.083829
      px      :     0.030474
      py      :     0.015414


                      *****************************
                      * MAYER POPULATION ANALYSIS *
                      *****************************

  NA   - Mulliken gross atomic population
  ZA   - Total nuclear charge
  QA   - Mulliken gross atomic charge
  VA   - Mayer's total valence
  BVA  - Mayer's bonded valence
  FA   - Mayer's free valence

  ATOM       NA         ZA         QA         VA         BVA        FA
  0 C      5.7912     6.0000     0.2088     3.8414     3.8414     0.0000
  1 N      7.4559     7.0000    -0.4559     3.3315     3.3315     0.0000
  2 C      6.0708     6.0000    -0.0708     3.9217     3.9217    -0.0000
  3 N      7.3383     7.0000    -0.3383     3.4594     3.4594     0.0000
  4 C      6.0562     6.0000    -0.0562     4.0520     4.0520     0.0000
  5 N      7.5634     7.0000    -0.5634     3.0964     3.0964     0.0000
  6 C      6.1229     6.0000    -0.1229     3.9845     3.9845     0.0000
  7 N      7.3406     7.0000    -0.3406     3.4333     3.4333    -0.0000
  8 C      5.7886     6.0000     0.2114     3.8454     3.8454     0.0000
  9 N      7.5626     7.0000    -0.5626     3.0780     3.0780     0.0000
 10 C      5.8809     6.0000     0.1191     3.9095     3.9095     0.0000
 11 N      7.4379     7.0000    -0.4379     3.3810     3.3810    -0.0000
 12 C      6.0757     6.0000    -0.0757     3.8833     3.8833    -0.0000
 13 N      7.4302     7.0000    -0.4302     3.4244     3.4244     0.0000
 14 C      5.7829     6.0000     0.2171     3.7864     3.7864    -0.0000
 15 N      7.4415     7.0000    -0.4415     3.3696     3.3696    -0.0000
 16 C      5.7690     6.0000     0.2310     3.7776     3.7776    -0.0000
 17 C      6.1192     6.0000    -0.1192     3.9858     3.9858     0.0000
 18 C      6.1574     6.0000    -0.1574     3.7519     3.7519    -0.0000
 19 C      5.7954     6.0000     0.2046     3.8657     3.8657     0.0000
 20 C      5.7856     6.0000     0.2144     3.8285     3.8285    -0.0000
 21 C      6.0889     6.0000    -0.0889     3.8824     3.8824     0.0000
 22 C      6.0891     6.0000    -0.0891     3.9818     3.9818    -0.0000
 23 C      6.0404     6.0000    -0.0404     3.9923     3.9923    -0.0000
 24 C      5.8045     6.0000     0.1955     3.8213     3.8213    -0.0000
 25 C      5.8858     6.0000     0.1142     3.8905     3.8905    -0.0000
 26 C      6.0816     6.0000    -0.0816     3.9063     3.9063     0.0000
 27 C      5.7874     6.0000     0.2126     3.8620     3.8620     0.0000
 28 C      6.0608     6.0000    -0.0608     3.9888     3.9888    -0.0000
 29 C      6.1814     6.0000    -0.1814     3.7461     3.7461    -0.0000
 30 C      5.7548     6.0000     0.2452     3.7983     3.7983     0.0000
 31 C      5.7703     6.0000     0.2297     3.8183     3.8183    -0.0000
 32 C      6.0613     6.0000    -0.0613     3.9234     3.9234     0.0000
 33 C      6.0622     6.0000    -0.0622     3.9726     3.9726     0.0000
 34 C      6.0499     6.0000    -0.0499     3.9845     3.9845    -0.0000
 35 C      5.7747     6.0000     0.2253     3.8170     3.8170    -0.0000
 36 C      5.8913     6.0000     0.1087     3.8761     3.8761     0.0000
 37 C      6.0645     6.0000    -0.0645     3.9175     3.9175    -0.0000
 38 C      5.7674     6.0000     0.2326     3.8020     3.8020    -0.0000
 39 C      6.0589     6.0000    -0.0589     3.9836     3.9836    -0.0000
 40 C      6.1812     6.0000    -0.1812     3.7278     3.7278     0.0000
 41 C      5.7757     6.0000     0.2243     3.8862     3.8862     0.0000
 42 C      5.8030     6.0000     0.1970     3.8262     3.8262     0.0000
 43 C      6.0727     6.0000    -0.0727     3.8999     3.8999    -0.0000
 44 C      6.0910     6.0000    -0.0910     3.9859     3.9859    -0.0000
 45 C      6.0610     6.0000    -0.0610     3.9921     3.9921    -0.0000
 46 C      5.7903     6.0000     0.2097     3.8288     3.8288    -0.0000
 47 C      5.8843     6.0000     0.1157     3.8938     3.8938     0.0000
 48 C      6.0678     6.0000    -0.0678     3.9090     3.9090    -0.0000
 49 C      5.7625     6.0000     0.2375     3.8947     3.8947    -0.0000
 50 C      6.0468     6.0000    -0.0468     3.9905     3.9905     0.0000
 51 C      6.1945     6.0000    -0.1945     3.7370     3.7370    -0.0000
 52 H      0.9614     1.0000     0.0386     0.9861     0.9861     0.0000
 53 H      1.0172     1.0000    -0.0172     0.9987     0.9987    -0.0000
 54 H      0.9495     1.0000     0.0505     1.0161     1.0161     0.0000
 55 H      0.9627     1.0000     0.0373     0.9866     0.9866     0.0000
 56 H      0.9507     1.0000     0.0493     0.9696     0.9696    -0.0000
 57 H      0.9522     1.0000     0.0478     0.9824     0.9824    -0.0000
 58 H      0.9532     1.0000     0.0468     0.9851     0.9851     0.0000
 59 H      0.9993     1.0000     0.0007     1.0030     1.0030    -0.0000
 60 H      0.9472     1.0000     0.0528     1.0196     1.0196     0.0000
 61 H      0.8290     1.0000     0.1710     1.0419     1.0419     0.0000
 62 H      0.8244     1.0000     0.1756     1.0436     1.0436     0.0000
 63 H      0.9437     1.0000     0.0563     0.9852     0.9852    -0.0000
 64 H      1.0049     1.0000    -0.0049     0.9967     0.9967     0.0000
 65 H      0.9529     1.0000     0.0471     1.0098     1.0098     0.0000
 66 H      0.9436     1.0000     0.0564     0.9854     0.9854    -0.0000
 67 H      0.9367     1.0000     0.0633     0.9720     0.9720     0.0000
 68 H      0.9423     1.0000     0.0577     0.9868     0.9868    -0.0000
 69 H      0.9429     1.0000     0.0571     0.9829     0.9829    -0.0000
 70 H      1.0289     1.0000    -0.0289     0.9933     0.9933     0.0000
 71 H      0.9541     1.0000     0.0459     1.0059     1.0059    -0.0000
 72 H      0.9297     1.0000     0.0703     0.9836     0.9836    -0.0000
 73 H      1.0082     1.0000    -0.0082     1.0007     1.0007     0.0000
 74 H      0.9405     1.0000     0.0595     1.0102     1.0102    -0.0000
 75 H      0.9304     1.0000     0.0696     0.9840     0.9840    -0.0000
 76 H      0.9260     1.0000     0.0740     0.9721     0.9721     0.0000
 77 H      0.9327     1.0000     0.0673     0.9855     0.9855     0.0000
 78 H      0.9335     1.0000     0.0665     0.9853     0.9853     0.0000
 79 H      1.0159     1.0000    -0.0159     0.9978     0.9978    -0.0000
 80 H      0.9399     1.0000     0.0601     1.0071     1.0071    -0.0000
 81 H      0.9463     1.0000     0.0537     0.9857     0.9857     0.0000
 82 H      1.0252     1.0000    -0.0252     0.9933     0.9933     0.0000
 83 H      0.9590     1.0000     0.0410     1.0083     1.0083    -0.0000
 84 H      0.9468     1.0000     0.0532     0.9853     0.9853    -0.0000
 85 H      0.9400     1.0000     0.0600     0.9715     0.9715    -0.0000
 86 H      0.9449     1.0000     0.0551     0.9839     0.9839     0.0000
 87 H      0.9432     1.0000     0.0568     0.9856     0.9856     0.0000
 88 H      1.0149     1.0000    -0.0149     0.9967     0.9967    -0.0000
 89 H      0.9535     1.0000     0.0465     1.0072     1.0072     0.0000

  Mayer bond orders larger than 0.100000
B(  0-C ,  1-N ) :   1.0875 B(  0-C , 17-C ) :   1.7129 B(  0-C , 52-H ) :   0.9656 
B(  1-N ,  8-C ) :   1.0924 B(  1-N , 10-C ) :   0.9781 B(  2-C , 12-C ) :   1.5006 
B(  2-C , 16-C ) :   1.3607 B(  2-C , 53-H ) :   0.9753 B(  3-N , 14-C ) :   1.2188 
B(  3-N , 16-C ) :   1.1892 B(  3-N , 61-H ) :   0.8993 B(  4-C ,  6-C ) :   1.2110 
B(  4-C , 17-C ) :   1.2118 B(  4-C , 18-C ) :   1.4471 B(  5-N , 19-C ) :   1.4542 
B(  5-N , 27-C ) :   1.3775 B(  6-C ,  8-C ) :   1.7105 B(  6-C , 54-H ) :   0.9467 
B(  7-N , 30-C ) :   1.1941 B(  7-N , 38-C ) :   1.1917 B(  7-N , 62-H ) :   0.8967 
B(  8-C , 55-H ) :   0.9665 B(  9-N , 41-C ) :   1.3926 B(  9-N , 49-C ) :   1.4278 
B( 10-C , 56-H ) :   0.9771 B( 10-C , 57-H ) :   0.9833 B( 10-C , 58-H ) :   0.9834 
B( 11-N , 20-C ) :   1.1323 B( 11-N , 24-C ) :   1.1098 B( 11-N , 25-C ) :   0.9591 
B( 12-C , 14-C ) :   1.3577 B( 12-C , 59-H ) :   0.9699 B( 13-N , 31-C ) :   1.1597 
B( 13-N , 35-C ) :   1.1552 B( 13-N , 36-C ) :   0.9428 B( 14-C , 18-C ) :   1.1248 
B( 15-N , 42-C ) :   1.1066 B( 15-N , 46-C ) :   1.1216 B( 15-N , 47-C ) :   0.9623 
B( 16-C , 51-C ) :   1.1698 B( 17-C , 60-H ) :   0.9481 B( 18-C , 19-C ) :   1.1273 
B( 19-C , 21-C ) :   1.2470 B( 20-C , 28-C ) :   1.6262 B( 20-C , 63-H ) :   0.9702 
B( 21-C , 26-C ) :   1.6048 B( 21-C , 64-H ) :   0.9686 B( 22-C , 23-C ) :   1.2910 
B( 22-C , 28-C ) :   1.2666 B( 22-C , 29-C ) :   1.2211 B( 23-C , 24-C ) :   1.6177 
B( 23-C , 65-H ) :   0.9704 B( 24-C , 66-H ) :   0.9695 B( 25-C , 67-H ) :   0.9760 
B( 25-C , 68-H ) :   0.9828 B( 25-C , 69-H ) :   0.9823 B( 26-C , 27-C ) :   1.2431 
B( 26-C , 70-H ) :   0.9696 B( 27-C , 29-C ) :   1.2119 B( 28-C , 71-H ) :   0.9719 
B( 29-C , 30-C ) :   1.2446 B( 30-C , 32-C ) :   1.2801 B( 31-C , 39-C ) :   1.5914 
B( 31-C , 72-H ) :   0.9682 B( 32-C , 37-C ) :   1.5793 B( 32-C , 73-H ) :   0.9785 
B( 33-C , 34-C ) :   1.3060 B( 33-C , 39-C ) :   1.3002 B( 33-C , 40-C ) :   1.1802 
B( 34-C , 35-C ) :   1.5881 B( 34-C , 74-H ) :   0.9696 B( 35-C , 75-H ) :   0.9683 
B( 36-C , 76-H ) :   0.9767 B( 36-C , 77-H ) :   0.9816 B( 36-C , 78-H ) :   0.9824 
B( 37-C , 38-C ) :   1.2847 B( 37-C , 79-H ) :   0.9767 B( 38-C , 40-C ) :   1.2335 
B( 39-C , 80-H ) :   0.9706 B( 40-C , 41-C ) :   1.2481 B( 41-C , 43-C ) :   1.1885 
B( 42-C , 50-C ) :   1.6358 B( 42-C , 81-H ) :   0.9697 B( 43-C , 48-C ) :   1.6636 
B( 43-C , 82-H ) :   0.9722 B( 44-C , 45-C ) :   1.2620 B( 44-C , 50-C ) :   1.2696 
B( 44-C , 51-C ) :   1.2653 B( 45-C , 46-C ) :   1.6369 B( 45-C , 83-H ) :   0.9718 
B( 46-C , 84-H ) :   0.9701 B( 47-C , 85-H ) :   0.9762 B( 47-C , 86-H ) :   0.9829 
B( 47-C , 87-H ) :   0.9825 B( 48-C , 49-C ) :   1.1921 B( 48-C , 88-H ) :   0.9749 
B( 49-C , 51-C ) :   1.2388 B( 50-C , 89-H ) :   0.9709 

-------
TIMINGS
-------

Total SCF time: 0 days 0 hours 28 min 29 sec 

Total time                  ....    1709.311 sec
Sum of individual times     ....    1704.564 sec  ( 99.7%)

Fock matrix formation       ....    1676.693 sec  ( 98.1%)
Diagonalization             ....       8.848 sec  (  0.5%)
Density matrix formation    ....       0.535 sec  (  0.0%)
Population analysis         ....       0.586 sec  (  0.0%)
Initial guess               ....       2.510 sec  (  0.1%)
Orbital Transformation      ....       0.000 sec  (  0.0%)
Orbital Orthonormalization  ....       0.000 sec  (  0.0%)
DIIS solution               ....       3.965 sec  (  0.2%)
SOSCF solution              ....      10.134 sec  (  0.6%)

Maximum memory used throughout the entire SCF-calculation: 302.6 MB


           ************************************************************
           *        Program running with 16 parallel MPI-processes    *
           *              working on a common directory               *
           ************************************************************

------------------------------------------------------------------------------
                                ORCA  MP2 
------------------------------------------------------------------------------

Freezing NCore=104 chemical core electrons

----------
MP2 ENERGY (disk based algorithm)
----------

Dimension of the basis                    ...  918
Memory devoted to MP2                     ... 2000 MB   
Data format for buffers                   ... DOUBLE
Compression type for matrix containers    ... UNCOMPRESSED

-------------------------------
PARTIAL EXCHANGE TRANSFORMATION
-------------------------------

Transformation type                        ... one-operator
Generation of integrals (i,mue|j,nue)      ... ON
Generation of integrals (mue,kappa|nue,tau)... OFF
Generation of integrals (i,mue|a,nue)      ... OFF
Dimension of the basis                     ...  918
Number of internal MOs                     ...  127 (  52- 178)
Pair cutoff                                ... 2.500e-12 Eh
Number of AO pairs in the trafo            ... 421821
Total Number of distinct AO pairs          ... 421821
Memory devoted for trafo                   ... 2000.0 MB 
Max. Number of MO pairs treated together   ...  311      
Number Format for Storage                  ... Double (8 Byte)
Integral package used                      ... LIBINT

Starting integral evaluation:
    ... done with AO integral generation
Closing buffer AOK     (38.30 GB; CompressionRatio= 1.32)
Collecting buffer AOK 
Number of MO pairs included in the trafo   ... 8128
------------------------
SORTING OF (i,mue|j,nue)
------------------------

IBATCH = 1 of  2
IBATCH = 2 of  2
Closing buffer KAO     (51.03 GB; CompressionRatio= 1.00)
Collecting buffer KAO 
N(AO-Batches) Done                         ...  85997728 
N(AO-Batches) Skipped                      ...  82298600 
N(IJ)-pairs Skipped                        ...         0 
TOTAL TIME for half transformation         ...  2426.303 sec
AO-integral generation                     ...   210.915 sec
Half transformation                        ...   424.843 sec
K-integral sorting                         ...  1568.814 sec
Process 10:   Internal MO 132
Process  4:   Internal MO  84
Process 13:   Internal MO 156

Finished integral transformation - now doing MP2 part

OPERATOR COMBINATION   0   0: ij=( 52..178, 52..178)
Process  7:   Internal MO 108
Process  1:   Internal MO  60
Process  0:   Internal MO  54
Process  0:   Internal MO  57
Process  1:   Internal MO  63
Process  2:   Internal MO  69
Process  5:   Internal MO  93
Process  8:   Internal MO 117
Process  3:   Internal MO  78
Process  1:   Internal MO  66
Process  6:   Internal MO 102
Process  2:   Internal MO  72
Process 14:   Internal MO 165
Process 11:   Internal MO 141
Process  4:   Internal MO  87
Process  9:   Internal MO 126
Process  2:   Internal MO  75
Process  3:   Internal MO  81
Process  5:   Internal MO  96
Process  7:   Internal MO 111
Process 12:   Internal MO 150
Process  4:   Internal MO  90
Process 10:   Internal MO 135
Process  6:   Internal MO 105
Process 15:   Internal MO 174
Process  8:   Internal MO 120
Process  5:   Internal MO  99
Process  9:   Internal MO 129
Process  7:   Internal MO 114
Process 11:   Internal MO 144
Process 13:   Internal MO 159
Process 12:   Internal MO 153
Process 14:   Internal MO 168
Process  8:   Internal MO 123
Process 10:   Internal MO 138
Process 15:   Internal MO 177
Process 11:   Internal MO 147
Process 13:   Internal MO 162
Process 14:   Internal MO 171
-----------------------------------------------
 MP2 CORRELATION ENERGY   :     -7.282363143 Eh
-----------------------------------------------


-------
TIMINGS
-------
Total time                : 2715.797 sec
Integral trafo            : 2429.371 sec ( 89.5%)
K(i,j)                    :    6.281 sec (  0.2%)
T(i,j)                    :    0.084 sec (  0.0%)

---------------------------------------
MP2 TOTAL ENERGY:    -2130.876910732 Eh
---------------------------------------

Maximum memory used throughout the entire MP2-calculation: 2275.3 MB

-------------------------   --------------------
FINAL SINGLE POINT ENERGY     -2130.876910732234
-------------------------   --------------------


                            ***************************************
                            *     ORCA property calculations      *
                            ***************************************


  WARNING: The energy has been calculated at the MP2 level but the densities
           used in the property calculations are still SCF densities
           MP2 response densities have not been calculated 
           use %mp2 Density relaxed end
           or  %mp2 Density unrelaxed end

                                    ---------------------
                                    Active property flags
                                    ---------------------
   (+) Dipole Moment


------------------------------------------------------------------------------
                       ORCA ELECTRIC PROPERTIES CALCULATION
------------------------------------------------------------------------------

Dipole Moment Calculation                       ... on
Quadrupole Moment Calculation                   ... off
Polarizability Calculation                      ... off
GBWName                                         ... /scratch/allen/tmpyp4_amber_gaff2/conf1/conf1/Conf156.orca.gbw
Electron density                                ... /scratch/allen/tmpyp4_amber_gaff2/conf1/conf1/Conf156.orca.scfp
The origin for moment calculation is the CENTER OF MASS  = ( 0.003418, -0.001760  0.001607)

-------------
DIPOLE MOMENT
-------------
                                X             Y             Z
Electronic contribution:      2.33357      -4.23745      -0.22298
Nuclear contribution   :      0.04068       0.21418       0.22012
                        -----------------------------------------
Total Dipole Moment    :      2.37425      -4.02328      -0.00286
                        -----------------------------------------
Magnitude (a.u.)       :      4.67160
Magnitude (Debye)      :     11.87425



--------------------
Rotational spectrum 
--------------------
 
Rotational constants in cm-1:     0.001501     0.001479     0.000760 
Rotational constants in MHz :    44.983934    44.325488    22.797152 

 Dipole components along the rotational axes: 
x,y,z [a.u.] :     3.190330    -3.412566     0.001057 
x,y,z [Debye]:     8.109173    -8.674054     0.002687 

 

Timings for individual modules:

Sum of individual times         ...     4449.461 sec (=  74.158 min)
GTO integral calculation        ...        3.489 sec (=   0.058 min)   0.1 %
SCF iterations                  ...     1710.566 sec (=  28.509 min)  38.4 %
MP2 module                      ...     2735.407 sec (=  45.590 min)  61.5 %
                             ****ORCA TERMINATED NORMALLY****
TOTAL RUN TIME: 0 days 1 hours 14 minutes 12 seconds 837 msec
# of primitive gaussian functions

