
                                 *****************
                                 * O   R   C   A *
                                 *****************

                                            #,                                       
                                            ###                                      
                                            ####                                     
                                            #####                                    
                                            ######                                   
                                           ########,                                 
                                     ,,################,,,,,                         
                               ,,#################################,,                 
                          ,,##########################################,,             
                       ,#########################################, ''#####,          
                    ,#############################################,,   '####,        
                  ,##################################################,,,,####,       
                ,###########''''           ''''###############################       
              ,#####''   ,,,,##########,,,,          '''####'''          '####       
            ,##' ,,,,###########################,,,                        '##       
           ' ,,###''''                  '''############,,,                           
         ,,##''                                '''############,,,,        ,,,,,,###''
      ,#''                                            '''#######################'''  
     '                                                          ''''####''''         
             ,#######,   #######,   ,#######,      ##                                
            ,#'     '#,  ##    ##  ,#'     '#,    #''#        ######   ,####,        
            ##       ##  ##   ,#'  ##            #'  '#       #        #'  '#        
            ##       ##  #######   ##           ,######,      #####,   #    #        
            '#,     ,#'  ##    ##  '#,     ,#' ,#      #,         ##   #,  ,#        
             '#######'   ##     ##  '#######'  #'      '#     #####' # '####'        



                  #######################################################
                  #                        -***-                        #
                  #          Department of theory and spectroscopy      #
                  #    Directorship and core code : Frank Neese         #
                  #        Max Planck Institute fuer Kohlenforschung    #
                  #                Kaiser Wilhelm Platz 1               #
                  #                 D-45470 Muelheim/Ruhr               #
                  #                      Germany                        #
                  #                                                     #
                  #                  All rights reserved                #
                  #                        -***-                        #
                  #######################################################


                         Program Version 5.0.4 -  RELEASE  -


 With contributions from (in alphabetic order):
   Daniel Aravena         : Magnetic Suceptibility
   Michael Atanasov       : Ab Initio Ligand Field Theory (pilot matlab implementation)
   Alexander A. Auer      : GIAO ZORA, VPT2 properties, NMR spectrum
   Ute Becker             : Parallelization
   Giovanni Bistoni       : ED, misc. LED, open-shell LED, HFLD
   Martin Brehm           : Molecular dynamics
   Dmytro Bykov           : SCF Hessian
   Vijay G. Chilkuri      : MRCI spin determinant printing, contributions to CSF-ICE
   Dipayan Datta          : RHF DLPNO-CCSD density
   Achintya Kumar Dutta   : EOM-CC, STEOM-CC
   Dmitry Ganyushin       : Spin-Orbit,Spin-Spin,Magnetic field MRCI
   Miquel Garcia          : C-PCM and meta-GGA Hessian, CC/C-PCM, Gaussian charge scheme
   Yang Guo               : DLPNO-NEVPT2, F12-NEVPT2, CIM, IAO-localization
   Andreas Hansen         : Spin unrestricted coupled pair/coupled cluster methods
   Benjamin Helmich-Paris : MC-RPA, TRAH-SCF, COSX integrals
   Lee Huntington         : MR-EOM, pCC
   Robert Izsak           : Overlap fitted RIJCOSX, COSX-SCS-MP3, EOM
   Marcus Kettner         : VPT2
   Christian Kollmar      : KDIIS, OOCD, Brueckner-CCSD(T), CCSD density, CASPT2, CASPT2-K
   Simone Kossmann        : Meta GGA functionals, TD-DFT gradient, OOMP2, MP2 Hessian
   Martin Krupicka        : Initial AUTO-CI
   Lucas Lang             : DCDCAS
   Marvin Lechner         : AUTO-CI (C++ implementation), FIC-MRCC
   Dagmar Lenk            : GEPOL surface, SMD
   Dimitrios Liakos       : Extrapolation schemes; Compound Job, initial MDCI parallelization
   Dimitrios Manganas     : Further ROCIS development; embedding schemes
   Dimitrios Pantazis     : SARC Basis sets
   Anastasios Papadopoulos: AUTO-CI, single reference methods and gradients
   Taras Petrenko         : DFT Hessian,TD-DFT gradient, ASA, ECA, R-Raman, ABS, FL, XAS/XES, NRVS
   Peter Pinski           : DLPNO-MP2, DLPNO-MP2 Gradient
   Christoph Reimann      : Effective Core Potentials
   Marius Retegan         : Local ZFS, SOC
   Christoph Riplinger    : Optimizer, TS searches, QM/MM, DLPNO-CCSD(T), (RO)-DLPNO pert. Triples
   Tobias Risthaus        : Range-separated hybrids, TD-DFT gradient, RPA, STAB
   Michael Roemelt        : Original ROCIS implementation
   Masaaki Saitow         : Open-shell DLPNO-CCSD energy and density
   Barbara Sandhoefer     : DKH picture change effects
   Avijit Sen             : IP-ROCIS
   Kantharuban Sivalingam : CASSCF convergence, NEVPT2, FIC-MRCI
   Bernardo de Souza      : ESD, SOC TD-DFT
   Georgi Stoychev        : AutoAux, RI-MP2 NMR, DLPNO-MP2 response
   Willem Van den Heuvel  : Paramagnetic NMR
   Boris Wezisla          : Elementary symmetry handling
   Frank Wennmohs         : Technical directorship


 We gratefully acknowledge several colleagues who have allowed us to
 interface, adapt or use parts of their codes:
   Stefan Grimme, W. Hujo, H. Kruse, P. Pracht,  : VdW corrections, initial TS optimization,
                  C. Bannwarth, S. Ehlert          DFT functionals, gCP, sTDA/sTD-DF
   Ed Valeev, F. Pavosevic, A. Kumar             : LibInt (2-el integral package), F12 methods
   Garnet Chan, S. Sharma, J. Yang, R. Olivares  : DMRG
   Ulf Ekstrom                                   : XCFun DFT Library
   Mihaly Kallay                                 : mrcc  (arbitrary order and MRCC methods)
   Jiri Pittner, Ondrej Demel                    : Mk-CCSD
   Frank Weinhold                                : gennbo (NPA and NBO analysis)
   Christopher J. Cramer and Donald G. Truhlar   : smd solvation model
   Lars Goerigk                                  : TD-DFT with DH, B97 family of functionals
   V. Asgeirsson, H. Jonsson                     : NEB implementation
   FAccTs GmbH                                   : IRC, NEB, NEB-TS, DLPNO-Multilevel, CI-OPT
                                                   MM, QMMM, 2- and 3-layer-ONIOM, Crystal-QMMM,
                                                   LR-CPCM, SF, NACMEs, symmetry and pop. for TD-DFT,
                                                   nearIR, NL-DFT gradient (VV10), updates on ESD,
                                                   ML-optimized integration grids
   S Lehtola, MJT Oliveira, MAL Marques          : LibXC Library
   Liviu Ungur et al                             : ANISO software


 Your calculation uses the libint2 library for the computation of 2-el integrals
 For citations please refer to: http://libint.valeyev.net

 Your ORCA version has been built with support for libXC version: 5.1.0
 For citations please refer to: https://tddft.org/programs/libxc/

 This ORCA versions uses:
   CBLAS   interface :  Fast vector & matrix operations
   LAPACKE interface :  Fast linear algebra routines
   SCALAPACK package :  Parallel linear algebra routines
   Shared memory     :  Shared parallel matrices
   BLAS/LAPACK       :  OpenBLAS 0.3.15  USE64BITINT DYNAMIC_ARCH NO_AFFINITY Sandybridge SINGLE_THREADED
        Core in use  :  Sandybridge
   Copyright (c) 2011-2014, The OpenBLAS Project


================================================================================

----- Orbital basis set information -----
Your calculation utilizes the basis: cc-pVDZ 
       H, B-Ne : Obtained from the ccRepo (grant-hill.group.shef.ac.uk/ccrepo) Feb. 2017
                 T. H. Dunning, Jr., J. Chem. Phys. 90, 1007 (1989)
            He : Obtained from the ccRepo (grant-hill.group.shef.ac.uk/ccrepo) Feb. 2017
                 D. E. Woon, T. H. Dunning, Jr., J. Chem. Phys. 100, 2975 (1994)
  Li-Be, Na-Mg : Obtained from the ccRepo (grant-hill.group.shef.ac.uk/ccrepo) Feb. 2017
                 B. P. Prascher, D. E. Woon, K. A. Peterson, T. H. Dunning, Jr., A. K. Wilson, Theor. Chem. Acc. 128, 69 (2011)
         Al-Ar : Obtained from the ccRepo (grant-hill.group.shef.ac.uk/ccrepo) Feb. 2017
                 D. E. Woon, T. H. Dunning, Jr., J. Chem. Phys. 98, 1358 (1993)
            Ca : Obtained from the Peterson Research Group Website (tyr0.chem.wsu.edu/~kipeters) Feb. 2017
                 J. Koput, K. A. Peterson, J. Phys. Chem. 106, 9595 (2002)
         Sc-Zn : Obtained from the ccRepo (grant-hill.group.shef.ac.uk/ccrepo) Feb. 2017
                 N. B. Balabanov, K. A. Peterson, J. Chem. Phys. 123, 064107 (2005)
                 N. B. Balabanov, K. A. Peterson, J. Chem. Phys. 125, 074110 (2006)
         Ga-Kr : Obtained from the ccRepo (grant-hill.group.shef.ac.uk/ccrepo) Feb. 2017
                 A. K. Wilson, D. E. Woon, K. A. Peterson, T. H. Dunning, Jr., J. Chem. Phys. 110, 7667 (1999)

================================================================================
                                        WARNINGS
                       Please study these warnings very carefully!
================================================================================


WARNING: No MP2 level density has been requested!
         To caclulate MP2 level properties use
         %mp2 Density relaxed end
         or
         %mp2 Density unrelaxed end

WARNING: Post HF methods need fully converged wavefunctions
  ===> : Setting SCFConvForced true
         You can overwrite this default with %scf ConvForced false 


INFO   : the flag for use of the SHARK integral package has been found!

================================================================================
                                       INPUT FILE
================================================================================
NAME = /scratch/allen/tmpyp4_amber_gaff2/2.Mdgx/conf11/conf11/Conf38.orca
|  1> ! PAL2
|  2> ! mp2 cc-pvdz TightSCF  NoKeepInts
|  3> 
|  4> %scf
|  5>   MaxCore 2000
|  6> end
|  7> %mp2
|  8>   MaxCore 2000
|  9> end
| 10> * xyz 0 1
| 11>    C       -3.21600         6.38400        -0.58700
| 12>    C        1.47400         4.04100         0.05700
| 13>    C       -2.80200         4.09300         0.04900
| 14>    C       -4.00600         4.12900         0.76900
| 15>    C       -4.77000         5.27900         0.78500
| 16>    C       -5.23100         7.59000         0.12300
| 17>    C        0.13200         4.30700         0.06100
| 18>    C       -0.56900         3.05600         0.04700
| 19>    C        1.64900         2.61800         0.02300
| 20>    C       -2.42000         5.25600        -0.63800
| 21>    N       -4.37100         6.38600         0.11700
| 22>    N        0.38800         2.06700         0.02500
| 23>    N       -2.01000         0.39500        -0.07500
| 24>    N       -0.38800        -2.07400        -0.02700
| 25>    N        2.01000        -0.40100         0.06500
| 26>    C       -1.96000         2.86100         0.02400
| 27>    C       -2.62300         1.61500        -0.01800
| 28>    C       -5.57300        -4.32900         1.06600
| 29>    C       -4.07300         1.47100         0.05600
| 30>    C       -4.10600        -2.75600        -0.02600
| 31>    C       -4.99500        -2.75700        -1.11100
| 32>    C       -6.13200        -3.54200        -1.07600
| 33>    C       -7.65100        -5.11300         0.04000
| 34>    C       -4.32400         0.14100         0.03700
| 35>    C       -3.02500        -0.52000        -0.04800
| 36>    C       -4.42200        -3.56600         1.07500
| 37>    N       -6.40700        -4.31300         0.00100
| 38>    C       -2.86700        -1.92200        -0.04000
| 39>    C       -1.65000        -2.62400        -0.02700
| 40>    C        3.56800        -6.14200        -1.04000
| 41>    C       -1.47600        -4.04900        -0.03400
| 42>    C        2.80300        -4.09900        -0.00800
| 43>    C        3.65700        -4.38400         1.06900
| 44>    C        4.42700        -5.53000         1.05900
| 45>    C        5.24500        -7.58800         0.01400
| 46>    C       -0.13400        -4.31500        -0.02200
| 47>    C        0.56800        -3.06400        -0.02700
| 48>    C        2.77500        -5.01200        -1.07400
| 49>    N        4.37600        -6.39100         0.01700
| 50>    C        1.95900        -2.86900        -0.00900
| 51>    C        2.62100        -1.62200         0.00900
| 52>    C        5.54300         4.33900        -1.13000
| 53>    C        4.07000        -1.47900        -0.09400
| 54>    C        4.10400         2.75100        -0.02100
| 55>    C        5.02700         2.72900         1.03600
| 56>    C        6.16600         3.50900         0.97800
| 57>    C        7.61900         5.15300        -0.11500
| 58>    C        4.32100        -0.14800        -0.09200
| 59>    C        3.02500         0.51400         0.01500
| 60>    C        4.38700         3.58200        -1.11500
| 61>    C        2.86600         1.91600         0.01300
| 62>    N        6.41300         4.29600        -0.09500
| 63>    H       -2.95500         7.30700        -1.09000
| 64>    H        2.27400         4.76600         0.08100
| 65>    H       -4.35900         3.26000         1.31100
| 66>    H       -5.71000         5.35100         1.31800
| 67>    H       -5.97100         7.50200        -0.67500
| 68>    H       -5.72900         7.66000         1.09000
| 69>    H       -4.60600         8.46700        -0.04000
| 70>    H       -0.33200         5.28200         0.06900
| 71>    H       -1.49400         5.29600        -1.20000
| 72>    H        0.18200         1.07200         0.00500
| 73>    H       -0.18300        -1.08000        -0.02100
| 74>    H       -5.86400        -4.96200         1.89500
| 75>    H       -4.79400         2.27200         0.13900
| 76>    H       -4.80000        -2.16000        -1.99400
| 77>    H       -6.84100        -3.58200        -1.89300
| 78>    H       -8.42800        -4.53600         0.54600
| 79>    H       -7.95600        -5.33700        -0.98100
| 80>    H       -7.45600        -6.03700         0.58400
| 81>    H       -5.28700        -0.34400         0.10000
| 82>    H       -3.78000        -3.60100         1.94700
| 83>    H        3.58700        -6.86800        -1.84300
| 84>    H       -2.27600        -4.77400        -0.05000
| 85>    H        3.71400        -3.72400         1.92600
| 86>    H        5.09200        -5.79500         1.87100
| 87>    H        6.20500        -7.32900        -0.43900
| 88>    H        5.39300        -7.91700         1.04200
| 89>    H        4.75900        -8.37300        -0.56400
| 90>    H        0.32900        -5.29000        -0.00800
| 91>    H        2.14600        -4.84200        -1.94000
| 92>    H        5.80800         4.98600        -1.95600
| 93>    H        4.78800        -2.28100        -0.18500
| 94>    H        4.86000         2.11400         1.91200
| 95>    H        6.90100         3.53100         1.77200
| 96>    H        7.38300         6.10900         0.35600
| 97>    H        8.41400         4.65200         0.43500
| 98>    H        7.92100         5.31000        -1.15000
| 99>    H        5.28300         0.33600        -0.17900
|100>    H        3.72000         3.63200        -1.96700
|101> *
|102> 
|103>                          ****END OF INPUT****
================================================================================

                       ****************************
                       * Single Point Calculation *
                       ****************************

---------------------------------
CARTESIAN COORDINATES (ANGSTROEM)
---------------------------------
  C     -3.216000    6.384000   -0.587000
  C      1.474000    4.041000    0.057000
  C     -2.802000    4.093000    0.049000
  C     -4.006000    4.129000    0.769000
  C     -4.770000    5.279000    0.785000
  C     -5.231000    7.590000    0.123000
  C      0.132000    4.307000    0.061000
  C     -0.569000    3.056000    0.047000
  C      1.649000    2.618000    0.023000
  C     -2.420000    5.256000   -0.638000
  N     -4.371000    6.386000    0.117000
  N      0.388000    2.067000    0.025000
  N     -2.010000    0.395000   -0.075000
  N     -0.388000   -2.074000   -0.027000
  N      2.010000   -0.401000    0.065000
  C     -1.960000    2.861000    0.024000
  C     -2.623000    1.615000   -0.018000
  C     -5.573000   -4.329000    1.066000
  C     -4.073000    1.471000    0.056000
  C     -4.106000   -2.756000   -0.026000
  C     -4.995000   -2.757000   -1.111000
  C     -6.132000   -3.542000   -1.076000
  C     -7.651000   -5.113000    0.040000
  C     -4.324000    0.141000    0.037000
  C     -3.025000   -0.520000   -0.048000
  C     -4.422000   -3.566000    1.075000
  N     -6.407000   -4.313000    0.001000
  C     -2.867000   -1.922000   -0.040000
  C     -1.650000   -2.624000   -0.027000
  C      3.568000   -6.142000   -1.040000
  C     -1.476000   -4.049000   -0.034000
  C      2.803000   -4.099000   -0.008000
  C      3.657000   -4.384000    1.069000
  C      4.427000   -5.530000    1.059000
  C      5.245000   -7.588000    0.014000
  C     -0.134000   -4.315000   -0.022000
  C      0.568000   -3.064000   -0.027000
  C      2.775000   -5.012000   -1.074000
  N      4.376000   -6.391000    0.017000
  C      1.959000   -2.869000   -0.009000
  C      2.621000   -1.622000    0.009000
  C      5.543000    4.339000   -1.130000
  C      4.070000   -1.479000   -0.094000
  C      4.104000    2.751000   -0.021000
  C      5.027000    2.729000    1.036000
  C      6.166000    3.509000    0.978000
  C      7.619000    5.153000   -0.115000
  C      4.321000   -0.148000   -0.092000
  C      3.025000    0.514000    0.015000
  C      4.387000    3.582000   -1.115000
  C      2.866000    1.916000    0.013000
  N      6.413000    4.296000   -0.095000
  H     -2.955000    7.307000   -1.090000
  H      2.274000    4.766000    0.081000
  H     -4.359000    3.260000    1.311000
  H     -5.710000    5.351000    1.318000
  H     -5.971000    7.502000   -0.675000
  H     -5.729000    7.660000    1.090000
  H     -4.606000    8.467000   -0.040000
  H     -0.332000    5.282000    0.069000
  H     -1.494000    5.296000   -1.200000
  H      0.182000    1.072000    0.005000
  H     -0.183000   -1.080000   -0.021000
  H     -5.864000   -4.962000    1.895000
  H     -4.794000    2.272000    0.139000
  H     -4.800000   -2.160000   -1.994000
  H     -6.841000   -3.582000   -1.893000
  H     -8.428000   -4.536000    0.546000
  H     -7.956000   -5.337000   -0.981000
  H     -7.456000   -6.037000    0.584000
  H     -5.287000   -0.344000    0.100000
  H     -3.780000   -3.601000    1.947000
  H      3.587000   -6.868000   -1.843000
  H     -2.276000   -4.774000   -0.050000
  H      3.714000   -3.724000    1.926000
  H      5.092000   -5.795000    1.871000
  H      6.205000   -7.329000   -0.439000
  H      5.393000   -7.917000    1.042000
  H      4.759000   -8.373000   -0.564000
  H      0.329000   -5.290000   -0.008000
  H      2.146000   -4.842000   -1.940000
  H      5.808000    4.986000   -1.956000
  H      4.788000   -2.281000   -0.185000
  H      4.860000    2.114000    1.912000
  H      6.901000    3.531000    1.772000
  H      7.383000    6.109000    0.356000
  H      8.414000    4.652000    0.435000
  H      7.921000    5.310000   -1.150000
  H      5.283000    0.336000   -0.179000
  H      3.720000    3.632000   -1.967000

----------------------------
CARTESIAN COORDINATES (A.U.)
----------------------------
  NO LB      ZA    FRAG     MASS         X           Y           Z
   0 C     6.0000    0    12.011   -6.077359   12.064012   -1.109269
   1 C     6.0000    0    12.011    2.785456    7.636383    0.107714
   2 C     6.0000    0    12.011   -5.295013    7.734649    0.092597
   3 C     6.0000    0    12.011   -7.570243    7.802679    1.453199
   4 C     6.0000    0    12.011   -9.013994    9.975864    1.483435
   5 C     6.0000    0    12.011   -9.885157   14.343021    0.232436
   6 C     6.0000    0    12.011    0.249444    8.139050    0.115273
   7 C     6.0000    0    12.011   -1.075254    5.775003    0.088817
   8 C     6.0000    0    12.011    3.116158    4.947303    0.043464
   9 C     6.0000    0    12.011   -4.573137    9.932401   -1.205645
  10 N     7.0000    0    14.007   -8.259993   12.067791    0.221098
  11 N     7.0000    0    14.007    0.733214    3.906064    0.047243
  12 N     7.0000    0    14.007   -3.798350    0.746442   -0.141729
  13 N     7.0000    0    14.007   -0.733214   -3.919292   -0.051023
  14 N     7.0000    0    14.007    3.798350   -0.757780    0.122832
  15 C     6.0000    0    12.011   -3.703863    5.406506    0.045353
  16 C     6.0000    0    12.011   -4.956752    3.051908   -0.034015
  17 C     6.0000    0    12.011  -10.531444   -8.180624    2.014448
  18 C     6.0000    0    12.011   -7.696855    2.779787    0.105825
  19 C     6.0000    0    12.011   -7.759216   -5.208085   -0.049133
  20 C     6.0000    0    12.011   -9.439182   -5.209975   -2.099486
  21 C     6.0000    0    12.011  -11.587801   -6.693410   -2.033345
  22 C     6.0000    0    12.011  -14.458295   -9.662170    0.075589
  23 C     6.0000    0    12.011   -8.171176    0.266451    0.069920
  24 C     6.0000    0    12.011   -5.716422   -0.982658   -0.090707
  25 C     6.0000    0    12.011   -8.356369   -6.738763    2.031456
  26 N     7.0000    0    14.007  -12.107475   -8.150389    0.001890
  27 C     6.0000    0    12.011   -5.417845   -3.632054   -0.075589
  28 C     6.0000    0    12.011   -3.118048   -4.958641   -0.051023
  29 C     6.0000    0    12.011    6.742543  -11.606698   -1.965315
  30 C     6.0000    0    12.011   -2.789236   -7.651501   -0.064251
  31 C     6.0000    0    12.011    5.296902   -7.745987   -0.015118
  32 C     6.0000    0    12.011    6.910728   -8.284559    2.020117
  33 C     6.0000    0    12.011    8.365818  -10.450186    2.001220
  34 C     6.0000    0    12.011    9.911614  -14.339242    0.026456
  35 C     6.0000    0    12.011   -0.253223   -8.154168   -0.041574
  36 C     6.0000    0    12.011    1.073364   -5.790121   -0.051023
  37 C     6.0000    0    12.011    5.243990   -9.471307   -2.029566
  38 N     7.0000    0    14.007    8.269442  -12.077240    0.032125
  39 C     6.0000    0    12.011    3.701973   -5.421624   -0.017008
  40 C     6.0000    0    12.011    4.952972   -3.065136    0.017008
  41 C     6.0000    0    12.011   10.474752    8.199522   -2.135391
  42 C     6.0000    0    12.011    7.691185   -2.794905   -0.177634
  43 C     6.0000    0    12.011    7.755436    5.198637   -0.039684
  44 C     6.0000    0    12.011    9.499653    5.157063    1.957756
  45 C     6.0000    0    12.011   11.652051    6.631049    1.848152
  46 C     6.0000    0    12.011   14.397823    9.737759   -0.217319
  47 C     6.0000    0    12.011    8.165507   -0.279679   -0.173855
  48 C     6.0000    0    12.011    5.716422    0.971319    0.028346
  49 C     6.0000    0    12.011    8.290229    6.768999   -2.107045
  50 C     6.0000    0    12.011    5.415955    3.620715    0.024566
  51 N     7.0000    0    14.007   12.118814    8.118263   -0.179524
  52 H     1.0000    0     1.008   -5.584141   13.808229   -2.059801
  53 H     1.0000    0     1.008    4.297237    9.006435    0.153068
  54 H     1.0000    0     1.008   -8.237316    6.160507    2.477431
  55 H     1.0000    0     1.008  -10.790336   10.111925    2.490659
  56 H     1.0000    0     1.008  -11.283555   14.176725   -1.275565
  57 H     1.0000    0     1.008  -10.826241   14.475302    2.059801
  58 H     1.0000    0     1.008   -8.704079   16.000311   -0.075589
  59 H     1.0000    0     1.008   -0.627389    9.981533    0.130391
  60 H     1.0000    0     1.008   -2.823251   10.007990   -2.267671
  61 H     1.0000    0     1.008    0.343930    2.025786    0.009449
  62 H     1.0000    0     1.008   -0.345820   -2.040904   -0.039684
  63 H     1.0000    0     1.008  -11.081354   -9.376821    3.581031
  64 H     1.0000    0     1.008   -9.059347    4.293458    0.262672
  65 H     1.0000    0     1.008   -9.070685   -4.081808   -3.768114
  66 H     1.0000    0     1.008  -12.927616   -6.768999   -3.577252
  67 H     1.0000    0     1.008  -15.926612   -8.571798    1.031790
  68 H     1.0000    0     1.008  -15.034661  -10.085468   -1.853821
  69 H     1.0000    0     1.008  -14.089798  -11.408277    1.103600
  70 H     1.0000    0     1.008   -9.990982   -0.650066    0.188973
  71 H     1.0000    0     1.008   -7.143165   -6.804904    3.679297
  72 H     1.0000    0     1.008    6.778448  -12.978639   -3.482765
  73 H     1.0000    0     1.008   -4.301017   -9.021553   -0.094486
  74 H     1.0000    0     1.008    7.018443   -7.037340    3.639613
  75 H     1.0000    0     1.008    9.622485  -10.950963    3.535678
  76 H     1.0000    0     1.008   11.725751  -13.849803   -0.829590
  77 H     1.0000    0     1.008   10.191293  -14.960962    1.969095
  78 H     1.0000    0     1.008    8.993207  -15.822677   -1.065806
  79 H     1.0000    0     1.008    0.621720   -9.996651   -0.015118
  80 H     1.0000    0     1.008    4.055352   -9.150054   -3.666069
  81 H     1.0000    0     1.008   10.975529    9.422175   -3.696304
  82 H     1.0000    0     1.008    9.048009   -4.310465   -0.349599
  83 H     1.0000    0     1.008    9.184069    3.994881    3.613156
  84 H     1.0000    0     1.008   13.041000    6.672623    3.348595
  85 H     1.0000    0     1.008   13.951848   11.544337    0.672743
  86 H     1.0000    0     1.008   15.900156    8.791006    0.822031
  87 H     1.0000    0     1.008   14.968521   10.034446   -2.173185
  88 H     1.0000    0     1.008    9.983423    0.634948   -0.338261
  89 H     1.0000    0     1.008    7.029781    6.863485   -3.717091

--------------------------------
INTERNAL COORDINATES (ANGSTROEM)
--------------------------------
 C      0   0   0     0.000000000000     0.00000000     0.00000000
 C      1   0   0     5.282090968546     0.00000000     0.00000000
 C      1   2   0     2.413415215001    52.73394756     0.00000000
 C      3   1   2     1.403321773507    87.91850038   149.98091280
 C      4   3   1     1.380743278093   120.13538858     0.14790217
 C      5   4   3     2.447751212848   152.55207956     1.61009718
 C      2   1   3     1.368114030335    16.89383528   349.40187377
 C      7   2   1     1.434084376876   108.05010202   153.94154079
 C      2   1   3     1.434123425651   123.06504360    20.12324774
 C      1   2   3     1.381521262956    29.62675118   329.17203735
 N      1   2   3     1.352643707707   134.05659032    44.15506287
 N      9   2   1     1.376127174356   106.58526707   350.24569215
 N     12   9   2     2.925062050624   168.53581413   171.12065651
 N     13  12   9     2.954513327098    91.55032014    11.12112580
 N     14  13  12     2.925371258490    88.43092389   359.84326247
 C      8   7   2     1.404790019896   127.24786865   181.11170171
 C     13  12   9     1.366535034311    81.72106996   188.00453233
 C     14  13  12     5.758810554272    80.56209567   166.76250791
 C     17  13  12     1.459010623676   111.08861209   183.82872609
 C     18  14  13     2.412235892279    27.27532823    36.33507194
 C     20  18  14     1.402692767501    87.95206320   148.94598259
 C     21  20  18     1.382106725257   120.14573887   359.70382047
 C     18  14  13     2.446510985056   144.15733107    82.80075377
 C     19  17  13     1.353610726908   106.29293361   359.75308708
 C     13  12   9     1.366813447402   172.21332906    33.46711076
 C     18  14  13     1.380960173213    15.08449437   309.23336894
 N     22  21  20     1.352773077792   120.73759875     0.27865223
 C     25  13  17     1.410897586645   125.60330303   182.37774668
 C     14  13  12     1.376642291955    80.24689249   177.85461986
 C     14  13  12     5.764089607215   164.51507311   312.20821879
 C     29  14  13     1.435600919476   106.58649366   178.76395472
 C     30  14  13     2.413316804732    27.10625047    82.12560436
 C     32  30  14     1.403734305344    87.90059683   149.76154742
 C     33  32  30     1.380694028378   120.14881443   359.74174632
 C     34  33  32     2.448777858443   152.49203239     2.45173620
 C     31  29  14     1.368160809262   108.16950133     0.70383075
 C     14  13  12     1.376239804685   169.26375223   353.09862627
 C     30  14  13     1.380907310430    14.68948582   353.70041132
 N     34  33  32     1.352658863128   120.85575621     0.19603406
 C     37  14  29     1.404717053360   126.01551127   180.90772073
 C     15  14  13     1.366491126938    81.61824056   183.09049352
 C      2   1   3     4.249062720177   141.73089242   156.29603071
 C     41  15  14     1.459677704153   111.05201287   175.08990246
 C     42   2   1     2.412953791518    41.78584867   191.88954227
 C     44  42   2     1.403446472082    87.95153797   233.97558675
 C     45  44  42     1.381696421071   120.11137308     0.19721020
 C     42   2   1     2.450019795838   135.97209175   102.20439137
 C     43  41  15     1.354461516618   106.26758155     0.30894352
 C     15  14  13     1.367461151185   171.87382904   332.35056460
 C     42   2   1     1.381886391857    32.59078432   240.74482146
 C      9   2   1     1.404988612053   126.98745415   171.25002968
 N     42   2   1     1.352765315936   113.57249190   129.94098056
 H      1   2   3     1.083078482844   102.74834511   192.97235308
 H      2   1   3     1.079907866440   111.26478980   192.53346751
 H      4   3   1     1.083297743005   121.04394596   179.49165491
 H      5   4   3     1.082992613087   122.77506349   179.39065945
 H      6   5   4     1.091855301769   104.43103046   100.09644105
 H      6   5   4     1.089950916326    84.64892795   209.52255624
 H      6   5   4     1.089184557364   133.83686582   322.35259216
 H      7   2   1     1.079807853278   126.66122480   334.17995457
 H     10   1   2     1.083937267557   118.76596483   306.97331747
 H     12   9   2     1.016297692608   125.29023241   180.00180175
 H     14  13  12     1.014936943854    44.97226959   359.42596618
 H     18  14  13     1.082871645210   128.03556573   234.20482432
 H     19  17  13     1.080893611786   126.41830519   178.11313280
 H     21  20  18     1.083569563987   121.05669627   180.67006309
 H     22  21  20     1.082483256222   122.73097286   180.59748951
 H     23  18  14     1.092105306278   103.92715769   234.93429879
 H     23  18  14     1.088871893291   134.19244188    12.25587044
 H     23  18  14     1.089833473518    84.85857450   125.45241208
 H     24  19  17     1.080075460327   127.28078426   178.44613241
 H     26  18  14     1.083408048706   118.76995697   244.94906660
 H     30  14  13     1.082703098730   127.99711412   279.66882698
 H     31  29  14     1.079759695488   125.22293469   180.92530585
 H     33  32  30     1.083188810873   121.01964473   180.74284758
 H     34  33  32     1.082494341787   122.70821597   180.59516895
 H     35  34  33     1.092652735319   105.73575241    97.19771933
 H     35  34  33     1.089462711615    84.05943581   206.43036958
 H     35  34  33     1.089268102902   133.08365142   318.50306270
 H     36  31  29     1.079439669458   126.61599965   178.98859863
 H     38  30  73     1.083742127999   118.77264435   359.90091293
 H     42   2   1     1.082178358682   119.31790784   346.57251102
 H     43  41  15     1.080281907652   126.36969097   182.06329380
 H     45  44  42     1.083277434455   121.10105945   179.58025624
 H     46  45  44     1.082194529648   122.72144639   179.46906377
 H     47  42   2     1.091546151109   106.65128841   315.16475048
 H     47  42   2     1.088818625851   132.46019523    94.52397119
 H     47  42   2     1.089531091801    83.63838232   206.04504406
 H     48  43  41     1.080402239909   127.23657387   181.62955349
 H     50  42   2     1.083186502870   118.77001737    94.71359229

---------------------------
INTERNAL COORDINATES (A.U.)
---------------------------
 C      0   0   0     0.000000000000     0.00000000     0.00000000
 C      1   0   0     9.981705345012     0.00000000     0.00000000
 C      1   2   0     4.560693803791    52.73394756     0.00000000
 C      3   1   2     2.651893829698    87.91850038   149.98091280
 C      4   3   1     2.609226656849   120.13538858     0.14790217
 C      5   4   3     4.625579436257   152.55207956     1.61009718
 C      2   1   3     2.585360837309    16.89383528   349.40187377
 C      7   2   1     2.710026725231   108.05010202   153.94154079
 C      2   1   3     2.710100516721   123.06504360    20.12324774
 C      1   2   3     2.610696835176    29.62675118   329.17203735
 N      1   2   3     2.556126164339   134.05659032    44.15506287
 N      9   2   1     2.600503484979   106.58526707   350.24569215
 N     12   9   2     5.527566200405   168.53581413   171.12065651
 N     13  12   9     5.583221047236    91.55032014    11.12112580
 N     14  13  12     5.528150518591    88.43092389   359.84326247
 C      8   7   2     2.654668413270   127.24786865   181.11170171
 C     13  12   9     2.582376967257    81.72106996   188.00453233
 C     14  13  12    10.882574804710    80.56209567   166.76250791
 C     17  13  12     2.757130505230   111.08861209   183.82872609
 C     18  14  13     4.558465206823    27.27532823    36.33507194
 C     20  18  14     2.650705180609    87.95206320   148.94598259
 C     21  20  18     2.611803198586   120.14573887   359.70382047
 C     18  14  13     4.623235745386   144.15733107    82.80075377
 C     19  17  13     2.557953565794   106.29293361   359.75308708
 C     13  12   9     2.582903091751   172.21332906    33.46711076
 C     18  14  13     2.609636529225    15.08449437   309.23336894
 N     22  21  20     2.556370638369   120.73759875     0.27865223
 C     25  13  17     2.666210041769   125.60330303   182.37774668
 C     14  13  12     2.601476916169    80.24689249   177.85461986
 C     14  13  12    10.892550769017   164.51507311   312.20821879
 C     29  14  13     2.712892575415   106.58649366   178.76395472
 C     30  14  13     4.560507835333    27.10625047    82.12560436
 C     32  30  14     2.652673401891    87.90059683   149.76154742
 C     33  32  30     2.609133588376   120.14881443   359.74174632
 C     34  33  32     4.627519515267   152.49203239     2.45173620
 C     31  29  14     2.585449236669   108.16950133     0.70383075
 C     14  13  12     2.600716325456   169.26375223   353.09862627
 C     30  14  13     2.609536633043    14.68948582   353.70041132
 N     34  33  32     2.556154803934   120.85575621     0.19603406
 C     37  14  29     2.654530526499   126.01551127   180.90772073
 C     15  14  13     2.582293994346    81.61824056   183.09049352
 C      2   1   3     8.029564866989   141.73089242   156.29603071
 C     41  15  14     2.758391104639   111.05201287   175.08990246
 C     42   2   1     4.559821839776    41.78584867   191.88954227
 C     44  42   2     2.652129475853    87.95153797   233.97558675
 C     45  44  42     2.611027836043   120.11137308     0.19721020
 C     42   2   1     4.629866436820   135.97209175   102.20439137
 C     43  41  15     2.559561325344   106.26758155     0.30894352
 C     15  14  13     2.584127074516   171.87382904   332.35056460
 C     42   2   1     2.611386828803    32.59078432   240.74482146
 C      9   2   1     2.655043698059   126.98745415   171.25002968
 N     42   2   1     2.556355970587   113.57249190   129.94098056
 H      1   2   3     2.046721714118   102.74834511   192.97235308
 H      2   1   3     2.040730117440   111.26478980   192.53346751
 H      4   3   1     2.047136055775   121.04394596   179.49165491
 H      5   4   3     2.046559443793   122.77506349   179.39065945
 H      6   5   4     2.063307498212   104.43103046   100.09644105
 H      6   5   4     2.059708731273    84.64892795   209.52255624
 H      6   5   4     2.058260522714   133.83686582   322.35259216
 H      7   2   1     2.040541119952   126.66122480   334.17995457
 H     10   1   2     2.048344582035   118.76596483   306.97331747
 H     12   9   2     1.920524309565   125.29023241   180.00180175
 H     14  13  12     1.917952867083    44.97226959   359.42596618
 H     18  14  13     2.046330847636   128.03556573   234.20482432
 H     19  17  13     2.042592906181   126.41830519   178.11313280
 H     21  20  18     2.047649722989   121.05669627   180.67006309
 H     22  21  20     2.045596898814   122.73097286   180.59748951
 H     23  18  14     2.063779938267   103.92715769   234.93429879
 H     23  18  14     2.057669673245   134.19244188    12.25587044
 H     23  18  14     2.059486796529    84.85857450   125.45241208
 H     24  19  17     2.041046823986   127.28078426   178.44613241
 H     26  18  14     2.047344503340   118.76995697   244.94906660
 H     30  14  13     2.046012340948   127.99711412   279.66882698
 H     31  29  14     2.040450114918   125.22293469   180.92530585
 H     33  32  30     2.046930203877   121.01964473   180.74284758
 H     34  33  32     2.045617847496   122.70821597   180.59516895
 H     35  34  33     2.064814429233   105.73575241    97.19771933
 H     35  34  33     2.058786158072    84.05943581   206.43036958
 H     35  34  33     2.058418400901   133.08365142   318.50306270
 H     36  31  29     2.039845353366   126.61599965   178.98859863
 H     38  30  73     2.047975821711   118.77264435   359.90091293
 H     42   2   1     2.045020725966   119.31790784   346.57251102
 H     43  41  15     2.041436952892   126.36969097   182.06329380
 H     45  44  42     2.047097678177   121.10105945   179.58025624
 H     46  45  44     2.045051284662   122.72144639   179.46906377
 H     47  42   2     2.062723288131   106.65128841   315.16475048
 H     47  42   2     2.057569012371   132.46019523    94.52397119
 H     47  42   2     2.058915377895    83.63838232   206.04504406
 H     48  43  41     2.041664347903   127.23657387   181.62955349
 H     50  42   2     2.046925842384   118.77001737    94.71359229

---------------------
BASIS SET INFORMATION
---------------------
There are 3 groups of distinct atoms

 Group   1 Type C   : 17s4p1d contracted to 3s2p1d pattern {881/31/1}
 Group   2 Type N   : 17s4p1d contracted to 3s2p1d pattern {881/31/1}
 Group   3 Type H   : 4s1p contracted to 2s1p pattern {31/1}

Atom   0C    basis set group =>   1
Atom   1N    basis set group =>   2
Atom   2C    basis set group =>   1
Atom   3N    basis set group =>   2
Atom   4C    basis set group =>   1
Atom   5N    basis set group =>   2
Atom   6C    basis set group =>   1
Atom   7N    basis set group =>   2
Atom   8C    basis set group =>   1
Atom   9N    basis set group =>   2
Atom  10C    basis set group =>   1
Atom  11N    basis set group =>   2
Atom  12C    basis set group =>   1
Atom  13N    basis set group =>   2
Atom  14C    basis set group =>   1
Atom  15N    basis set group =>   2
Atom  16C    basis set group =>   1
Atom  17C    basis set group =>   1
Atom  18C    basis set group =>   1
Atom  19C    basis set group =>   1
Atom  20C    basis set group =>   1
Atom  21C    basis set group =>   1
Atom  22C    basis set group =>   1
Atom  23C    basis set group =>   1
Atom  24C    basis set group =>   1
Atom  25C    basis set group =>   1
Atom  26C    basis set group =>   1
Atom  27C    basis set group =>   1
Atom  28C    basis set group =>   1
Atom  29C    basis set group =>   1
Atom  30C    basis set group =>   1
Atom  31C    basis set group =>   1
Atom  32C    basis set group =>   1
Atom  33C    basis set group =>   1
Atom  34C    basis set group =>   1
Atom  35C    basis set group =>   1
Atom  36C    basis set group =>   1
Atom  37C    basis set group =>   1
Atom  38C    basis set group =>   1
Atom  39C    basis set group =>   1
Atom  40C    basis set group =>   1
Atom  41C    basis set group =>   1
Atom  42C    basis set group =>   1
Atom  43C    basis set group =>   1
Atom  44C    basis set group =>   1
Atom  45C    basis set group =>   1
Atom  46C    basis set group =>   1
Atom  47C    basis set group =>   1
Atom  48C    basis set group =>   1
Atom  49C    basis set group =>   1
Atom  50C    basis set group =>   1
Atom  51C    basis set group =>   1
Atom  52H    basis set group =>   3
Atom  53H    basis set group =>   3
Atom  54H    basis set group =>   3
Atom  55H    basis set group =>   3
Atom  56H    basis set group =>   3
Atom  57H    basis set group =>   3
Atom  58H    basis set group =>   3
Atom  59H    basis set group =>   3
Atom  60H    basis set group =>   3
Atom  61H    basis set group =>   3
Atom  62H    basis set group =>   3
Atom  63H    basis set group =>   3
Atom  64H    basis set group =>   3
Atom  65H    basis set group =>   3
Atom  66H    basis set group =>   3
Atom  67H    basis set group =>   3
Atom  68H    basis set group =>   3
Atom  69H    basis set group =>   3
Atom  70H    basis set group =>   3
Atom  71H    basis set group =>   3
Atom  72H    basis set group =>   3
Atom  73H    basis set group =>   3
Atom  74H    basis set group =>   3
Atom  75H    basis set group =>   3
Atom  76H    basis set group =>   3
Atom  77H    basis set group =>   3
Atom  78H    basis set group =>   3
Atom  79H    basis set group =>   3
Atom  80H    basis set group =>   3
Atom  81H    basis set group =>   3
Atom  82H    basis set group =>   3
Atom  83H    basis set group =>   3
Atom  84H    basis set group =>   3
Atom  85H    basis set group =>   3
Atom  86H    basis set group =>   3
Atom  87H    basis set group =>   3
Atom  88H    basis set group =>   3
Atom  89H    basis set group =>   3


           ************************************************************
           *        Program running with 16 parallel MPI-processes    *
           *              working on a common directory               *
           ************************************************************
------------------------------------------------------------------------------
                           ORCA GTO INTEGRAL CALCULATION
------------------------------------------------------------------------------
------------------------------------------------------------------------------
                   ___                                                        
                  /   \      - P O W E R E D   B Y -                         
                 /     \                                                     
                 |  |  |   _    _      __       _____    __    __             
                 |  |  |  | |  | |    /  \     |  _  \  |  |  /  |          
                  \  \/   | |  | |   /    \    | | | |  |  | /  /          
                 / \  \   | |__| |  /  /\  \   | |_| |  |  |/  /          
                |  |  |   |  __  | /  /__\  \  |    /   |      \           
                |  |  |   | |  | | |   __   |  |    \   |  |\   \          
                \     /   | |  | | |  |  |  |  | |\  \  |  | \   \       
                 \___/    |_|  |_| |__|  |__|  |_| \__\ |__|  \__/        
                                                                              
                      - O R C A' S   B I G   F R I E N D -                    
                                      &                                       
                       - I N T E G R A L  F E E D E R -                       
                                                                              
 v1 FN, 2020, v2 2021                                                         
------------------------------------------------------------------------------


Reading SHARK input file /scratch/allen/tmpyp4_amber_gaff2/conf1/conf1/Conf38.orca.SHARKINP.tmp ... ok
----------------------
SHARK INTEGRAL PACKAGE
----------------------

Number of atoms                             ...     90
Number of basis functions                   ...   1230
Number of shells                            ...    738
Maximum angular momentum                    ...      2
Integral batch strategy                     ... SHARK/LIBINT Hybrid
RI-J (if used) integral strategy            ... SPLIT-RIJ (Revised 2003 algorithm where possible)
Printlevel                                  ...      1
Contraction scheme used                     ... PARTIAL GENERAL contraction
Coulomb Range Separation                    ... NOT USED
Exchange Range Separation                   ... NOT USED
Finite Nucleus Model                        ... NOT USED
Auxiliary Coulomb fitting basis             ... NOT available
Auxiliary J/K fitting basis                 ... NOT available
Auxiliary Correlation fitting basis         ... NOT available
Auxiliary 'external' fitting basis          ... NOT available
Integral threshold                          ...     2.500000e-11
Primitive cut-off                           ...     2.500000e-12
Primitive pair pre-selection threshold      ...     2.500000e-12

Calculating pre-screening integrals         ... done (  0.1 sec) Dimension = 738
Calculating pre-screening integrals (ORCA)  ... done (  0.3 sec) Dimension = 426
Organizing shell pair data                  ... done (  0.8 sec)
Shell pair information
Total number of shell pairs                 ...    272691
Shell pairs after pre-screening             ...     71639
Total number of primitive shell pairs       ...    422091
Primitive shell pairs kept                  ...     92463
          la=0 lb=0:  29418 shell pairs
          la=1 lb=0:  25987 shell pairs
          la=1 lb=1:   4704 shell pairs
          la=2 lb=0:   7878 shell pairs
          la=2 lb=1:   3122 shell pairs
          la=2 lb=2:    530 shell pairs

Calculating one electron integrals          ... done (  0.3 sec)
Calculating Nuclear repulsion               ... done (  0.0 sec) ENN=   6230.085053166819 Eh

SHARK setup successfully completed in   2.2 seconds

Maximum memory used throughout the entire GTOINT-calculation: 99.0 MB


           ************************************************************
           *        Program running with 16 parallel MPI-processes    *
           *              working on a common directory               *
           ************************************************************
-------------------------------------------------------------------------------
                                 ORCA SCF
-------------------------------------------------------------------------------

------------
SCF SETTINGS
------------
Hamiltonian:
 Ab initio Hamiltonian  Method          .... Hartree-Fock(GTOs)


General Settings:
 Integral files         IntName         .... /scratch/allen/tmpyp4_amber_gaff2/conf1/conf1/Conf38.orca
 Hartree-Fock type      HFTyp           .... RHF
 Total Charge           Charge          ....    0
 Multiplicity           Mult            ....    1
 Number of Electrons    NEL             ....  358
 Basis Dimension        Dim             ....  918
 Nuclear Repulsion      ENuc            ....   6230.0850531668 Eh

Convergence Acceleration:
 DIIS                   CNVDIIS         .... on
   Start iteration      DIISMaxIt       ....    12
   Startup error        DIISStart       ....  0.200000
   # of expansion vecs  DIISMaxEq       ....     5
   Bias factor          DIISBfac        ....   1.050
   Max. coefficient     DIISMaxC        ....  10.000
 Trust-Rad. Augm. Hess. CNVTRAH         .... auto
   Auto Start mean grad. ratio tolernc. ....  1.125000
   Auto Start start iteration           ....    20
   Auto Start num. interpolation iter.  ....    10
   Max. Number of Micro iterations      ....    16
   Max. Number of Macro iterations      .... Maxiter - #DIIS iter
   Number of Davidson start vectors     ....     2
   Converg. threshold I  (grad. norm)   ....   1.000e-05
   Converg. threshold II (energy diff.) ....   1.000e-08
   Grad. Scal. Fac. for Micro threshold ....   0.100
   Minimum threshold for Micro iter.    ....   0.010
   NR start threshold (gradient norm)   ....   0.001
   Initial trust radius                 ....   0.400
   Minimum AH scaling param. (alpha)    ....   1.000
   Maximum AH scaling param. (alpha)    .... 1000.000
   Orbital update algorithm             .... Taylor
   White noise on init. David. guess    .... on
   Maximum white noise                  ....   0.010
   Quad. conv. algorithm                .... NR
 SOSCF                  CNVSOSCF        .... on
   Start iteration      SOSCFMaxIt      ....   150
   Startup grad/error   SOSCFStart      ....  0.003300
 Level Shifting         CNVShift        .... on
   Level shift para.    LevelShift      ....    0.2500
   Turn off err/grad.   ShiftErr        ....    0.0010
 Zerner damping         CNVZerner       .... off
 Static damping         CNVDamp         .... on
   Fraction old density DampFac         ....    0.7000
   Max. Damping (<1)    DampMax         ....    0.9800
   Min. Damping (>=0)   DampMin         ....    0.0000
   Turn off err/grad.   DampErr         ....    0.1000
 Fernandez-Rico         CNVRico         .... off

SCF Procedure:
 Maximum # iterations   MaxIter         ....   125
 SCF integral mode      SCFMode         .... Direct
   Integral package                     .... SHARK and LIBINT hybrid scheme
 Reset frequency        DirectResetFreq ....    20
 Integral Threshold     Thresh          ....  2.500e-11 Eh
 Primitive CutOff       TCut            ....  2.500e-12 Eh

Convergence Tolerance:
 Convergence Check Mode ConvCheckMode   .... Total+1el-Energy
 Convergence forced     ConvForced      .... 1
 Energy Change          TolE            ....  1.000e-08 Eh
 1-El. energy change                    ....  1.000e-05 Eh
 Orbital Gradient       TolG            ....  1.000e-05
 Orbital Rotation angle TolX            ....  1.000e-05
 DIIS Error             TolErr          ....  5.000e-07


Diagonalization of the overlap matrix:
Smallest eigenvalue                        ... 2.209e-04
Time for diagonalization                   ...    0.405 sec
Threshold for overlap eigenvalues          ... 1.000e-08
Number of eigenvalues below threshold      ... 0
Time for construction of square roots      ...    0.247 sec
Total time needed                          ...    0.657 sec

Time for model grid setup =    1.060 sec

------------------------------
INITIAL GUESS: MODEL POTENTIAL
------------------------------
Loading Hartree-Fock densities                     ... done
Calculating cut-offs                               ... done
Initializing the effective Hamiltonian             ... done
Setting up the integral package (SHARK)            ... done
Starting the Coulomb interaction                   ... done (   1.2 sec)
Reading the grid                                   ... done
Mapping shells                                     ... done
Starting the XC term evaluation                    ... done (   0.2 sec)
Transforming the Hamiltonian                       ... done (   0.2 sec)
Diagonalizing the Hamiltonian                      ... done (   0.3 sec)
Back transforming the eigenvectors                 ... done (   0.1 sec)
Now organizing SCF variables                       ... done
                      ------------------
                      INITIAL GUESS DONE (   3.1 sec)
                      ------------------
--------------
SCF ITERATIONS
--------------
ITER       Energy         Delta-E        Max-DP      RMS-DP      [F,P]     Damp
               ***  Starting incremental Fock matrix formation  ***
  0  -2121.6859408944   0.000000000000 0.06862179  0.00121546  0.2323043 0.7000
  1  -2122.3423883759  -0.656447481459 0.05195216  0.00098844  0.1438710 0.7000
                               ***Turning on DIIS***
  2  -2122.7504052647  -0.408016888834 0.12185951  0.00224183  0.0802346 0.0000
  3  -2117.8909273583   4.859477906413 0.03510913  0.00067694  0.0439617 0.0000
  4  -2123.4223945733  -5.531467215002 0.01099343  0.00022650  0.0076930 0.0000
  5  -2123.5846976645  -0.162303091200 0.00542271  0.00013320  0.0049630 0.0000
  6  -2123.5684193454   0.016278319075 0.00363121  0.00008563  0.0019898 0.0000
  7  -2123.6674930636  -0.099073718142 0.00299468  0.00006730  0.0015566 0.0000
  8  -2123.6797738807  -0.012280817165 0.00313954  0.00006333  0.0014511 0.0000
  9  -2123.6483872252   0.031386655561 0.00250731  0.00004390  0.0011581 0.0000
 10  -2123.6585875422  -0.010200316992 0.00504572  0.00009001  0.0008937 0.0000
                      *** Initiating the SOSCF procedure ***
                           *** Shutting down DIIS ***
                      *** Re-Reading the Fockian *** 
                      *** Removing any level shift *** 
ITER      Energy       Delta-E        Grad      Rot      Max-DP    RMS-DP
 11  -2123.54788738   0.1107001658  0.000208  0.000208  0.000243  0.000005
               *** Restarting incremental Fock matrix formation ***
 12  -2123.61412326  -0.0662358798  0.000878  0.005900  0.001275  0.000033
 13  -2123.61421761  -0.0000943525  0.001060  0.028791  0.006033  0.000127
 14  -2123.61437864  -0.0001610306  0.000346  0.002024  0.000604  0.000012
 15  -2123.61439454  -0.0000158960  0.000177  0.003411  0.000903  0.000019
 16  -2123.61440490  -0.0000103623  0.000165  0.003347  0.000522  0.000012
 17  -2123.61440861  -0.0000037079  0.000154  0.002204  0.000361  0.000008
 18  -2123.61441066  -0.0000020547  0.000079  0.001008  0.000319  0.000005
 19  -2123.61441163  -0.0000009664  0.000047  0.000788  0.000175  0.000004
 20  -2123.61441195  -0.0000003281  0.000027  0.000509  0.000103  0.000002
 21  -2123.61441215  -0.0000001916  0.000027  0.000613  0.000125  0.000002
 22  -2123.61441228  -0.0000001362  0.000021  0.000581  0.000107  0.000002
 23  -2123.61441236  -0.0000000783  0.000012  0.000381  0.000069  0.000001
 24  -2123.61441240  -0.0000000411  0.000007  0.000278  0.000046  0.000001
 25  -2123.61441243  -0.0000000260  0.000008  0.000187  0.000032  0.000001
 26  -2123.61441244  -0.0000000140  0.000005  0.000183  0.000030  0.000001
 27  -2123.61441245  -0.0000000075  0.000004  0.000148  0.000025  0.000001
                  ***Gradient check signals convergence***
              ***Rediagonalizing the Fockian in SOSCF/NRSCF***

               *****************************************************
               *                     SUCCESS                       *
               *           SCF CONVERGED AFTER  28 CYCLES          *
               *****************************************************


----------------
TOTAL SCF ENERGY
----------------

Total Energy       :        -2123.61441245 Eh          -57786.48597 eV

Components:
Nuclear Repulsion  :         6230.08505317 Eh          169529.23300 eV
Electronic Energy  :        -8353.69946562 Eh         -227315.71897 eV
One Electron Energy:       -15300.99790417 Eh         -416361.32037 eV
Two Electron Energy:         6947.29843855 Eh          189045.60141 eV

Virial components:
Potential Energy   :        -4245.74669811 Eh         -115532.64122 eV
Kinetic Energy     :         2122.13228566 Eh           57746.15525 eV
Virial Ratio       :            2.00069841


---------------
SCF CONVERGENCE
---------------

  Last Energy change         ...   -2.5248e-09  Tolerance :   1.0000e-08
  Last MAX-Density change    ...    1.4304e-05  Tolerance :   1.0000e-07
  Last RMS-Density change    ...    3.3007e-07  Tolerance :   5.0000e-09
  Last Orbital Gradient      ...    2.4790e-06  Tolerance :   1.0000e-05
  Last Orbital Rotation      ...    9.2196e-05  Tolerance :   1.0000e-05

             **** THE GBW FILE WAS UPDATED (/scratch/allen/tmpyp4_amber_gaff2/conf1/conf1/Conf38.orca.gbw) ****
             **** DENSITY /scratch/allen/tmpyp4_amber_gaff2/conf1/conf1/Conf38.orca.scfp WAS UPDATED ****
             **** ENERGY FILE WAS UPDATED (/scratch/allen/tmpyp4_amber_gaff2/conf1/conf1/Conf38.orca.en.tmp) ****
             **** THE GBW FILE WAS UPDATED (/scratch/allen/tmpyp4_amber_gaff2/conf1/conf1/Conf38.orca.gbw) ****
             **** DENSITY /scratch/allen/tmpyp4_amber_gaff2/conf1/conf1/Conf38.orca.scfp WAS UPDATED ****
----------------
ORBITAL ENERGIES
----------------

  NO   OCC          E(Eh)            E(eV) 
   0   2.0000     -15.667939      -426.3463 
   1   2.0000     -15.635294      -425.4580 
   2   2.0000     -15.630647      -425.3315 
   3   2.0000     -15.595650      -424.3792 
   4   2.0000     -15.523856      -422.4256 
   5   2.0000     -15.516370      -422.2219 
   6   2.0000     -15.451288      -420.4509 
   7   2.0000     -15.442037      -420.1992 
   8   2.0000     -11.320613      -308.0495 
   9   2.0000     -11.319775      -308.0267 
  10   2.0000     -11.318166      -307.9830 
  11   2.0000     -11.300141      -307.4925 
  12   2.0000     -11.297539      -307.4217 
  13   2.0000     -11.293477      -307.3111 
  14   2.0000     -11.289459      -307.2018 
  15   2.0000     -11.288351      -307.1717 
  16   2.0000     -11.286096      -307.1103 
  17   2.0000     -11.276168      -306.8401 
  18   2.0000     -11.270919      -306.6973 
  19   2.0000     -11.260619      -306.4170 
  20   2.0000     -11.258726      -306.3655 
  21   2.0000     -11.255048      -306.2654 
  22   2.0000     -11.254106      -306.2398 
  23   2.0000     -11.238884      -305.8256 
  24   2.0000     -11.235373      -305.7300 
  25   2.0000     -11.232130      -305.6418 
  26   2.0000     -11.231326      -305.6199 
  27   2.0000     -11.228795      -305.5510 
  28   2.0000     -11.228699      -305.5484 
  29   2.0000     -11.208261      -304.9923 
  30   2.0000     -11.207166      -304.9625 
  31   2.0000     -11.204971      -304.9028 
  32   2.0000     -11.199445      -304.7524 
  33   2.0000     -11.197570      -304.7014 
  34   2.0000     -11.190838      -304.5182 
  35   2.0000     -11.190039      -304.4964 
  36   2.0000     -11.186200      -304.3920 
  37   2.0000     -11.183723      -304.3246 
  38   2.0000     -11.182768      -304.2986 
  39   2.0000     -11.172571      -304.0211 
  40   2.0000     -11.170374      -303.9613 
  41   2.0000     -11.169833      -303.9466 
  42   2.0000     -11.165944      -303.8408 
  43   2.0000     -11.162752      -303.7539 
  44   2.0000     -11.160853      -303.7022 
  45   2.0000     -11.159506      -303.6656 
  46   2.0000     -11.156689      -303.5889 
  47   2.0000     -11.152504      -303.4751 
  48   2.0000     -11.149229      -303.3859 
  49   2.0000     -11.142646      -303.2068 
  50   2.0000     -11.134361      -302.9814 
  51   2.0000     -11.126502      -302.7675 
  52   2.0000      -1.350302       -36.7436 
  53   2.0000      -1.322355       -35.9831 
  54   2.0000      -1.318539       -35.8793 
  55   2.0000      -1.289186       -35.0805 
  56   2.0000      -1.224041       -33.3078 
  57   2.0000      -1.211069       -32.9549 
  58   2.0000      -1.169782       -31.8314 
  59   2.0000      -1.153265       -31.3819 
  60   2.0000      -1.135169       -30.8895 
  61   2.0000      -1.111074       -30.2339 
  62   2.0000      -1.108046       -30.1515 
  63   2.0000      -1.084307       -29.5055 
  64   2.0000      -1.072718       -29.1901 
  65   2.0000      -1.046469       -28.4759 
  66   2.0000      -1.043248       -28.3882 
  67   2.0000      -1.035577       -28.1795 
  68   2.0000      -1.017128       -27.6775 
  69   2.0000      -1.013857       -27.5884 
  70   2.0000      -1.009860       -27.4797 
  71   2.0000      -0.992381       -27.0041 
  72   2.0000      -0.987415       -26.8689 
  73   2.0000      -0.977953       -26.6115 
  74   2.0000      -0.972796       -26.4711 
  75   2.0000      -0.960175       -26.1277 
  76   2.0000      -0.951962       -25.9042 
  77   2.0000      -0.947513       -25.7831 
  78   2.0000      -0.935669       -25.4609 
  79   2.0000      -0.920663       -25.0525 
  80   2.0000      -0.902511       -24.5586 
  81   2.0000      -0.892109       -24.2755 
  82   2.0000      -0.874307       -23.7911 
  83   2.0000      -0.871203       -23.7066 
  84   2.0000      -0.867095       -23.5949 
  85   2.0000      -0.856073       -23.2949 
  86   2.0000      -0.843108       -22.9421 
  87   2.0000      -0.837155       -22.7802 
  88   2.0000      -0.823230       -22.4012 
  89   2.0000      -0.798387       -21.7252 
  90   2.0000      -0.793500       -21.5922 
  91   2.0000      -0.747084       -20.3292 
  92   2.0000      -0.739322       -20.1180 
  93   2.0000      -0.732003       -19.9188 
  94   2.0000      -0.723039       -19.6749 
  95   2.0000      -0.721199       -19.6248 
  96   2.0000      -0.714528       -19.4433 
  97   2.0000      -0.708228       -19.2719 
  98   2.0000      -0.704319       -19.1655 
  99   2.0000      -0.695999       -18.9391 
 100   2.0000      -0.695122       -18.9152 
 101   2.0000      -0.682878       -18.5820 
 102   2.0000      -0.678655       -18.4671 
 103   2.0000      -0.676868       -18.4185 
 104   2.0000      -0.676554       -18.4100 
 105   2.0000      -0.672323       -18.2948 
 106   2.0000      -0.666828       -18.1453 
 107   2.0000      -0.661752       -18.0072 
 108   2.0000      -0.655188       -17.8286 
 109   2.0000      -0.654016       -17.7967 
 110   2.0000      -0.650266       -17.6946 
 111   2.0000      -0.644770       -17.5451 
 112   2.0000      -0.641606       -17.4590 
 113   2.0000      -0.638202       -17.3664 
 114   2.0000      -0.637490       -17.3470 
 115   2.0000      -0.628011       -17.0891 
 116   2.0000      -0.626396       -17.0451 
 117   2.0000      -0.617023       -16.7901 
 118   2.0000      -0.613396       -16.6913 
 119   2.0000      -0.611786       -16.6475 
 120   2.0000      -0.610466       -16.6116 
 121   2.0000      -0.604011       -16.4360 
 122   2.0000      -0.600759       -16.3475 
 123   2.0000      -0.587519       -15.9872 
 124   2.0000      -0.583609       -15.8808 
 125   2.0000      -0.581551       -15.8248 
 126   2.0000      -0.579612       -15.7721 
 127   2.0000      -0.577262       -15.7081 
 128   2.0000      -0.564724       -15.3669 
 129   2.0000      -0.558754       -15.2045 
 130   2.0000      -0.553134       -15.0515 
 131   2.0000      -0.548257       -14.9188 
 132   2.0000      -0.541897       -14.7458 
 133   2.0000      -0.538184       -14.6447 
 134   2.0000      -0.537419       -14.6239 
 135   2.0000      -0.535372       -14.5682 
 136   2.0000      -0.526376       -14.3234 
 137   2.0000      -0.524194       -14.2641 
 138   2.0000      -0.516549       -14.0560 
 139   2.0000      -0.514720       -14.0062 
 140   2.0000      -0.511803       -13.9269 
 141   2.0000      -0.511100       -13.9077 
 142   2.0000      -0.508682       -13.8419 
 143   2.0000      -0.503174       -13.6921 
 144   2.0000      -0.501322       -13.6417 
 145   2.0000      -0.497658       -13.5420 
 146   2.0000      -0.494050       -13.4438 
 147   2.0000      -0.485470       -13.2103 
 148   2.0000      -0.482175       -13.1207 
 149   2.0000      -0.467693       -12.7266 
 150   2.0000      -0.464879       -12.6500 
 151   2.0000      -0.456783       -12.4297 
 152   2.0000      -0.449561       -12.2332 
 153   2.0000      -0.445851       -12.1322 
 154   2.0000      -0.442852       -12.0506 
 155   2.0000      -0.439349       -11.9553 
 156   2.0000      -0.430565       -11.7163 
 157   2.0000      -0.422854       -11.5064 
 158   2.0000      -0.402132       -10.9426 
 159   2.0000      -0.387781       -10.5521 
 160   2.0000      -0.380041       -10.3414 
 161   2.0000      -0.378068       -10.2878 
 162   2.0000      -0.370118       -10.0714 
 163   2.0000      -0.357472        -9.7273 
 164   2.0000      -0.354943        -9.6585 
 165   2.0000      -0.339164        -9.2291 
 166   2.0000      -0.337221        -9.1763 
 167   2.0000      -0.329041        -8.9537 
 168   2.0000      -0.326765        -8.8917 
 169   2.0000      -0.302645        -8.2354 
 170   2.0000      -0.299860        -8.1596 
 171   2.0000      -0.286716        -7.8019 
 172   2.0000      -0.283615        -7.7176 
 173   2.0000      -0.261463        -7.1148 
 174   2.0000      -0.244258        -6.6466 
 175   2.0000      -0.189637        -5.1603 
 176   2.0000      -0.179906        -4.8955 
 177   2.0000      -0.073564        -2.0018 
 178   2.0000      -0.057595        -1.5673 
 179   0.0000       0.028867         0.7855 
 180   0.0000       0.067367         1.8331 
 181   0.0000       0.091767         2.4971 
 182   0.0000       0.107071         2.9136 
 183   0.0000       0.114052         3.1035 
 184   0.0000       0.136328         3.7097 
 185   0.0000       0.140022         3.8102 
 186   0.0000       0.147106         4.0030 
 187   0.0000       0.162664         4.4263 
 188   0.0000       0.164413         4.4739 
 189   0.0000       0.165825         4.5123 
 190   0.0000       0.166397         4.5279 
 191   0.0000       0.184181         5.0118 
 192   0.0000       0.186628         5.0784 
 193   0.0000       0.190024         5.1708 
 194   0.0000       0.204240         5.5577 
 195   0.0000       0.206304         5.6138 
 196   0.0000       0.207549         5.6477 
 197   0.0000       0.209332         5.6962 
 198   0.0000       0.222306         6.0493 
 199   0.0000       0.224215         6.1012 
 200   0.0000       0.228371         6.2143 
 201   0.0000       0.238258         6.4833 
 202   0.0000       0.240005         6.5309 
 203   0.0000       0.240547         6.5456 
 204   0.0000       0.250146         6.8068 
 205   0.0000       0.255935         6.9643 
 206   0.0000       0.256501         6.9798 
 207   0.0000       0.258323         7.0293 
 208   0.0000       0.259767         7.0686 
 209   0.0000       0.262439         7.1413 
 210   0.0000       0.263843         7.1795 
 211   0.0000       0.270549         7.3620 
 212   0.0000       0.270791         7.3686 
 213   0.0000       0.272484         7.4147 
 214   0.0000       0.274913         7.4808 
 215   0.0000       0.276173         7.5151 
 216   0.0000       0.278570         7.5803 
 217   0.0000       0.282112         7.6767 
 218   0.0000       0.285294         7.7633 
 219   0.0000       0.288489         7.8502 
 220   0.0000       0.290061         7.8930 
 221   0.0000       0.292913         7.9706 
 222   0.0000       0.294806         8.0221 
 223   0.0000       0.296832         8.0772 
 224   0.0000       0.296894         8.0789 
 225   0.0000       0.298537         8.1236 
 226   0.0000       0.306355         8.3363 
 227   0.0000       0.308181         8.3860 
 228   0.0000       0.309917         8.4333 
 229   0.0000       0.323538         8.8039 
 230   0.0000       0.324533         8.8310 
 231   0.0000       0.328181         8.9302 
 232   0.0000       0.330126         8.9832 
 233   0.0000       0.334523         9.1028 
 234   0.0000       0.349083         9.4990 
 235   0.0000       0.351407         9.5623 
 236   0.0000       0.362455         9.8629 
 237   0.0000       0.379947        10.3389 
 238   0.0000       0.394585        10.7372 
 239   0.0000       0.397305        10.8112 
 240   0.0000       0.400880        10.9085 
 241   0.0000       0.413080        11.2405 
 242   0.0000       0.418083        11.3766 
 243   0.0000       0.420203        11.4343 
 244   0.0000       0.429348        11.6831 
 245   0.0000       0.433448        11.7947 
 246   0.0000       0.435111        11.8400 
 247   0.0000       0.440777        11.9941 
 248   0.0000       0.442013        12.0278 
 249   0.0000       0.447315        12.1721 
 250   0.0000       0.451747        12.2927 
 251   0.0000       0.458979        12.4894 
 252   0.0000       0.464196        12.6314 
 253   0.0000       0.467740        12.7279 
 254   0.0000       0.471076        12.8186 
 255   0.0000       0.472996        12.8709 
 256   0.0000       0.480535        13.0760 
 257   0.0000       0.482336        13.1250 
 258   0.0000       0.487255        13.2589 
 259   0.0000       0.498574        13.5669 
 260   0.0000       0.503440        13.6993 
 261   0.0000       0.505088        13.7441 
 262   0.0000       0.506707        13.7882 
 263   0.0000       0.507351        13.8057 
 264   0.0000       0.514116        13.9898 
 265   0.0000       0.519492        14.1361 
 266   0.0000       0.524609        14.2753 
 267   0.0000       0.525348        14.2955 
 268   0.0000       0.532931        14.5018 
 269   0.0000       0.537080        14.6147 
 270   0.0000       0.540501        14.7078 
 271   0.0000       0.547631        14.9018 
 272   0.0000       0.551257        15.0005 
 273   0.0000       0.558403        15.1949 
 274   0.0000       0.560264        15.2456 
 275   0.0000       0.564723        15.3669 
 276   0.0000       0.570325        15.5193 
 277   0.0000       0.572595        15.5811 
 278   0.0000       0.578309        15.7366 
 279   0.0000       0.586207        15.9515 
 280   0.0000       0.588746        16.0206 
 281   0.0000       0.592501        16.1228 
 282   0.0000       0.593115        16.1395 
 283   0.0000       0.596021        16.2186 
 284   0.0000       0.598336        16.2816 
 285   0.0000       0.600163        16.3313 
 286   0.0000       0.607582        16.5331 
 287   0.0000       0.612850        16.6765 
 288   0.0000       0.615124        16.7384 
 289   0.0000       0.619329        16.8528 
 290   0.0000       0.627162        17.0659 
 291   0.0000       0.630783        17.1645 
 292   0.0000       0.633734        17.2448 
 293   0.0000       0.636393        17.3171 
 294   0.0000       0.645744        17.5716 
 295   0.0000       0.648800        17.6547 
 296   0.0000       0.654046        17.7975 
 297   0.0000       0.656780        17.8719 
 298   0.0000       0.664957        18.0944 
 299   0.0000       0.667804        18.1719 
 300   0.0000       0.669906        18.2291 
 301   0.0000       0.672698        18.3051 
 302   0.0000       0.678351        18.4589 
 303   0.0000       0.680482        18.5169 
 304   0.0000       0.681171        18.5356 
 305   0.0000       0.685862        18.6633 
 306   0.0000       0.689879        18.7726 
 307   0.0000       0.691017        18.8035 
 308   0.0000       0.696407        18.9502 
 309   0.0000       0.698032        18.9944 
 310   0.0000       0.702323        19.1112 
 311   0.0000       0.703513        19.1436 
 312   0.0000       0.705859        19.2074 
 313   0.0000       0.710473        19.3330 
 314   0.0000       0.711299        19.3554 
 315   0.0000       0.714900        19.4534 
 316   0.0000       0.717684        19.5292 
 317   0.0000       0.718453        19.5501 
 318   0.0000       0.719668        19.5832 
 319   0.0000       0.724798        19.7228 
 320   0.0000       0.725894        19.7526 
 321   0.0000       0.730590        19.8804 
 322   0.0000       0.732701        19.9378 
 323   0.0000       0.735420        20.0118 
 324   0.0000       0.737110        20.0578 
 325   0.0000       0.740250        20.1432 
 326   0.0000       0.743030        20.2189 
 327   0.0000       0.743827        20.2405 
 328   0.0000       0.749041        20.3825 
 329   0.0000       0.749805        20.4032 
 330   0.0000       0.754714        20.5368 
 331   0.0000       0.756595        20.5880 
 332   0.0000       0.760634        20.6979 
 333   0.0000       0.761737        20.7279 
 334   0.0000       0.768050        20.8997 
 335   0.0000       0.772764        21.0280 
 336   0.0000       0.774597        21.0779 
 337   0.0000       0.780360        21.2347 
 338   0.0000       0.783672        21.3248 
 339   0.0000       0.789351        21.4793 
 340   0.0000       0.790919        21.5220 
 341   0.0000       0.795154        21.6372 
 342   0.0000       0.797173        21.6922 
 343   0.0000       0.803685        21.8694 
 344   0.0000       0.804951        21.9038 
 345   0.0000       0.807033        21.9605 
 346   0.0000       0.808398        21.9976 
 347   0.0000       0.810580        22.0570 
 348   0.0000       0.814407        22.1611 
 349   0.0000       0.819126        22.2895 
 350   0.0000       0.819822        22.3085 
 351   0.0000       0.823665        22.4131 
 352   0.0000       0.824498        22.4357 
 353   0.0000       0.825628        22.4665 
 354   0.0000       0.828274        22.5385 
 355   0.0000       0.831940        22.6383 
 356   0.0000       0.833435        22.6789 
 357   0.0000       0.836492        22.7621 
 358   0.0000       0.837264        22.7831 
 359   0.0000       0.838083        22.8054 
 360   0.0000       0.839257        22.8373 
 361   0.0000       0.843510        22.9531 
 362   0.0000       0.844629        22.9835 
 363   0.0000       0.846301        23.0290 
 364   0.0000       0.847009        23.0483 
 365   0.0000       0.853035        23.2123 
 366   0.0000       0.856359        23.3027 
 367   0.0000       0.860090        23.4042 
 368   0.0000       0.863512        23.4974 
 369   0.0000       0.864824        23.5330 
 370   0.0000       0.866922        23.5902 
 371   0.0000       0.872048        23.7296 
 372   0.0000       0.874041        23.7839 
 373   0.0000       0.877158        23.8687 
 374   0.0000       0.881032        23.9741 
 375   0.0000       0.883932        24.0530 
 376   0.0000       0.885606        24.0986 
 377   0.0000       0.888583        24.1796 
 378   0.0000       0.888863        24.1872 
 379   0.0000       0.894069        24.3289 
 380   0.0000       0.897724        24.4283 
 381   0.0000       0.899334        24.4721 
 382   0.0000       0.901323        24.5262 
 383   0.0000       0.901991        24.5444 
 384   0.0000       0.903047        24.5732 
 385   0.0000       0.904510        24.6130 
 386   0.0000       0.907251        24.6875 
 387   0.0000       0.908976        24.7345 
 388   0.0000       0.910657        24.7802 
 389   0.0000       0.916577        24.9413 
 390   0.0000       0.920100        25.0372 
 391   0.0000       0.923138        25.1199 
 392   0.0000       0.924802        25.1652 
 393   0.0000       0.925719        25.1901 
 394   0.0000       0.926972        25.2242 
 395   0.0000       0.930565        25.3220 
 396   0.0000       0.933633        25.4055 
 397   0.0000       0.936131        25.4734 
 398   0.0000       0.940389        25.5893 
 399   0.0000       0.941429        25.6176 
 400   0.0000       0.944180        25.6924 
 401   0.0000       0.947126        25.7726 
 402   0.0000       0.952958        25.9313 
 403   0.0000       0.956502        26.0278 
 404   0.0000       0.959707        26.1150 
 405   0.0000       0.960482        26.1360 
 406   0.0000       0.963831        26.2272 
 407   0.0000       0.966857        26.3095 
 408   0.0000       0.968998        26.3678 
 409   0.0000       0.976709        26.5776 
 410   0.0000       0.979942        26.6656 
 411   0.0000       0.985951        26.8291 
 412   0.0000       0.987257        26.8646 
 413   0.0000       0.993516        27.0349 
 414   0.0000       0.996191        27.1077 
 415   0.0000       0.997799        27.1515 
 416   0.0000       1.002997        27.2929 
 417   0.0000       1.011106        27.5136 
 418   0.0000       1.015101        27.6223 
 419   0.0000       1.019642        27.7459 
 420   0.0000       1.026759        27.9395 
 421   0.0000       1.030928        28.0530 
 422   0.0000       1.032962        28.1083 
 423   0.0000       1.042649        28.3719 
 424   0.0000       1.048392        28.5282 
 425   0.0000       1.049054        28.5462 
 426   0.0000       1.058775        28.8107 
 427   0.0000       1.063930        28.9510 
 428   0.0000       1.069758        29.1096 
 429   0.0000       1.077689        29.3254 
 430   0.0000       1.079248        29.3678 
 431   0.0000       1.083594        29.4861 
 432   0.0000       1.087465        29.5914 
 433   0.0000       1.090492        29.6738 
 434   0.0000       1.099550        29.9203 
 435   0.0000       1.101283        29.9674 
 436   0.0000       1.105633        30.0858 
 437   0.0000       1.111490        30.2452 
 438   0.0000       1.113795        30.3079 
 439   0.0000       1.117492        30.4085 
 440   0.0000       1.120116        30.4799 
 441   0.0000       1.122688        30.5499 
 442   0.0000       1.124806        30.6075 
 443   0.0000       1.128243        30.7010 
 444   0.0000       1.133530        30.8449 
 445   0.0000       1.135869        30.9086 
 446   0.0000       1.140142        31.0248 
 447   0.0000       1.141687        31.0669 
 448   0.0000       1.144240        31.1364 
 449   0.0000       1.149671        31.2841 
 450   0.0000       1.152004        31.3476 
 451   0.0000       1.155156        31.4334 
 452   0.0000       1.158251        31.5176 
 453   0.0000       1.162519        31.6338 
 454   0.0000       1.165264        31.7085 
 455   0.0000       1.169879        31.8340 
 456   0.0000       1.172688        31.9105 
 457   0.0000       1.176233        32.0069 
 458   0.0000       1.179318        32.0909 
 459   0.0000       1.185583        32.2613 
 460   0.0000       1.190479        32.3946 
 461   0.0000       1.196947        32.5706 
 462   0.0000       1.201296        32.6889 
 463   0.0000       1.205795        32.8114 
 464   0.0000       1.207363        32.8540 
 465   0.0000       1.209890        32.9228 
 466   0.0000       1.216063        33.0908 
 467   0.0000       1.218145        33.1474 
 468   0.0000       1.221162        33.2295 
 469   0.0000       1.225598        33.3502 
 470   0.0000       1.229138        33.4465 
 471   0.0000       1.231119        33.5004 
 472   0.0000       1.234538        33.5935 
 473   0.0000       1.235298        33.6142 
 474   0.0000       1.242961        33.8227 
 475   0.0000       1.244552        33.8660 
 476   0.0000       1.248810        33.9818 
 477   0.0000       1.250598        34.0305 
 478   0.0000       1.251678        34.0599 
 479   0.0000       1.254186        34.1281 
 480   0.0000       1.259091        34.2616 
 481   0.0000       1.264411        34.4064 
 482   0.0000       1.264939        34.4207 
 483   0.0000       1.268930        34.5293 
 484   0.0000       1.272415        34.6242 
 485   0.0000       1.277477        34.7619 
 486   0.0000       1.281398        34.8686 
 487   0.0000       1.283823        34.9346 
 488   0.0000       1.287063        35.0228 
 489   0.0000       1.290339        35.1119 
 490   0.0000       1.293561        35.1996 
 491   0.0000       1.297446        35.3053 
 492   0.0000       1.300101        35.3775 
 493   0.0000       1.309146        35.6237 
 494   0.0000       1.311349        35.6836 
 495   0.0000       1.314827        35.7783 
 496   0.0000       1.321784        35.9676 
 497   0.0000       1.323222        36.0067 
 498   0.0000       1.325962        36.0813 
 499   0.0000       1.329591        36.1800 
 500   0.0000       1.331195        36.2236 
 501   0.0000       1.335744        36.3474 
 502   0.0000       1.338355        36.4185 
 503   0.0000       1.341936        36.5159 
 504   0.0000       1.346104        36.6293 
 505   0.0000       1.350887        36.7595 
 506   0.0000       1.352564        36.8052 
 507   0.0000       1.357235        36.9322 
 508   0.0000       1.359392        36.9909 
 509   0.0000       1.362710        37.0812 
[...]
      pz      :     0.022076  p :     0.079719
      px      :     0.043523
      py      :     0.014121
 77 H s       :     0.885845  s :     0.885845
      pz      :     0.047877  p :     0.079174
      px      :     0.015020
      py      :     0.016278
 78 H s       :     0.886208  s :     0.886208
      pz      :     0.025831  p :     0.079134
      px      :     0.020484
      py      :     0.032819
 79 H s       :     0.910224  s :     0.910224
      pz      :     0.021895  p :     0.086430
      px      :     0.021690
      py      :     0.042845
 80 H s       :     0.866254  s :     0.866254
      pz      :     0.039240  p :     0.084617
      px      :     0.030175
      py      :     0.015202
 81 H s       :     0.887024  s :     0.887024
      pz      :     0.037795  p :     0.084062
      px      :     0.016179
      py      :     0.030088
 82 H s       :     0.915720  s :     0.915720
      pz      :     0.021989  p :     0.086763
      px      :     0.031572
      py      :     0.033202
 83 H s       :     0.873193  s :     0.873193
      pz      :     0.039274  p :     0.084061
      px      :     0.015269
      py      :     0.029519
 84 H s       :     0.886789  s :     0.886789
      pz      :     0.035778  p :     0.083519
      px      :     0.031704
      py      :     0.016037
 85 H s       :     0.893067  s :     0.893067
      pz      :     0.022493  p :     0.079777
      px      :     0.014075
      py      :     0.043209
 86 H s       :     0.890932  s :     0.890932
      pz      :     0.024729  p :     0.078837
      px      :     0.032984
      py      :     0.021125
 87 H s       :     0.889997  s :     0.889997
      pz      :     0.047996  p :     0.078727
      px      :     0.015593
      py      :     0.015138
 88 H s       :     0.911385  s :     0.911385
      pz      :     0.021722  p :     0.086993
      px      :     0.042835
      py      :     0.022437
 89 H s       :     0.871809  s :     0.871809
      pz      :     0.037921  p :     0.083828
      px      :     0.030466
      py      :     0.015441


                      *****************************
                      * MAYER POPULATION ANALYSIS *
                      *****************************

  NA   - Mulliken gross atomic population
  ZA   - Total nuclear charge
  QA   - Mulliken gross atomic charge
  VA   - Mayer's total valence
  BVA  - Mayer's bonded valence
  FA   - Mayer's free valence

  ATOM       NA         ZA         QA         VA         BVA        FA
  0 C      5.7920     6.0000     0.2080     3.8390     3.8390     0.0000
  1 N      7.4535     7.0000    -0.4535     3.3345     3.3345    -0.0000
  2 C      6.0633     6.0000    -0.0633     3.9203     3.9203    -0.0000
  3 N      7.3363     7.0000    -0.3363     3.4563     3.4563    -0.0000
  4 C      6.0492     6.0000    -0.0492     4.0093     4.0093     0.0000
  5 N      7.5633     7.0000    -0.5633     3.0929     3.0929    -0.0000
  6 C      6.1047     6.0000    -0.1047     3.9997     3.9997    -0.0000
  7 N      7.3398     7.0000    -0.3398     3.4358     3.4358     0.0000
  8 C      5.7948     6.0000     0.2052     3.8390     3.8390     0.0000
  9 N      7.5625     7.0000    -0.5625     3.0789     3.0789    -0.0000
 10 C      5.8812     6.0000     0.1188     3.9069     3.9069    -0.0000
 11 N      7.4382     7.0000    -0.4382     3.3795     3.3795     0.0000
 12 C      6.0836     6.0000    -0.0836     3.9085     3.9085    -0.0000
 13 N      7.4323     7.0000    -0.4323     3.4153     3.4153    -0.0000
 14 C      5.7618     6.0000     0.2382     3.7816     3.7816     0.0000
 15 N      7.4410     7.0000    -0.4410     3.3716     3.3716    -0.0000
 16 C      5.7720     6.0000     0.2280     3.7818     3.7818    -0.0000
 17 C      6.1146     6.0000    -0.1146     4.0058     4.0058    -0.0000
 18 C      6.2022     6.0000    -0.2022     3.7693     3.7693     0.0000
 19 C      5.7691     6.0000     0.2309     3.8602     3.8602    -0.0000
 20 C      5.7878     6.0000     0.2122     3.8284     3.8284     0.0000
 21 C      6.0958     6.0000    -0.0958     3.8941     3.8941     0.0000
 22 C      6.0907     6.0000    -0.0907     3.9828     3.9828    -0.0000
 23 C      6.0416     6.0000    -0.0416     3.9922     3.9922     0.0000
 24 C      5.8036     6.0000     0.1964     3.8218     3.8218     0.0000
 25 C      5.8856     6.0000     0.1144     3.8911     3.8911     0.0000
 26 C      6.0770     6.0000    -0.0770     3.9092     3.9092     0.0000
 27 C      5.7863     6.0000     0.2137     3.8673     3.8673     0.0000
 28 C      6.0596     6.0000    -0.0596     3.9885     3.9885     0.0000
 29 C      6.1806     6.0000    -0.1806     3.7434     3.7434    -0.0000
 30 C      5.7565     6.0000     0.2435     3.7988     3.7988     0.0000
 31 C      5.7747     6.0000     0.2253     3.8201     3.8201     0.0000
 32 C      6.0626     6.0000    -0.0626     3.9219     3.9219    -0.0000
 33 C      6.0659     6.0000    -0.0659     3.9758     3.9758     0.0000
 34 C      6.0507     6.0000    -0.0507     3.9859     3.9859     0.0000
 35 C      5.7782     6.0000     0.2218     3.8191     3.8191    -0.0000
 36 C      5.8902     6.0000     0.1098     3.8792     3.8792     0.0000
 37 C      6.0650     6.0000    -0.0650     3.9176     3.9176    -0.0000
 38 C      5.7672     6.0000     0.2328     3.8000     3.8000    -0.0000
 39 C      6.0587     6.0000    -0.0587     3.9853     3.9853     0.0000
 40 C      6.1832     6.0000    -0.1832     3.7310     3.7310    -0.0000
 41 C      5.7753     6.0000     0.2247     3.8852     3.8852    -0.0000
 42 C      5.8014     6.0000     0.1986     3.8263     3.8263    -0.0000
 43 C      6.0726     6.0000    -0.0726     3.9007     3.9007    -0.0000
 44 C      6.0897     6.0000    -0.0897     3.9849     3.9849    -0.0000
 45 C      6.0592     6.0000    -0.0592     3.9925     3.9925     0.0000
 46 C      5.7906     6.0000     0.2094     3.8279     3.8279     0.0000
 47 C      5.8845     6.0000     0.1155     3.8932     3.8932     0.0000
 48 C      6.0687     6.0000    -0.0687     3.9084     3.9084    -0.0000
 49 C      5.7642     6.0000     0.2358     3.8913     3.8913    -0.0000
 50 C      6.0481     6.0000    -0.0481     3.9905     3.9905     0.0000
 51 C      6.1908     6.0000    -0.1908     3.7359     3.7359    -0.0000
 52 H      0.9583     1.0000     0.0417     0.9859     0.9859     0.0000
 53 H      1.0160     1.0000    -0.0160     0.9982     0.9982     0.0000
 54 H      0.9469     1.0000     0.0531     1.0133     1.0133     0.0000
 55 H      0.9588     1.0000     0.0412     0.9867     0.9867     0.0000
 56 H      0.9493     1.0000     0.0507     0.9699     0.9699     0.0000
 57 H      0.9506     1.0000     0.0494     0.9831     0.9831    -0.0000
 58 H      0.9514     1.0000     0.0486     0.9849     0.9849     0.0000
 59 H      0.9995     1.0000     0.0005     1.0031     1.0031     0.0000
 60 H      0.9518     1.0000     0.0482     1.0122     1.0122    -0.0000
 61 H      0.8285     1.0000     0.1715     1.0421     1.0421    -0.0000
 62 H      0.8252     1.0000     0.1748     1.0435     1.0435     0.0000
 63 H      0.9444     1.0000     0.0556     0.9853     0.9853     0.0000
 64 H      1.0081     1.0000    -0.0081     0.9984     0.9984     0.0000
 65 H      0.9526     1.0000     0.0474     1.0094     1.0094     0.0000
 66 H      0.9437     1.0000     0.0563     0.9854     0.9854    -0.0000
 67 H      0.9376     1.0000     0.0624     0.9719     0.9719     0.0000
 68 H      0.9425     1.0000     0.0575     0.9868     0.9868    -0.0000
 69 H      0.9431     1.0000     0.0569     0.9828     0.9828    -0.0000
 70 H      1.0283     1.0000    -0.0283     0.9935     0.9935     0.0000
 71 H      0.9546     1.0000     0.0454     1.0061     1.0061    -0.0000
 72 H      0.9325     1.0000     0.0675     0.9840     0.9840     0.0000
 73 H      1.0094     1.0000    -0.0094     1.0004     1.0004    -0.0000
 74 H      0.9431     1.0000     0.0569     1.0100     1.0100     0.0000
 75 H      0.9332     1.0000     0.0668     0.9843     0.9843    -0.0000
 76 H      0.9284     1.0000     0.0716     0.9720     0.9720     0.0000
 77 H      0.9346     1.0000     0.0654     0.9854     0.9854     0.0000
 78 H      0.9353     1.0000     0.0647     0.9852     0.9852     0.0000
 79 H      1.0158     1.0000    -0.0158     0.9980     0.9980    -0.0000
 80 H      0.9424     1.0000     0.0576     1.0072     1.0072    -0.0000
 81 H      0.9461     1.0000     0.0539     0.9856     0.9856    -0.0000
 82 H      1.0244     1.0000    -0.0244     0.9936     0.9936     0.0000
 83 H      0.9578     1.0000     0.0422     1.0085     1.0085     0.0000
 84 H      0.9461     1.0000     0.0539     0.9853     0.9853    -0.0000
 85 H      0.9396     1.0000     0.0604     0.9716     0.9716     0.0000
 86 H      0.9443     1.0000     0.0557     0.9839     0.9839     0.0000
 87 H      0.9431     1.0000     0.0569     0.9856     0.9856     0.0000
 88 H      1.0161     1.0000    -0.0161     0.9962     0.9962     0.0000
 89 H      0.9545     1.0000     0.0455     1.0074     1.0074    -0.0000

  Mayer bond orders larger than 0.100000
B(  0-C ,  1-N ) :   1.0953 B(  0-C , 17-C ) :   1.6920 B(  0-C , 52-H ) :   0.9680 
B(  1-N ,  8-C ) :   1.0896 B(  1-N , 10-C ) :   0.9753 B(  2-C , 12-C ) :   1.5140 
B(  2-C , 16-C ) :   1.3501 B(  2-C , 53-H ) :   0.9759 B(  3-N , 14-C ) :   1.2169 
B(  3-N , 16-C ) :   1.1914 B(  3-N , 61-H ) :   0.8990 B(  4-C ,  6-C ) :   1.2183 
B(  4-C , 17-C ) :   1.2192 B(  4-C , 18-C ) :   1.4101 B(  5-N , 19-C ) :   1.4471 
B(  5-N , 27-C ) :   1.3832 B(  6-C ,  8-C ) :   1.6973 B(  6-C , 54-H ) :   0.9607 
B(  7-N , 30-C ) :   1.1955 B(  7-N , 38-C ) :   1.1930 B(  7-N , 62-H ) :   0.8972 
B(  8-C , 55-H ) :   0.9680 B(  9-N , 41-C ) :   1.3971 B(  9-N , 49-C ) :   1.4235 
B( 10-C , 56-H ) :   0.9769 B( 10-C , 57-H ) :   0.9821 B( 10-C , 58-H ) :   0.9842 
B( 11-N , 20-C ) :   1.1296 B( 11-N , 24-C ) :   1.1104 B( 11-N , 25-C ) :   0.9597 
B( 12-C , 14-C ) :   1.3509 B( 12-C , 59-H ) :   0.9743 B( 13-N , 31-C ) :   1.1514 
B( 13-N , 35-C ) :   1.1481 B( 13-N , 36-C ) :   0.9462 B( 14-C , 18-C ) :   1.1408 
B( 15-N , 42-C ) :   1.1092 B( 15-N , 46-C ) :   1.1214 B( 15-N , 47-C ) :   0.9617 
B( 16-C , 51-C ) :   1.1764 B( 17-C , 60-H ) :   0.9633 B( 18-C , 19-C ) :   1.1475 
B( 19-C , 21-C ) :   1.2390 B( 20-C , 28-C ) :   1.6273 B( 20-C , 63-H ) :   0.9703 
B( 21-C , 26-C ) :   1.6160 B( 21-C , 64-H ) :   0.9696 B( 22-C , 23-C ) :   1.2885 
B( 22-C , 28-C ) :   1.2663 B( 22-C , 29-C ) :   1.2238 B( 23-C , 24-C ) :   1.6195 
B( 23-C , 65-H ) :   0.9704 B( 24-C , 66-H ) :   0.9694 B( 25-C , 67-H ) :   0.9760 
B( 25-C , 68-H ) :   0.9828 B( 25-C , 69-H ) :   0.9823 B( 26-C , 27-C ) :   1.2349 
B( 26-C , 70-H ) :   0.9713 B( 27-C , 29-C ) :   1.2175 B( 28-C , 71-H ) :   0.9718 
B( 29-C , 30-C ) :   1.2349 B( 30-C , 32-C ) :   1.2891 B( 31-C , 39-C ) :   1.5993 
B( 31-C , 72-H ) :   0.9685 B( 32-C , 37-C ) :   1.5697 B( 32-C , 73-H ) :   0.9784 
B( 33-C , 34-C ) :   1.2990 B( 33-C , 39-C ) :   1.2943 B( 33-C , 40-C ) :   1.1949 
B( 34-C , 35-C ) :   1.5964 B( 34-C , 74-H ) :   0.9699 B( 35-C , 75-H ) :   0.9685 
B( 36-C , 76-H ) :   0.9766 B( 36-C , 77-H ) :   0.9817 B( 36-C , 78-H ) :   0.9825 
B( 37-C , 38-C ) :   1.2932 B( 37-C , 79-H ) :   0.9768 B( 38-C , 40-C ) :   1.2261 
B( 39-C , 80-H ) :   0.9708 B( 40-C , 41-C ) :   1.2431 B( 41-C , 43-C ) :   1.1917 
B( 42-C , 50-C ) :   1.6335 B( 42-C , 81-H ) :   0.9697 B( 43-C , 48-C ) :   1.6606 
B( 43-C , 82-H ) :   0.9726 B( 44-C , 45-C ) :   1.2650 B( 44-C , 50-C ) :   1.2708 
B( 44-C , 51-C ) :   1.2596 B( 45-C , 46-C ) :   1.6346 B( 45-C , 83-H ) :   0.9717 
B( 46-C , 84-H ) :   0.9700 B( 47-C , 85-H ) :   0.9762 B( 47-C , 86-H ) :   0.9829 
B( 47-C , 87-H ) :   0.9825 B( 48-C , 49-C ) :   1.1946 B( 48-C , 88-H ) :   0.9746 
B( 49-C , 51-C ) :   1.2370 B( 50-C , 89-H ) :   0.9711 

-------
TIMINGS
-------

Total SCF time: 0 days 0 hours 29 min 49 sec 

Total time                  ....    1789.339 sec
Sum of individual times     ....    1784.689 sec  ( 99.7%)

Fock matrix formation       ....    1761.338 sec  ( 98.4%)
Diagonalization             ....       6.914 sec  (  0.4%)
Density matrix formation    ....       0.689 sec  (  0.0%)
Population analysis         ....       0.526 sec  (  0.0%)
Initial guess               ....       2.075 sec  (  0.1%)
Orbital Transformation      ....       0.000 sec  (  0.0%)
Orbital Orthonormalization  ....       0.000 sec  (  0.0%)
DIIS solution               ....       3.551 sec  (  0.2%)
SOSCF solution              ....       8.536 sec  (  0.5%)

Maximum memory used throughout the entire SCF-calculation: 302.6 MB


           ************************************************************
           *        Program running with 16 parallel MPI-processes    *
           *              working on a common directory               *
           ************************************************************

------------------------------------------------------------------------------
                                ORCA  MP2 
------------------------------------------------------------------------------

Freezing NCore=104 chemical core electrons

----------
MP2 ENERGY (disk based algorithm)
----------

Dimension of the basis                    ...  918
Memory devoted to MP2                     ... 2000 MB   
Data format for buffers                   ... DOUBLE
Compression type for matrix containers    ... UNCOMPRESSED

-------------------------------
PARTIAL EXCHANGE TRANSFORMATION
-------------------------------

Transformation type                        ... one-operator
Generation of integrals (i,mue|j,nue)      ... ON
Generation of integrals (mue,kappa|nue,tau)... OFF
Generation of integrals (i,mue|a,nue)      ... OFF
Dimension of the basis                     ...  918
Number of internal MOs                     ...  127 (  52- 178)
Pair cutoff                                ... 2.500e-12 Eh
Number of AO pairs in the trafo            ... 421821
Total Number of distinct AO pairs          ... 421821
Memory devoted for trafo                   ... 2000.0 MB 
Max. Number of MO pairs treated together   ...  311      
Number Format for Storage                  ... Double (8 Byte)
Integral package used                      ... LIBINT

Starting integral evaluation:
    ... done with AO integral generation
Closing buffer AOK     (38.23 GB; CompressionRatio= 1.33)
Collecting buffer AOK 
Number of MO pairs included in the trafo   ... 8128
------------------------
SORTING OF (i,mue|j,nue)
------------------------

IBATCH = 1 of  2
IBATCH = 2 of  2
Closing buffer KAO     (51.03 GB; CompressionRatio= 1.00)
Collecting buffer KAO 
N(AO-Batches) Done                         ...  85784631 
N(AO-Batches) Skipped                      ...  82487391 
N(IJ)-pairs Skipped                        ...         0 
TOTAL TIME for half transformation         ...  3336.702 sec
AO-integral generation                     ...   211.858 sec
Half transformation                        ...   375.372 sec
K-integral sorting                         ...  2567.721 sec
Process 13:   Internal MO 156
Process  4:   Internal MO  84
Process 10:   Internal MO 132

Finished integral transformation - now doing MP2 part

OPERATOR COMBINATION   0   0: ij=( 52..178, 52..178)
Process  1:   Internal MO  60
Process  7:   Internal MO 108
Process  0:   Internal MO  54
Process  2:   Internal MO  69
Process  0:   Internal MO  57
Process  1:   Internal MO  63
Process  5:   Internal MO  93
Process  3:   Internal MO  78
Process  8:   Internal MO 117
Process  1:   Internal MO  66
Process  2:   Internal MO  72
Process 11:   Internal MO 141
Process  6:   Internal MO 102
Process  4:   Internal MO  87
Process 14:   Internal MO 165
Process  3:   Internal MO  81
Process  2:   Internal MO  75
Process  9:   Internal MO 126
Process  5:   Internal MO  96
Process  7:   Internal MO 111
Process 12:   Internal MO 150
Process  4:   Internal MO  90
Process 10:   Internal MO 135
Process 15:   Internal MO 174
Process  6:   Internal MO 105
Process  8:   Internal MO 120
Process 13:   Internal MO 159
Process  5:   Internal MO  99
Process  7:   Internal MO 114
Process  9:   Internal MO 129
Process 11:   Internal MO 144
Process  8:   Internal MO 123
Process 14:   Internal MO 168
Process 10:   Internal MO 138
Process 12:   Internal MO 153
Process 15:   Internal MO 177
Process 13:   Internal MO 162
Process 11:   Internal MO 147
Process 14:   Internal MO 171
-----------------------------------------------
 MP2 CORRELATION ENERGY   :     -7.284097928 Eh
-----------------------------------------------


-------
TIMINGS
-------
Total time                : 3872.830 sec
Integral trafo            : 3338.787 sec ( 86.2%)
K(i,j)                    :    7.562 sec (  0.2%)
T(i,j)                    :    0.141 sec (  0.0%)

---------------------------------------
MP2 TOTAL ENERGY:    -2130.898510380 Eh
---------------------------------------

Maximum memory used throughout the entire MP2-calculation: 2275.3 MB

-------------------------   --------------------
FINAL SINGLE POINT ENERGY     -2130.898510379879
-------------------------   --------------------


                            ***************************************
                            *     ORCA property calculations      *
                            ***************************************


  WARNING: The energy has been calculated at the MP2 level but the densities
           used in the property calculations are still SCF densities
           MP2 response densities have not been calculated 
           use %mp2 Density relaxed end
           or  %mp2 Density unrelaxed end

                                    ---------------------
                                    Active property flags
                                    ---------------------
   (+) Dipole Moment


------------------------------------------------------------------------------
                       ORCA ELECTRIC PROPERTIES CALCULATION
------------------------------------------------------------------------------

Dipole Moment Calculation                       ... on
Quadrupole Moment Calculation                   ... off
Polarizability Calculation                      ... off
GBWName                                         ... /scratch/allen/tmpyp4_amber_gaff2/conf1/conf1/Conf38.orca.gbw
Electron density                                ... /scratch/allen/tmpyp4_amber_gaff2/conf1/conf1/Conf38.orca.scfp
The origin for moment calculation is the CENTER OF MASS  = (-0.000380, -0.004370  0.003492)

-------------
DIPOLE MOMENT
-------------
                                X             Y             Z
Electronic contribution:      2.06507      -3.38744      -0.12016
Nuclear contribution   :     -0.05092       0.15083       0.14434
                        -----------------------------------------
Total Dipole Moment    :      2.01415      -3.23660       0.02418
                        -----------------------------------------
Magnitude (a.u.)       :      3.81221
Magnitude (Debye)      :      9.68988



--------------------
Rotational spectrum 
--------------------
 
Rotational constants in cm-1:     0.001501     0.001476     0.000761 
Rotational constants in MHz :    45.006504    44.253726    22.810111 

 Dipole components along the rotational axes: 
x,y,z [a.u.] :     2.745995     2.644191     0.027133 
x,y,z [Debye]:     6.979765     6.720999     0.068966 

 

Timings for individual modules:

Sum of individual times         ...     5690.481 sec (=  94.841 min)
GTO integral calculation        ...        3.321 sec (=   0.055 min)   0.1 %
SCF iterations                  ...     1790.424 sec (=  29.840 min)  31.5 %
MP2 module                      ...     3896.736 sec (=  64.946 min)  68.5 %
                             ****ORCA TERMINATED NORMALLY****
TOTAL RUN TIME: 0 days 1 hours 34 minutes 53 seconds 830 msec
# of primitive gaussian functions

