
                                 *****************
                                 * O   R   C   A *
                                 *****************

                                            #,                                       
                                            ###                                      
                                            ####                                     
                                            #####                                    
                                            ######                                   
                                           ########,                                 
                                     ,,################,,,,,                         
                               ,,#################################,,                 
                          ,,##########################################,,             
                       ,#########################################, ''#####,          
                    ,#############################################,,   '####,        
                  ,##################################################,,,,####,       
                ,###########''''           ''''###############################       
              ,#####''   ,,,,##########,,,,          '''####'''          '####       
            ,##' ,,,,###########################,,,                        '##       
           ' ,,###''''                  '''############,,,                           
         ,,##''                                '''############,,,,        ,,,,,,###''
      ,#''                                            '''#######################'''  
     '                                                          ''''####''''         
             ,#######,   #######,   ,#######,      ##                                
            ,#'     '#,  ##    ##  ,#'     '#,    #''#        ######   ,####,        
            ##       ##  ##   ,#'  ##            #'  '#       #        #'  '#        
            ##       ##  #######   ##           ,######,      #####,   #    #        
            '#,     ,#'  ##    ##  '#,     ,#' ,#      #,         ##   #,  ,#        
             '#######'   ##     ##  '#######'  #'      '#     #####' # '####'        



                  #######################################################
                  #                        -***-                        #
                  #          Department of theory and spectroscopy      #
                  #    Directorship and core code : Frank Neese         #
                  #        Max Planck Institute fuer Kohlenforschung    #
                  #                Kaiser Wilhelm Platz 1               #
                  #                 D-45470 Muelheim/Ruhr               #
                  #                      Germany                        #
                  #                                                     #
                  #                  All rights reserved                #
                  #                        -***-                        #
                  #######################################################


                         Program Version 5.0.4 -  RELEASE  -


 With contributions from (in alphabetic order):
   Daniel Aravena         : Magnetic Suceptibility
   Michael Atanasov       : Ab Initio Ligand Field Theory (pilot matlab implementation)
   Alexander A. Auer      : GIAO ZORA, VPT2 properties, NMR spectrum
   Ute Becker             : Parallelization
   Giovanni Bistoni       : ED, misc. LED, open-shell LED, HFLD
   Martin Brehm           : Molecular dynamics
   Dmytro Bykov           : SCF Hessian
   Vijay G. Chilkuri      : MRCI spin determinant printing, contributions to CSF-ICE
   Dipayan Datta          : RHF DLPNO-CCSD density
   Achintya Kumar Dutta   : EOM-CC, STEOM-CC
   Dmitry Ganyushin       : Spin-Orbit,Spin-Spin,Magnetic field MRCI
   Miquel Garcia          : C-PCM and meta-GGA Hessian, CC/C-PCM, Gaussian charge scheme
   Yang Guo               : DLPNO-NEVPT2, F12-NEVPT2, CIM, IAO-localization
   Andreas Hansen         : Spin unrestricted coupled pair/coupled cluster methods
   Benjamin Helmich-Paris : MC-RPA, TRAH-SCF, COSX integrals
   Lee Huntington         : MR-EOM, pCC
   Robert Izsak           : Overlap fitted RIJCOSX, COSX-SCS-MP3, EOM
   Marcus Kettner         : VPT2
   Christian Kollmar      : KDIIS, OOCD, Brueckner-CCSD(T), CCSD density, CASPT2, CASPT2-K
   Simone Kossmann        : Meta GGA functionals, TD-DFT gradient, OOMP2, MP2 Hessian
   Martin Krupicka        : Initial AUTO-CI
   Lucas Lang             : DCDCAS
   Marvin Lechner         : AUTO-CI (C++ implementation), FIC-MRCC
   Dagmar Lenk            : GEPOL surface, SMD
   Dimitrios Liakos       : Extrapolation schemes; Compound Job, initial MDCI parallelization
   Dimitrios Manganas     : Further ROCIS development; embedding schemes
   Dimitrios Pantazis     : SARC Basis sets
   Anastasios Papadopoulos: AUTO-CI, single reference methods and gradients
   Taras Petrenko         : DFT Hessian,TD-DFT gradient, ASA, ECA, R-Raman, ABS, FL, XAS/XES, NRVS
   Peter Pinski           : DLPNO-MP2, DLPNO-MP2 Gradient
   Christoph Reimann      : Effective Core Potentials
   Marius Retegan         : Local ZFS, SOC
   Christoph Riplinger    : Optimizer, TS searches, QM/MM, DLPNO-CCSD(T), (RO)-DLPNO pert. Triples
   Tobias Risthaus        : Range-separated hybrids, TD-DFT gradient, RPA, STAB
   Michael Roemelt        : Original ROCIS implementation
   Masaaki Saitow         : Open-shell DLPNO-CCSD energy and density
   Barbara Sandhoefer     : DKH picture change effects
   Avijit Sen             : IP-ROCIS
   Kantharuban Sivalingam : CASSCF convergence, NEVPT2, FIC-MRCI
   Bernardo de Souza      : ESD, SOC TD-DFT
   Georgi Stoychev        : AutoAux, RI-MP2 NMR, DLPNO-MP2 response
   Willem Van den Heuvel  : Paramagnetic NMR
   Boris Wezisla          : Elementary symmetry handling
   Frank Wennmohs         : Technical directorship


 We gratefully acknowledge several colleagues who have allowed us to
 interface, adapt or use parts of their codes:
   Stefan Grimme, W. Hujo, H. Kruse, P. Pracht,  : VdW corrections, initial TS optimization,
                  C. Bannwarth, S. Ehlert          DFT functionals, gCP, sTDA/sTD-DF
   Ed Valeev, F. Pavosevic, A. Kumar             : LibInt (2-el integral package), F12 methods
   Garnet Chan, S. Sharma, J. Yang, R. Olivares  : DMRG
   Ulf Ekstrom                                   : XCFun DFT Library
   Mihaly Kallay                                 : mrcc  (arbitrary order and MRCC methods)
   Jiri Pittner, Ondrej Demel                    : Mk-CCSD
   Frank Weinhold                                : gennbo (NPA and NBO analysis)
   Christopher J. Cramer and Donald G. Truhlar   : smd solvation model
   Lars Goerigk                                  : TD-DFT with DH, B97 family of functionals
   V. Asgeirsson, H. Jonsson                     : NEB implementation
   FAccTs GmbH                                   : IRC, NEB, NEB-TS, DLPNO-Multilevel, CI-OPT
                                                   MM, QMMM, 2- and 3-layer-ONIOM, Crystal-QMMM,
                                                   LR-CPCM, SF, NACMEs, symmetry and pop. for TD-DFT,
                                                   nearIR, NL-DFT gradient (VV10), updates on ESD,
                                                   ML-optimized integration grids
   S Lehtola, MJT Oliveira, MAL Marques          : LibXC Library
   Liviu Ungur et al                             : ANISO software


 Your calculation uses the libint2 library for the computation of 2-el integrals
 For citations please refer to: http://libint.valeyev.net

 Your ORCA version has been built with support for libXC version: 5.1.0
 For citations please refer to: https://tddft.org/programs/libxc/

 This ORCA versions uses:
   CBLAS   interface :  Fast vector & matrix operations
   LAPACKE interface :  Fast linear algebra routines
   SCALAPACK package :  Parallel linear algebra routines
   Shared memory     :  Shared parallel matrices
   BLAS/LAPACK       :  OpenBLAS 0.3.15  USE64BITINT DYNAMIC_ARCH NO_AFFINITY Sandybridge SINGLE_THREADED
        Core in use  :  Sandybridge
   Copyright (c) 2011-2014, The OpenBLAS Project


================================================================================

----- Orbital basis set information -----
Your calculation utilizes the basis: cc-pVDZ 
       H, B-Ne : Obtained from the ccRepo (grant-hill.group.shef.ac.uk/ccrepo) Feb. 2017
                 T. H. Dunning, Jr., J. Chem. Phys. 90, 1007 (1989)
            He : Obtained from the ccRepo (grant-hill.group.shef.ac.uk/ccrepo) Feb. 2017
                 D. E. Woon, T. H. Dunning, Jr., J. Chem. Phys. 100, 2975 (1994)
  Li-Be, Na-Mg : Obtained from the ccRepo (grant-hill.group.shef.ac.uk/ccrepo) Feb. 2017
                 B. P. Prascher, D. E. Woon, K. A. Peterson, T. H. Dunning, Jr., A. K. Wilson, Theor. Chem. Acc. 128, 69 (2011)
         Al-Ar : Obtained from the ccRepo (grant-hill.group.shef.ac.uk/ccrepo) Feb. 2017
                 D. E. Woon, T. H. Dunning, Jr., J. Chem. Phys. 98, 1358 (1993)
            Ca : Obtained from the Peterson Research Group Website (tyr0.chem.wsu.edu/~kipeters) Feb. 2017
                 J. Koput, K. A. Peterson, J. Phys. Chem. 106, 9595 (2002)
         Sc-Zn : Obtained from the ccRepo (grant-hill.group.shef.ac.uk/ccrepo) Feb. 2017
                 N. B. Balabanov, K. A. Peterson, J. Chem. Phys. 123, 064107 (2005)
                 N. B. Balabanov, K. A. Peterson, J. Chem. Phys. 125, 074110 (2006)
         Ga-Kr : Obtained from the ccRepo (grant-hill.group.shef.ac.uk/ccrepo) Feb. 2017
                 A. K. Wilson, D. E. Woon, K. A. Peterson, T. H. Dunning, Jr., J. Chem. Phys. 110, 7667 (1999)

================================================================================
                                        WARNINGS
                       Please study these warnings very carefully!
================================================================================


WARNING: No MP2 level density has been requested!
         To caclulate MP2 level properties use
         %mp2 Density relaxed end
         or
         %mp2 Density unrelaxed end

WARNING: Post HF methods need fully converged wavefunctions
  ===> : Setting SCFConvForced true
         You can overwrite this default with %scf ConvForced false 


INFO   : the flag for use of the SHARK integral package has been found!

================================================================================
                                       INPUT FILE
================================================================================
NAME = /scratch/allen/tmpyp4_amber_gaff2/2.Mdgx/conf11/conf11/Conf213.orca
|  1> ! PAL2
|  2> ! mp2 cc-pvdz TightSCF  NoKeepInts
|  3> 
|  4> %scf
|  5>   MaxCore 2000
|  6> end
|  7> %mp2
|  8>   MaxCore 2000
|  9> end
| 10> * xyz 0 1
| 11>    C       -4.81800         5.26400         0.67300
| 12>    C        1.47400         4.04100         0.05700
| 13>    C       -2.80200         4.09300         0.04900
| 14>    C       -2.36400         5.27800        -0.56200
| 15>    C       -3.15800         6.40700        -0.53400
| 16>    C       -5.17700         7.62600         0.12000
| 17>    C        0.13200         4.30700         0.06100
| 18>    C       -0.56900         3.05600         0.04700
| 19>    C        1.64900         2.61800         0.02300
| 20>    C       -4.05700         4.11000         0.67600
| 21>    N       -4.36700         6.38900         0.07400
| 22>    N        0.38800         2.06700         0.02500
| 23>    N       -2.01000         0.39500        -0.07500
| 24>    N       -0.38800        -2.07400        -0.02700
| 25>    N        2.01000        -0.40100         0.06500
| 26>    C       -1.96000         2.86100         0.02400
| 27>    C       -2.62300         1.61500        -0.01800
| 28>    C       -5.57300        -4.32900         1.06600
| 29>    C       -4.07300         1.47100         0.05600
| 30>    C       -4.10600        -2.75600        -0.02600
| 31>    C       -4.99500        -2.75700        -1.11100
| 32>    C       -6.13200        -3.54200        -1.07600
| 33>    C       -7.65100        -5.11300         0.04000
| 34>    C       -4.32400         0.14100         0.03700
| 35>    C       -3.02500        -0.52000        -0.04800
| 36>    C       -4.42200        -3.56600         1.07500
| 37>    N       -6.40700        -4.31300         0.00100
| 38>    C       -2.86700        -1.92200        -0.04000
| 39>    C       -1.65000        -2.62400        -0.02700
| 40>    C        3.56800        -6.14200        -1.04000
| 41>    C       -1.47600        -4.04900        -0.03400
| 42>    C        2.80300        -4.09900        -0.00800
| 43>    C        3.65700        -4.38400         1.06900
| 44>    C        4.42700        -5.53000         1.05900
| 45>    C        5.24500        -7.58800         0.01400
| 46>    C       -0.13400        -4.31500        -0.02200
| 47>    C        0.56800        -3.06400        -0.02700
| 48>    C        2.77500        -5.01200        -1.07400
| 49>    N        4.37600        -6.39100         0.01700
| 50>    C        1.95900        -2.86900        -0.00900
| 51>    C        2.62100        -1.62200         0.00900
| 52>    C        5.54300         4.33900        -1.13000
| 53>    C        4.07000        -1.47900        -0.09400
| 54>    C        4.10400         2.75100        -0.02100
| 55>    C        5.02700         2.72900         1.03600
| 56>    C        6.16600         3.50900         0.97800
| 57>    C        7.61900         5.15300        -0.11500
| 58>    C        4.32100        -0.14800        -0.09200
| 59>    C        3.02500         0.51400         0.01500
| 60>    C        4.38700         3.58200        -1.11500
| 61>    C        2.86600         1.91600         0.01300
| 62>    N        6.41300         4.29600        -0.09500
| 63>    H       -5.79700         5.31900         1.13400
| 64>    H        2.27400         4.76600         0.08100
| 65>    H       -1.40100         5.33000        -1.05400
| 66>    H       -2.86000         7.34500        -0.98400
| 67>    H       -4.86900         8.22200         0.98200
| 68>    H       -5.01500         8.18700        -0.80100
| 69>    H       -6.22900         7.35300         0.21000
| 70>    H       -0.33200         5.28200         0.06900
| 71>    H       -4.45700         3.22300         1.15400
| 72>    H        0.18200         1.07200         0.00500
| 73>    H       -0.18300        -1.08000        -0.02100
| 74>    H       -5.86400        -4.96200         1.89500
| 75>    H       -4.79400         2.27200         0.13900
| 76>    H       -4.80000        -2.16000        -1.99400
| 77>    H       -6.84100        -3.58200        -1.89300
| 78>    H       -8.42800        -4.53600         0.54600
| 79>    H       -7.95600        -5.33700        -0.98100
| 80>    H       -7.45600        -6.03700         0.58400
| 81>    H       -5.28700        -0.34400         0.10000
| 82>    H       -3.78000        -3.60100         1.94700
| 83>    H        3.58700        -6.86800        -1.84300
| 84>    H       -2.27600        -4.77400        -0.05000
| 85>    H        3.71400        -3.72400         1.92600
| 86>    H        5.09200        -5.79500         1.87100
| 87>    H        6.20500        -7.32900        -0.43900
| 88>    H        5.39300        -7.91700         1.04200
| 89>    H        4.75900        -8.37300        -0.56400
| 90>    H        0.32900        -5.29000        -0.00800
| 91>    H        2.14600        -4.84200        -1.94000
| 92>    H        5.80800         4.98600        -1.95600
| 93>    H        4.78800        -2.28100        -0.18500
| 94>    H        4.86000         2.11400         1.91200
| 95>    H        6.90100         3.53100         1.77200
| 96>    H        7.38300         6.10900         0.35600
| 97>    H        8.41400         4.65200         0.43500
| 98>    H        7.92100         5.31000        -1.15000
| 99>    H        5.28300         0.33600        -0.17900
|100>    H        3.72000         3.63200        -1.96700
|101> *
|102> 
|103>                          ****END OF INPUT****
================================================================================

                       ****************************
                       * Single Point Calculation *
                       ****************************

---------------------------------
CARTESIAN COORDINATES (ANGSTROEM)
---------------------------------
  C     -4.818000    5.264000    0.673000
  C      1.474000    4.041000    0.057000
  C     -2.802000    4.093000    0.049000
  C     -2.364000    5.278000   -0.562000
  C     -3.158000    6.407000   -0.534000
  C     -5.177000    7.626000    0.120000
  C      0.132000    4.307000    0.061000
  C     -0.569000    3.056000    0.047000
  C      1.649000    2.618000    0.023000
  C     -4.057000    4.110000    0.676000
  N     -4.367000    6.389000    0.074000
  N      0.388000    2.067000    0.025000
  N     -2.010000    0.395000   -0.075000
  N     -0.388000   -2.074000   -0.027000
  N      2.010000   -0.401000    0.065000
  C     -1.960000    2.861000    0.024000
  C     -2.623000    1.615000   -0.018000
  C     -5.573000   -4.329000    1.066000
  C     -4.073000    1.471000    0.056000
  C     -4.106000   -2.756000   -0.026000
  C     -4.995000   -2.757000   -1.111000
  C     -6.132000   -3.542000   -1.076000
  C     -7.651000   -5.113000    0.040000
  C     -4.324000    0.141000    0.037000
  C     -3.025000   -0.520000   -0.048000
  C     -4.422000   -3.566000    1.075000
  N     -6.407000   -4.313000    0.001000
  C     -2.867000   -1.922000   -0.040000
  C     -1.650000   -2.624000   -0.027000
  C      3.568000   -6.142000   -1.040000
  C     -1.476000   -4.049000   -0.034000
  C      2.803000   -4.099000   -0.008000
  C      3.657000   -4.384000    1.069000
  C      4.427000   -5.530000    1.059000
  C      5.245000   -7.588000    0.014000
  C     -0.134000   -4.315000   -0.022000
  C      0.568000   -3.064000   -0.027000
  C      2.775000   -5.012000   -1.074000
  N      4.376000   -6.391000    0.017000
  C      1.959000   -2.869000   -0.009000
  C      2.621000   -1.622000    0.009000
  C      5.543000    4.339000   -1.130000
  C      4.070000   -1.479000   -0.094000
  C      4.104000    2.751000   -0.021000
  C      5.027000    2.729000    1.036000
  C      6.166000    3.509000    0.978000
  C      7.619000    5.153000   -0.115000
  C      4.321000   -0.148000   -0.092000
  C      3.025000    0.514000    0.015000
  C      4.387000    3.582000   -1.115000
  C      2.866000    1.916000    0.013000
  N      6.413000    4.296000   -0.095000
  H     -5.797000    5.319000    1.134000
  H      2.274000    4.766000    0.081000
  H     -1.401000    5.330000   -1.054000
  H     -2.860000    7.345000   -0.984000
  H     -4.869000    8.222000    0.982000
  H     -5.015000    8.187000   -0.801000
  H     -6.229000    7.353000    0.210000
  H     -0.332000    5.282000    0.069000
  H     -4.457000    3.223000    1.154000
  H      0.182000    1.072000    0.005000
  H     -0.183000   -1.080000   -0.021000
  H     -5.864000   -4.962000    1.895000
  H     -4.794000    2.272000    0.139000
  H     -4.800000   -2.160000   -1.994000
  H     -6.841000   -3.582000   -1.893000
  H     -8.428000   -4.536000    0.546000
  H     -7.956000   -5.337000   -0.981000
  H     -7.456000   -6.037000    0.584000
  H     -5.287000   -0.344000    0.100000
  H     -3.780000   -3.601000    1.947000
  H      3.587000   -6.868000   -1.843000
  H     -2.276000   -4.774000   -0.050000
  H      3.714000   -3.724000    1.926000
  H      5.092000   -5.795000    1.871000
  H      6.205000   -7.329000   -0.439000
  H      5.393000   -7.917000    1.042000
  H      4.759000   -8.373000   -0.564000
  H      0.329000   -5.290000   -0.008000
  H      2.146000   -4.842000   -1.940000
  H      5.808000    4.986000   -1.956000
  H      4.788000   -2.281000   -0.185000
  H      4.860000    2.114000    1.912000
  H      6.901000    3.531000    1.772000
  H      7.383000    6.109000    0.356000
  H      8.414000    4.652000    0.435000
  H      7.921000    5.310000   -1.150000
  H      5.283000    0.336000   -0.179000
  H      3.720000    3.632000   -1.967000

----------------------------
CARTESIAN COORDINATES (A.U.)
----------------------------
  NO LB      ZA    FRAG     MASS         X           Y           Z
   0 C     6.0000    0    12.011   -9.104701    9.947518    1.271786
   1 C     6.0000    0    12.011    2.785456    7.636383    0.107714
   2 C     6.0000    0    12.011   -5.295013    7.734649    0.092597
   3 C     6.0000    0    12.011   -4.467313    9.973975   -1.062026
   4 C     6.0000    0    12.011   -5.967755   12.107475   -1.009114
   5 C     6.0000    0    12.011   -9.783112   14.411051    0.226767
   6 C     6.0000    0    12.011    0.249444    8.139050    0.115273
   7 C     6.0000    0    12.011   -1.075254    5.775003    0.088817
   8 C     6.0000    0    12.011    3.116158    4.947303    0.043464
   9 C     6.0000    0    12.011   -7.666619    7.766774    1.277455
  10 N     7.0000    0    14.007   -8.252434   12.073460    0.139840
  11 N     7.0000    0    14.007    0.733214    3.906064    0.047243
  12 N     7.0000    0    14.007   -3.798350    0.746442   -0.141729
  13 N     7.0000    0    14.007   -0.733214   -3.919292   -0.051023
  14 N     7.0000    0    14.007    3.798350   -0.757780    0.122832
  15 C     6.0000    0    12.011   -3.703863    5.406506    0.045353
  16 C     6.0000    0    12.011   -4.956752    3.051908   -0.034015
  17 C     6.0000    0    12.011  -10.531444   -8.180624    2.014448
  18 C     6.0000    0    12.011   -7.696855    2.779787    0.105825
  19 C     6.0000    0    12.011   -7.759216   -5.208085   -0.049133
  20 C     6.0000    0    12.011   -9.439182   -5.209975   -2.099486
  21 C     6.0000    0    12.011  -11.587801   -6.693410   -2.033345
  22 C     6.0000    0    12.011  -14.458295   -9.662170    0.075589
  23 C     6.0000    0    12.011   -8.171176    0.266451    0.069920
  24 C     6.0000    0    12.011   -5.716422   -0.982658   -0.090707
  25 C     6.0000    0    12.011   -8.356369   -6.738763    2.031456
  26 N     7.0000    0    14.007  -12.107475   -8.150389    0.001890
  27 C     6.0000    0    12.011   -5.417845   -3.632054   -0.075589
  28 C     6.0000    0    12.011   -3.118048   -4.958641   -0.051023
  29 C     6.0000    0    12.011    6.742543  -11.606698   -1.965315
  30 C     6.0000    0    12.011   -2.789236   -7.651501   -0.064251
  31 C     6.0000    0    12.011    5.296902   -7.745987   -0.015118
  32 C     6.0000    0    12.011    6.910728   -8.284559    2.020117
  33 C     6.0000    0    12.011    8.365818  -10.450186    2.001220
  34 C     6.0000    0    12.011    9.911614  -14.339242    0.026456
  35 C     6.0000    0    12.011   -0.253223   -8.154168   -0.041574
  36 C     6.0000    0    12.011    1.073364   -5.790121   -0.051023
  37 C     6.0000    0    12.011    5.243990   -9.471307   -2.029566
  38 N     7.0000    0    14.007    8.269442  -12.077240    0.032125
  39 C     6.0000    0    12.011    3.701973   -5.421624   -0.017008
  40 C     6.0000    0    12.011    4.952972   -3.065136    0.017008
  41 C     6.0000    0    12.011   10.474752    8.199522   -2.135391
  42 C     6.0000    0    12.011    7.691185   -2.794905   -0.177634
  43 C     6.0000    0    12.011    7.755436    5.198637   -0.039684
  44 C     6.0000    0    12.011    9.499653    5.157063    1.957756
  45 C     6.0000    0    12.011   11.652051    6.631049    1.848152
  46 C     6.0000    0    12.011   14.397823    9.737759   -0.217319
  47 C     6.0000    0    12.011    8.165507   -0.279679   -0.173855
  48 C     6.0000    0    12.011    5.716422    0.971319    0.028346
  49 C     6.0000    0    12.011    8.290229    6.768999   -2.107045
  50 C     6.0000    0    12.011    5.415955    3.620715    0.024566
  51 N     7.0000    0    14.007   12.118814    8.118263   -0.179524
  52 H     1.0000    0     1.008  -10.954742   10.051453    2.142949
  53 H     1.0000    0     1.008    4.297237    9.006435    0.153068
  54 H     1.0000    0     1.008   -2.647506   10.072240   -1.991771
  55 H     1.0000    0     1.008   -5.404617   13.880038   -1.859491
  56 H     1.0000    0     1.008   -9.201077   15.537328    1.855711
  57 H     1.0000    0     1.008   -9.476977   15.471188   -1.513671
  58 H     1.0000    0     1.008  -11.771104   13.895156    0.396842
  59 H     1.0000    0     1.008   -0.627389    9.981533    0.130391
  60 H     1.0000    0     1.008   -8.422509    6.090587    2.180744
  61 H     1.0000    0     1.008    0.343930    2.025786    0.009449
  62 H     1.0000    0     1.008   -0.345820   -2.040904   -0.039684
  63 H     1.0000    0     1.008  -11.081354   -9.376821    3.581031
  64 H     1.0000    0     1.008   -9.059347    4.293458    0.262672
  65 H     1.0000    0     1.008   -9.070685   -4.081808   -3.768114
  66 H     1.0000    0     1.008  -12.927616   -6.768999   -3.577252
  67 H     1.0000    0     1.008  -15.926612   -8.571798    1.031790
  68 H     1.0000    0     1.008  -15.034661  -10.085468   -1.853821
  69 H     1.0000    0     1.008  -14.089798  -11.408277    1.103600
  70 H     1.0000    0     1.008   -9.990982   -0.650066    0.188973
  71 H     1.0000    0     1.008   -7.143165   -6.804904    3.679297
  72 H     1.0000    0     1.008    6.778448  -12.978639   -3.482765
  73 H     1.0000    0     1.008   -4.301017   -9.021553   -0.094486
  74 H     1.0000    0     1.008    7.018443   -7.037340    3.639613
  75 H     1.0000    0     1.008    9.622485  -10.950963    3.535678
  76 H     1.0000    0     1.008   11.725751  -13.849803   -0.829590
  77 H     1.0000    0     1.008   10.191293  -14.960962    1.969095
  78 H     1.0000    0     1.008    8.993207  -15.822677   -1.065806
  79 H     1.0000    0     1.008    0.621720   -9.996651   -0.015118
  80 H     1.0000    0     1.008    4.055352   -9.150054   -3.666069
  81 H     1.0000    0     1.008   10.975529    9.422175   -3.696304
  82 H     1.0000    0     1.008    9.048009   -4.310465   -0.349599
  83 H     1.0000    0     1.008    9.184069    3.994881    3.613156
  84 H     1.0000    0     1.008   13.041000    6.672623    3.348595
  85 H     1.0000    0     1.008   13.951848   11.544337    0.672743
  86 H     1.0000    0     1.008   15.900156    8.791006    0.822031
  87 H     1.0000    0     1.008   14.968521   10.034446   -2.173185
  88 H     1.0000    0     1.008    9.983423    0.634948   -0.338261
  89 H     1.0000    0     1.008    7.029781    6.863485   -3.717091

--------------------------------
INTERNAL COORDINATES (ANGSTROEM)
--------------------------------
 C      0   0   0     0.000000000000     0.00000000     0.00000000
 C      1   0   0     6.439289479438     0.00000000     0.00000000
 C      1   2   0     2.413477366788    21.07864719     0.00000000
 C      3   1   2     1.403349564435    87.91265358   307.78904305
 C      4   3   1     1.380529246340   120.14703403     0.11557426
 C      5   4   3     2.447455413281   152.52318907     1.67929916
 C      2   1   3     1.368114030335     5.32614418    64.06098139
 C      7   2   4     1.434084376876   108.05010202   125.88502624
 C      2   1   3     1.434123425651   108.05665198   331.41957911
 C      1   2   7     1.382333534282    45.87117439    97.80553535
 N      1   2   7     1.351971523369    77.86016929   298.04183457
 N      9   2   1     1.376127174356   106.58526707     4.83974187
 N     12   9   2     2.925062050624   168.53581413   171.12065651
 N     13  12   9     2.954513327098    91.55032014    11.12112580
 N     14  13  12     2.925371258490    88.43092389   359.84326247
 C      8   7   2     1.404790019896   127.24786865   181.11170171
 C     13  12   9     1.366535034311    81.72106996   188.00453233
 C     14  13  12     5.758810554272    80.56209567   166.76250791
 C     17  13  12     1.459010623676   111.08861209   183.82872609
 C     18  14  13     2.412235892279    27.27532823    36.33507194
 C     20  18  14     1.402692767501    87.95206320   148.94598259
 C     21  20  18     1.382106725257   120.14573887   359.70382047
 C     18  14  13     2.446510985056   144.15733107    82.80075377
 C     19  17  13     1.353610726908   106.29293361   359.75308708
 C     13  12   9     1.366813447402   172.21332906    33.46711076
 C     18  14  13     1.380960173213    15.08449437   309.23336894
 N     22  21  20     1.352773077792   120.73759875     0.27865223
 C     25  13  17     1.410897586645   125.60330303   182.37774668
 C     14  13  12     1.376642291955    80.24689249   177.85461986
 C     14  13  12     5.764089607215   164.51507311   312.20821879
 C     29  14  13     1.435600919476   106.58649366   178.76395472
 C     30  14  13     2.413316804732    27.10625047    82.12560436
 C     32  30  14     1.403734305344    87.90059683   149.76154742
 C     33  32  30     1.380694028378   120.14881443   359.74174632
 C     34  33  32     2.448777858443   152.49203239     2.45173620
 C     31  29  14     1.368160809262   108.16950133     0.70383075
 C     14  13  12     1.376239804685   169.26375223   353.09862627
 C     30  14  13     1.380907310430    14.68948582   353.70041132
 N     34  33  32     1.352658863128   120.85575621     0.19603406
 C     37  14  29     1.404717053360   126.01551127   180.90772073
 C     15  14  13     1.366491126938    81.61824056   183.09049352
 C      2   1   3     4.249062720177   161.64477861   114.79925765
 C     41  15  14     1.459677704153   111.05201287   175.08990246
 C     42   2   1     2.412953791518    41.78584867   190.96359965
 C     44  42   2     1.403446472082    87.95153797   233.97558675
 C     45  44  42     1.381696421071   120.11137308     0.19721020
 C     42   2   1     2.450019795838   135.97209175   101.27844875
 C     43  41  15     1.354461516618   106.26758155     0.30894352
 C     15  14  13     1.367461151185   171.87382904   332.35056460
 C     42   2   1     1.381886391857    32.59078432   239.81887884
 C      9   2   1     1.404988612053   126.98745415   185.84407940
 N     42   2   1     1.352765315936   113.57249190   129.01503795
 H      1   2   7     1.083506806624   158.94290779   162.33523053
 H      2   1   3     1.079907866440   126.45736083   157.44724650
 H      4   3   1     1.082652760584   121.06636327   179.57623926
 H      5   4   3     1.082195915720   122.82173128   179.50813495
 H      6   5   4     1.092302155999   104.47927843   100.08510874
 H      6   5   4     1.090507221434    84.72115224   209.52650515
 H      6   5   4     1.090565449664   133.87900161   322.31519800
 H      7   2  54     1.079807853278   126.66122480     1.30600390
 H     10   1   2     1.084090863350   118.74276900   157.66851344
 H     12   9   2     1.016297692608   125.29023241   180.00180175
 H     14  13  12     1.014936943854    44.97226959   359.42596618
 H     18  14  13     1.082871645210   128.03556573   234.20482432
 H     19  17  13     1.080893611786   126.41830519   178.11313280
 H     21  20  18     1.083569563987   121.05669627   180.67006309
 H     22  21  20     1.082483256222   122.73097286   180.59748951
 H     23  18  14     1.092105306278   103.92715769   234.93429879
 H     23  18  14     1.088871893291   134.19244188    12.25587044
 H     23  18  14     1.089833473518    84.85857450   125.45241208
 H     24  19  17     1.080075460327   127.28078426   178.44613241
 H     26  18  14     1.083408048706   118.76995697   244.94906660
 H     30  14  13     1.082703098730   127.99711412   279.66882698
 H     31  29  14     1.079759695488   125.22293469   180.92530585
 H     33  32  30     1.083188810873   121.01964473   180.74284758
 H     34  33  32     1.082494341787   122.70821597   180.59516895
 H     35  34  33     1.092652735319   105.73575241    97.19771933
 H     35  34  33     1.089462711615    84.05943581   206.43036958
 H     35  34  33     1.089268102902   133.08365142   318.50306270
 H     36  31  29     1.079439669458   126.61599965   178.98859863
 H     38  30  73     1.083742127999   118.77264435   359.90091293
 H     42   2   1     1.082178358682   119.31790784   345.64656840
 H     43  41  15     1.080281907652   126.36969097   182.06329380
 H     45  44  42     1.083277434455   121.10105945   179.58025624
 H     46  45  44     1.082194529648   122.72144639   179.46906377
 H     47  42   2     1.091546151109   106.65128841   315.16475048
 H     47  42   2     1.088818625851   132.46019523    94.52397119
 H     47  42   2     1.089531091801    83.63838232   206.04504406
 H     48  43  41     1.080402239909   127.23657387   181.62955349
 H     50  42   2     1.083186502870   118.77001737    94.71359229

---------------------------
INTERNAL COORDINATES (A.U.)
---------------------------
 C      0   0   0     0.000000000000     0.00000000     0.00000000
 C      1   0   0    12.168493613178     0.00000000     0.00000000
 C      1   2   0     4.560811253648    21.07864719     0.00000000
 C      3   1   2     2.651946346940    87.91265358   307.78904305
 C      4   3   1     2.608822195451   120.14703403     0.11557426
 C      5   4   3     4.625020456085   152.52318907     1.67929916
 C      2   1   3     2.585360837309     5.32614418    64.06098139
 C      7   2   4     2.710026725231   108.05010202   125.88502624
 C      2   1   3     2.710100516721   108.05665198   331.41957911
 C      1   2   7     2.612231805528    45.87117439    97.80553535
 N      1   2   7     2.554855920027    77.86016929   298.04183457
 N      9   2   1     2.600503484979   106.58526707     4.83974187
 N     12   9   2     5.527566200405   168.53581413   171.12065651
 N     13  12   9     5.583221047236    91.55032014    11.12112580
 N     14  13  12     5.528150518591    88.43092389   359.84326247
 C      8   7   2     2.654668413270   127.24786865   181.11170171
 C     13  12   9     2.582376967257    81.72106996   188.00453233
 C     14  13  12    10.882574804710    80.56209567   166.76250791
 C     17  13  12     2.757130505230   111.08861209   183.82872609
 C     18  14  13     4.558465206823    27.27532823    36.33507194
 C     20  18  14     2.650705180609    87.95206320   148.94598259
 C     21  20  18     2.611803198586   120.14573887   359.70382047
 C     18  14  13     4.623235745386   144.15733107    82.80075377
 C     19  17  13     2.557953565794   106.29293361   359.75308708
 C     13  12   9     2.582903091751   172.21332906    33.46711076
 C     18  14  13     2.609636529225    15.08449437   309.23336894
 N     22  21  20     2.556370638369   120.73759875     0.27865223
 C     25  13  17     2.666210041769   125.60330303   182.37774668
 C     14  13  12     2.601476916169    80.24689249   177.85461986
 C     14  13  12    10.892550769017   164.51507311   312.20821879
 C     29  14  13     2.712892575415   106.58649366   178.76395472
 C     30  14  13     4.560507835333    27.10625047    82.12560436
 C     32  30  14     2.652673401891    87.90059683   149.76154742
 C     33  32  30     2.609133588376   120.14881443   359.74174632
 C     34  33  32     4.627519515267   152.49203239     2.45173620
 C     31  29  14     2.585449236669   108.16950133     0.70383075
 C     14  13  12     2.600716325456   169.26375223   353.09862627
 C     30  14  13     2.609536633043    14.68948582   353.70041132
 N     34  33  32     2.556154803934   120.85575621     0.19603406
 C     37  14  29     2.654530526499   126.01551127   180.90772073
 C     15  14  13     2.582293994346    81.61824056   183.09049352
 C      2   1   3     8.029564866989   161.64477861   114.79925765
 C     41  15  14     2.758391104639   111.05201287   175.08990246
 C     42   2   1     4.559821839776    41.78584867   190.96359965
 C     44  42   2     2.652129475853    87.95153797   233.97558675
 C     45  44  42     2.611027836043   120.11137308     0.19721020
 C     42   2   1     4.629866436820   135.97209175   101.27844875
 C     43  41  15     2.559561325344   106.26758155     0.30894352
 C     15  14  13     2.584127074516   171.87382904   332.35056460
 C     42   2   1     2.611386828803    32.59078432   239.81887884
 C      9   2   1     2.655043698059   126.98745415   185.84407940
 N     42   2   1     2.556355970587   113.57249190   129.01503795
 H      1   2   7     2.047531128758   158.94290779   162.33523053
 H      2   1   3     2.040730117440   126.45736083   157.44724650
 H      4   3   1     2.045917215637   121.06636327   179.57623926
 H      5   4   3     2.045053903958   122.82173128   179.50813495
 H      6   5   4     2.064151930330   104.47927843   100.08510874
 H      6   5   4     2.060759995574    84.72115224   209.52650515
 H      6   5   4     2.060870030981   133.87900161   322.31519800
 H      7   2  54     2.040541119952   126.66122480     1.30600390
 H     10   1   2     2.048634836019   118.74276900   157.66851344
 H     12   9   2     1.920524309565   125.29023241   180.00180175
 H     14  13  12     1.917952867083    44.97226959   359.42596618
 H     18  14  13     2.046330847636   128.03556573   234.20482432
 H     19  17  13     2.042592906181   126.41830519   178.11313280
 H     21  20  18     2.047649722989   121.05669627   180.67006309
 H     22  21  20     2.045596898814   122.73097286   180.59748951
 H     23  18  14     2.063779938267   103.92715769   234.93429879
 H     23  18  14     2.057669673245   134.19244188    12.25587044
 H     23  18  14     2.059486796529    84.85857450   125.45241208
 H     24  19  17     2.041046823986   127.28078426   178.44613241
 H     26  18  14     2.047344503340   118.76995697   244.94906660
 H     30  14  13     2.046012340948   127.99711412   279.66882698
 H     31  29  14     2.040450114918   125.22293469   180.92530585
 H     33  32  30     2.046930203877   121.01964473   180.74284758
 H     34  33  32     2.045617847496   122.70821597   180.59516895
 H     35  34  33     2.064814429233   105.73575241    97.19771933
 H     35  34  33     2.058786158072    84.05943581   206.43036958
 H     35  34  33     2.058418400901   133.08365142   318.50306270
 H     36  31  29     2.039845353366   126.61599965   178.98859863
 H     38  30  73     2.047975821711   118.77264435   359.90091293
 H     42   2   1     2.045020725966   119.31790784   345.64656840
 H     43  41  15     2.041436952892   126.36969097   182.06329380
 H     45  44  42     2.047097678177   121.10105945   179.58025624
 H     46  45  44     2.045051284662   122.72144639   179.46906377
 H     47  42   2     2.062723288131   106.65128841   315.16475048
 H     47  42   2     2.057569012371   132.46019523    94.52397119
 H     47  42   2     2.058915377895    83.63838232   206.04504406
 H     48  43  41     2.041664347903   127.23657387   181.62955349
 H     50  42   2     2.046925842384   118.77001737    94.71359229

---------------------
BASIS SET INFORMATION
---------------------
There are 3 groups of distinct atoms

 Group   1 Type C   : 17s4p1d contracted to 3s2p1d pattern {881/31/1}
 Group   2 Type N   : 17s4p1d contracted to 3s2p1d pattern {881/31/1}
 Group   3 Type H   : 4s1p contracted to 2s1p pattern {31/1}

Atom   0C    basis set group =>   1
Atom   1N    basis set group =>   2
Atom   2C    basis set group =>   1
Atom   3N    basis set group =>   2
Atom   4C    basis set group =>   1
Atom   5N    basis set group =>   2
Atom   6C    basis set group =>   1
Atom   7N    basis set group =>   2
Atom   8C    basis set group =>   1
Atom   9N    basis set group =>   2
Atom  10C    basis set group =>   1
Atom  11N    basis set group =>   2
Atom  12C    basis set group =>   1
Atom  13N    basis set group =>   2
Atom  14C    basis set group =>   1
Atom  15N    basis set group =>   2
Atom  16C    basis set group =>   1
Atom  17C    basis set group =>   1
Atom  18C    basis set group =>   1
Atom  19C    basis set group =>   1
Atom  20C    basis set group =>   1
Atom  21C    basis set group =>   1
Atom  22C    basis set group =>   1
Atom  23C    basis set group =>   1
Atom  24C    basis set group =>   1
Atom  25C    basis set group =>   1
Atom  26C    basis set group =>   1
Atom  27C    basis set group =>   1
Atom  28C    basis set group =>   1
Atom  29C    basis set group =>   1
Atom  30C    basis set group =>   1
Atom  31C    basis set group =>   1
Atom  32C    basis set group =>   1
Atom  33C    basis set group =>   1
Atom  34C    basis set group =>   1
Atom  35C    basis set group =>   1
Atom  36C    basis set group =>   1
Atom  37C    basis set group =>   1
Atom  38C    basis set group =>   1
Atom  39C    basis set group =>   1
Atom  40C    basis set group =>   1
Atom  41C    basis set group =>   1
Atom  42C    basis set group =>   1
Atom  43C    basis set group =>   1
Atom  44C    basis set group =>   1
Atom  45C    basis set group =>   1
Atom  46C    basis set group =>   1
Atom  47C    basis set group =>   1
Atom  48C    basis set group =>   1
Atom  49C    basis set group =>   1
Atom  50C    basis set group =>   1
Atom  51C    basis set group =>   1
Atom  52H    basis set group =>   3
Atom  53H    basis set group =>   3
Atom  54H    basis set group =>   3
Atom  55H    basis set group =>   3
Atom  56H    basis set group =>   3
Atom  57H    basis set group =>   3
Atom  58H    basis set group =>   3
Atom  59H    basis set group =>   3
Atom  60H    basis set group =>   3
Atom  61H    basis set group =>   3
Atom  62H    basis set group =>   3
Atom  63H    basis set group =>   3
Atom  64H    basis set group =>   3
Atom  65H    basis set group =>   3
Atom  66H    basis set group =>   3
Atom  67H    basis set group =>   3
Atom  68H    basis set group =>   3
Atom  69H    basis set group =>   3
Atom  70H    basis set group =>   3
Atom  71H    basis set group =>   3
Atom  72H    basis set group =>   3
Atom  73H    basis set group =>   3
Atom  74H    basis set group =>   3
Atom  75H    basis set group =>   3
Atom  76H    basis set group =>   3
Atom  77H    basis set group =>   3
Atom  78H    basis set group =>   3
Atom  79H    basis set group =>   3
Atom  80H    basis set group =>   3
Atom  81H    basis set group =>   3
Atom  82H    basis set group =>   3
Atom  83H    basis set group =>   3
Atom  84H    basis set group =>   3
Atom  85H    basis set group =>   3
Atom  86H    basis set group =>   3
Atom  87H    basis set group =>   3
Atom  88H    basis set group =>   3
Atom  89H    basis set group =>   3


           ************************************************************
           *        Program running with 16 parallel MPI-processes    *
           *              working on a common directory               *
           ************************************************************
------------------------------------------------------------------------------
                           ORCA GTO INTEGRAL CALCULATION
------------------------------------------------------------------------------
------------------------------------------------------------------------------
                   ___                                                        
                  /   \      - P O W E R E D   B Y -                         
                 /     \                                                     
                 |  |  |   _    _      __       _____    __    __             
                 |  |  |  | |  | |    /  \     |  _  \  |  |  /  |          
                  \  \/   | |  | |   /    \    | | | |  |  | /  /          
                 / \  \   | |__| |  /  /\  \   | |_| |  |  |/  /          
                |  |  |   |  __  | /  /__\  \  |    /   |      \           
                |  |  |   | |  | | |   __   |  |    \   |  |\   \          
                \     /   | |  | | |  |  |  |  | |\  \  |  | \   \       
                 \___/    |_|  |_| |__|  |__|  |_| \__\ |__|  \__/        
                                                                              
                      - O R C A' S   B I G   F R I E N D -                    
                                      &                                       
                       - I N T E G R A L  F E E D E R -                       
                                                                              
 v1 FN, 2020, v2 2021                                                         
------------------------------------------------------------------------------


Reading SHARK input file /scratch/allen/tmpyp4_amber_gaff2/conf1/conf1/Conf213.orca.SHARKINP.tmp ... ok
----------------------
SHARK INTEGRAL PACKAGE
----------------------

Number of atoms                             ...     90
Number of basis functions                   ...   1230
Number of shells                            ...    738
Maximum angular momentum                    ...      2
Integral batch strategy                     ... SHARK/LIBINT Hybrid
RI-J (if used) integral strategy            ... SPLIT-RIJ (Revised 2003 algorithm where possible)
Printlevel                                  ...      1
Contraction scheme used                     ... PARTIAL GENERAL contraction
Coulomb Range Separation                    ... NOT USED
Exchange Range Separation                   ... NOT USED
Finite Nucleus Model                        ... NOT USED
Auxiliary Coulomb fitting basis             ... NOT available
Auxiliary J/K fitting basis                 ... NOT available
Auxiliary Correlation fitting basis         ... NOT available
Auxiliary 'external' fitting basis          ... NOT available
Integral threshold                          ...     2.500000e-11
Primitive cut-off                           ...     2.500000e-12
Primitive pair pre-selection threshold      ...     2.500000e-12

Calculating pre-screening integrals         ... done (  0.1 sec) Dimension = 738
Calculating pre-screening integrals (ORCA)  ... done (  0.3 sec) Dimension = 426
Organizing shell pair data                  ... done (  0.7 sec)
Shell pair information
Total number of shell pairs                 ...    272691
Shell pairs after pre-screening             ...     71659
Total number of primitive shell pairs       ...    422091
Primitive shell pairs kept                  ...     92518
          la=0 lb=0:  29416 shell pairs
          la=1 lb=0:  26004 shell pairs
          la=1 lb=1:   4706 shell pairs
          la=2 lb=0:   7882 shell pairs
          la=2 lb=1:   3122 shell pairs
          la=2 lb=2:    529 shell pairs

Calculating one electron integrals          ... done (  0.2 sec)
Calculating Nuclear repulsion               ... done (  0.0 sec) ENN=   6231.267162487909 Eh

SHARK setup successfully completed in   2.3 seconds

Maximum memory used throughout the entire GTOINT-calculation: 99.0 MB


           ************************************************************
           *        Program running with 16 parallel MPI-processes    *
           *              working on a common directory               *
           ************************************************************
-------------------------------------------------------------------------------
                                 ORCA SCF
-------------------------------------------------------------------------------

------------
SCF SETTINGS
------------
Hamiltonian:
 Ab initio Hamiltonian  Method          .... Hartree-Fock(GTOs)


General Settings:
 Integral files         IntName         .... /scratch/allen/tmpyp4_amber_gaff2/conf1/conf1/Conf213.orca
 Hartree-Fock type      HFTyp           .... RHF
 Total Charge           Charge          ....    0
 Multiplicity           Mult            ....    1
 Number of Electrons    NEL             ....  358
 Basis Dimension        Dim             ....  918
 Nuclear Repulsion      ENuc            ....   6231.2671624879 Eh

Convergence Acceleration:
 DIIS                   CNVDIIS         .... on
   Start iteration      DIISMaxIt       ....    12
   Startup error        DIISStart       ....  0.200000
   # of expansion vecs  DIISMaxEq       ....     5
   Bias factor          DIISBfac        ....   1.050
   Max. coefficient     DIISMaxC        ....  10.000
 Trust-Rad. Augm. Hess. CNVTRAH         .... auto
   Auto Start mean grad. ratio tolernc. ....  1.125000
   Auto Start start iteration           ....    20
   Auto Start num. interpolation iter.  ....    10
   Max. Number of Micro iterations      ....    16
   Max. Number of Macro iterations      .... Maxiter - #DIIS iter
   Number of Davidson start vectors     ....     2
   Converg. threshold I  (grad. norm)   ....   1.000e-05
   Converg. threshold II (energy diff.) ....   1.000e-08
   Grad. Scal. Fac. for Micro threshold ....   0.100
   Minimum threshold for Micro iter.    ....   0.010
   NR start threshold (gradient norm)   ....   0.001
   Initial trust radius                 ....   0.400
   Minimum AH scaling param. (alpha)    ....   1.000
   Maximum AH scaling param. (alpha)    .... 1000.000
   Orbital update algorithm             .... Taylor
   White noise on init. David. guess    .... on
   Maximum white noise                  ....   0.010
   Quad. conv. algorithm                .... NR
 SOSCF                  CNVSOSCF        .... on
   Start iteration      SOSCFMaxIt      ....   150
   Startup grad/error   SOSCFStart      ....  0.003300
 Level Shifting         CNVShift        .... on
   Level shift para.    LevelShift      ....    0.2500
   Turn off err/grad.   ShiftErr        ....    0.0010
 Zerner damping         CNVZerner       .... off
 Static damping         CNVDamp         .... on
   Fraction old density DampFac         ....    0.7000
   Max. Damping (<1)    DampMax         ....    0.9800
   Min. Damping (>=0)   DampMin         ....    0.0000
   Turn off err/grad.   DampErr         ....    0.1000
 Fernandez-Rico         CNVRico         .... off

SCF Procedure:
 Maximum # iterations   MaxIter         ....   125
 SCF integral mode      SCFMode         .... Direct
   Integral package                     .... SHARK and LIBINT hybrid scheme
 Reset frequency        DirectResetFreq ....    20
 Integral Threshold     Thresh          ....  2.500e-11 Eh
 Primitive CutOff       TCut            ....  2.500e-12 Eh

Convergence Tolerance:
 Convergence Check Mode ConvCheckMode   .... Total+1el-Energy
 Convergence forced     ConvForced      .... 1
 Energy Change          TolE            ....  1.000e-08 Eh
 1-El. energy change                    ....  1.000e-05 Eh
 Orbital Gradient       TolG            ....  1.000e-05
 Orbital Rotation angle TolX            ....  1.000e-05
 DIIS Error             TolErr          ....  5.000e-07


Diagonalization of the overlap matrix:
Smallest eigenvalue                        ... 2.187e-04
Time for diagonalization                   ...    0.445 sec
Threshold for overlap eigenvalues          ... 1.000e-08
Number of eigenvalues below threshold      ... 0
Time for construction of square roots      ...    0.266 sec
Total time needed                          ...    0.718 sec

Time for model grid setup =    1.292 sec

------------------------------
INITIAL GUESS: MODEL POTENTIAL
------------------------------
Loading Hartree-Fock densities                     ... done
Calculating cut-offs                               ... done
Initializing the effective Hamiltonian             ... done
Setting up the integral package (SHARK)            ... done
Starting the Coulomb interaction                   ... done (   1.4 sec)
Reading the grid                                   ... done
Mapping shells                                     ... done
Starting the XC term evaluation                    ... done (   0.2 sec)
Transforming the Hamiltonian                       ... done (   0.3 sec)
Diagonalizing the Hamiltonian                      ... done (   0.4 sec)
Back transforming the eigenvectors                 ... done (   0.1 sec)
Now organizing SCF variables                       ... done
                      ------------------
                      INITIAL GUESS DONE (   3.8 sec)
                      ------------------
--------------
SCF ITERATIONS
--------------
ITER       Energy         Delta-E        Max-DP      RMS-DP      [F,P]     Damp
               ***  Starting incremental Fock matrix formation  ***
  0  -2121.6807783234   0.000000000000 0.07203406  0.00122075  0.2320824 0.7000
  1  -2122.3346858999  -0.653907576516 0.05449794  0.00099323  0.1437866 0.7000
                               ***Turning on DIIS***
  2  -2122.7413283797  -0.406642479773 0.12762333  0.00225299  0.0802426 0.0000
  3  -2117.9271910064   4.814137373291 0.03982420  0.00067810  0.0438534 0.0000
  4  -2123.4173246339  -5.490133627512 0.01226196  0.00022653  0.0081889 0.0000
  5  -2123.5744524708  -0.157127836905 0.00596750  0.00013295  0.0049496 0.0000
  6  -2123.5583154989   0.016136971950 0.00371185  0.00008539  0.0020102 0.0000
  7  -2123.6556992520  -0.097383753066 0.00303599  0.00006723  0.0015736 0.0000
  8  -2123.6667887936  -0.011089541607 0.00319886  0.00006354  0.0014683 0.0000
  9  -2123.6364250237   0.030363769873 0.00255458  0.00004436  0.0011754 0.0000
 10  -2123.6459718195  -0.009546795771 0.00513422  0.00009184  0.0009102 0.0000
                      *** Initiating the SOSCF procedure ***
                           *** Shutting down DIIS ***
                      *** Re-Reading the Fockian *** 
                      *** Removing any level shift *** 
ITER      Energy       Delta-E        Grad      Rot      Max-DP    RMS-DP
 11  -2123.53648733   0.1094844871  0.000194  0.000194  0.000239  0.000005
               *** Restarting incremental Fock matrix formation ***
 12  -2123.60278721  -0.0662998815  0.000877  0.005885  0.001334  0.000034
 13  -2123.60288823  -0.0001010166  0.001077  0.029558  0.006268  0.000132
 14  -2123.60306198  -0.0001737457  0.000350  0.001934  0.000635  0.000012
 15  -2123.60307783  -0.0000158498  0.000172  0.002771  0.000746  0.000018
 16  -2123.60308741  -0.0000095838  0.000161  0.002981  0.000480  0.000011
 17  -2123.60309066  -0.0000032514  0.000142  0.002014  0.000338  0.000007
 18  -2123.60309242  -0.0000017617  0.000073  0.000842  0.000297  0.000004
 19  -2123.60309325  -0.0000008302  0.000046  0.000787  0.000175  0.000004
 20  -2123.60309356  -0.0000003067  0.000025  0.000518  0.000102  0.000002
 21  -2123.60309373  -0.0000001659  0.000024  0.000630  0.000126  0.000002
 22  -2123.60309385  -0.0000001248  0.000020  0.000585  0.000106  0.000002
 23  -2123.60309393  -0.0000000751  0.000011  0.000390  0.000071  0.000001
 24  -2123.60309397  -0.0000000402  0.000007  0.000298  0.000047  0.000001
 25  -2123.60309399  -0.0000000257  0.000008  0.000192  0.000033  0.000001
 26  -2123.60309401  -0.0000000144  0.000006  0.000178  0.000029  0.000001
 27  -2123.60309401  -0.0000000073  0.000004  0.000136  0.000025  0.000001
                  ***Gradient check signals convergence***
              ***Rediagonalizing the Fockian in SOSCF/NRSCF***

               *****************************************************
               *                     SUCCESS                       *
               *           SCF CONVERGED AFTER  28 CYCLES          *
               *****************************************************


----------------
TOTAL SCF ENERGY
----------------

Total Energy       :        -2123.60309401 Eh          -57786.17798 eV

Components:
Nuclear Repulsion  :         6231.26716249 Eh          169561.39983 eV
Electronic Energy  :        -8354.87025650 Eh         -227347.57781 eV
One Electron Energy:       -15303.30246035 Eh         -416424.03053 eV
Two Electron Energy:         6948.43220384 Eh          189076.45273 eV

Virial components:
Potential Energy   :        -4245.79419768 Eh         -115533.93375 eV
Kinetic Energy     :         2122.19110366 Eh           57747.75577 eV
Virial Ratio       :            2.00066535


---------------
SCF CONVERGENCE
---------------

  Last Energy change         ...   -1.5225e-09  Tolerance :   1.0000e-08
  Last MAX-Density change    ...    1.3277e-05  Tolerance :   1.0000e-07
  Last RMS-Density change    ...    2.9016e-07  Tolerance :   5.0000e-09
  Last Orbital Gradient      ...    2.3241e-06  Tolerance :   1.0000e-05
  Last Orbital Rotation      ...    7.9346e-05  Tolerance :   1.0000e-05

             **** THE GBW FILE WAS UPDATED (/scratch/allen/tmpyp4_amber_gaff2/conf1/conf1/Conf213.orca.gbw) ****
             **** DENSITY /scratch/allen/tmpyp4_amber_gaff2/conf1/conf1/Conf213.orca.scfp WAS UPDATED ****
             **** ENERGY FILE WAS UPDATED (/scratch/allen/tmpyp4_amber_gaff2/conf1/conf1/Conf213.orca.en.tmp) ****
             **** THE GBW FILE WAS UPDATED (/scratch/allen/tmpyp4_amber_gaff2/conf1/conf1/Conf213.orca.gbw) ****
             **** DENSITY /scratch/allen/tmpyp4_amber_gaff2/conf1/conf1/Conf213.orca.scfp WAS UPDATED ****
----------------
ORBITAL ENERGIES
----------------

  NO   OCC          E(Eh)            E(eV) 
   0   2.0000     -15.671740      -426.4497 
   1   2.0000     -15.635101      -425.4527 
   2   2.0000     -15.630596      -425.3301 
   3   2.0000     -15.592838      -424.3027 
   4   2.0000     -15.524447      -422.4417 
   5   2.0000     -15.516258      -422.2188 
   6   2.0000     -15.452076      -420.4724 
   7   2.0000     -15.441552      -420.1860 
   8   2.0000     -11.322965      -308.1135 
   9   2.0000     -11.322926      -308.1125 
  10   2.0000     -11.321385      -308.0705 
  11   2.0000     -11.300027      -307.4894 
  12   2.0000     -11.297545      -307.4218 
  13   2.0000     -11.293538      -307.3128 
  14   2.0000     -11.289647      -307.2069 
  15   2.0000     -11.287948      -307.1607 
  16   2.0000     -11.285927      -307.1057 
  17   2.0000     -11.274501      -306.7948 
  18   2.0000     -11.274343      -306.7905 
  19   2.0000     -11.257737      -306.3386 
  20   2.0000     -11.257000      -306.3185 
  21   2.0000     -11.256822      -306.3137 
  22   2.0000     -11.256783      -306.3126 
  23   2.0000     -11.238724      -305.8212 
  24   2.0000     -11.235373      -305.7301 
  25   2.0000     -11.232019      -305.6388 
  26   2.0000     -11.231216      -305.6169 
  27   2.0000     -11.228809      -305.5514 
  28   2.0000     -11.228713      -305.5488 
  29   2.0000     -11.209373      -305.0225 
  30   2.0000     -11.208141      -304.9890 
  31   2.0000     -11.201613      -304.8114 
  32   2.0000     -11.195120      -304.6347 
  33   2.0000     -11.192392      -304.5605 
  34   2.0000     -11.190489      -304.5087 
  35   2.0000     -11.189481      -304.4813 
  36   2.0000     -11.187977      -304.4403 
  37   2.0000     -11.185123      -304.3627 
  38   2.0000     -11.184048      -304.3334 
  39   2.0000     -11.172737      -304.0256 
  40   2.0000     -11.171916      -304.0033 
  41   2.0000     -11.169928      -303.9492 
  42   2.0000     -11.166969      -303.8687 
  43   2.0000     -11.161770      -303.7272 
  44   2.0000     -11.159647      -303.6694 
  45   2.0000     -11.158272      -303.6320 
  46   2.0000     -11.158130      -303.6282 
  47   2.0000     -11.153693      -303.5074 
  48   2.0000     -11.148463      -303.3651 
  49   2.0000     -11.140696      -303.1538 
  50   2.0000     -11.133019      -302.9448 
  51   2.0000     -11.123781      -302.6935 
  52   2.0000      -1.353538       -36.8316 
  53   2.0000      -1.322190       -35.9786 
  54   2.0000      -1.318528       -35.8790 
  55   2.0000      -1.286626       -35.0109 
  56   2.0000      -1.224911       -33.3315 
  57   2.0000      -1.210781       -32.9470 
  58   2.0000      -1.170891       -31.8616 
  59   2.0000      -1.152489       -31.3608 
  60   2.0000      -1.137910       -30.9641 
  61   2.0000      -1.110951       -30.2305 
  62   2.0000      -1.108097       -30.1528 
  63   2.0000      -1.082171       -29.4474 
  64   2.0000      -1.075728       -29.2720 
  65   2.0000      -1.046319       -28.4718 
  66   2.0000      -1.043257       -28.3885 
  67   2.0000      -1.037321       -28.2269 
  68   2.0000      -1.015059       -27.6212 
  69   2.0000      -1.014288       -27.6002 
  70   2.0000      -1.009757       -27.4769 
  71   2.0000      -0.992534       -27.0082 
  72   2.0000      -0.987168       -26.8622 
  73   2.0000      -0.979221       -26.6460 
  74   2.0000      -0.972546       -26.4643 
  75   2.0000      -0.960545       -26.1377 
  76   2.0000      -0.952738       -25.9253 
  77   2.0000      -0.946835       -25.7647 
  78   2.0000      -0.935237       -25.4491 
  79   2.0000      -0.919727       -25.0270 
  80   2.0000      -0.904939       -24.6246 
  81   2.0000      -0.893297       -24.3078 
  82   2.0000      -0.874460       -23.7953 
  83   2.0000      -0.871738       -23.7212 
  84   2.0000      -0.868228       -23.6257 
  85   2.0000      -0.856573       -23.3085 
  86   2.0000      -0.841967       -22.9111 
  87   2.0000      -0.836503       -22.7624 
  88   2.0000      -0.823806       -22.4169 
  89   2.0000      -0.798050       -21.7160 
  90   2.0000      -0.792355       -21.5611 
  91   2.0000      -0.749214       -20.3871 
  92   2.0000      -0.741425       -20.1752 
  93   2.0000      -0.732565       -19.9341 
  94   2.0000      -0.723775       -19.6949 
  95   2.0000      -0.721554       -19.6345 
  96   2.0000      -0.715315       -19.4647 
  97   2.0000      -0.710232       -19.3264 
  98   2.0000      -0.705966       -19.2103 
  99   2.0000      -0.696292       -18.9471 
 100   2.0000      -0.695995       -18.9390 
 101   2.0000      -0.683908       -18.6101 
 102   2.0000      -0.679286       -18.4843 
 103   2.0000      -0.678716       -18.4688 
 104   2.0000      -0.678031       -18.4502 
 105   2.0000      -0.672792       -18.3076 
 106   2.0000      -0.668477       -18.1902 
 107   2.0000      -0.661273       -17.9942 
 108   2.0000      -0.655602       -17.8398 
 109   2.0000      -0.653869       -17.7927 
 110   2.0000      -0.650385       -17.6979 
 111   2.0000      -0.643428       -17.5086 
 112   2.0000      -0.641093       -17.4450 
 113   2.0000      -0.640188       -17.4204 
 114   2.0000      -0.638064       -17.3626 
 115   2.0000      -0.627390       -17.0721 
 116   2.0000      -0.625644       -17.0246 
 117   2.0000      -0.618365       -16.8266 
 118   2.0000      -0.613272       -16.6880 
 119   2.0000      -0.612314       -16.6619 
 120   2.0000      -0.610505       -16.6127 
 121   2.0000      -0.606321       -16.4988 
 122   2.0000      -0.600461       -16.3394 
 123   2.0000      -0.586927       -15.9711 
 124   2.0000      -0.582592       -15.8531 
 125   2.0000      -0.580402       -15.7935 
 126   2.0000      -0.579543       -15.7702 
 127   2.0000      -0.576188       -15.6789 
 128   2.0000      -0.566274       -15.4091 
 129   2.0000      -0.558943       -15.2096 
 130   2.0000      -0.551769       -15.0144 
 131   2.0000      -0.547701       -14.9037 
 132   2.0000      -0.542356       -14.7583 
 133   2.0000      -0.539722       -14.6866 
 134   2.0000      -0.538349       -14.6492 
 135   2.0000      -0.535369       -14.5681 
 136   2.0000      -0.527728       -14.3602 
 137   2.0000      -0.523685       -14.2502 
 138   2.0000      -0.516867       -14.0647 
 139   2.0000      -0.513453       -13.9718 
 140   2.0000      -0.512272       -13.9396 
 141   2.0000      -0.511282       -13.9127 
 142   2.0000      -0.509185       -13.8556 
 143   2.0000      -0.503454       -13.6997 
 144   2.0000      -0.501831       -13.6555 
 145   2.0000      -0.497384       -13.5345 
 146   2.0000      -0.493404       -13.4262 
 147   2.0000      -0.484326       -13.1792 
 148   2.0000      -0.480497       -13.0750 
 149   2.0000      -0.467062       -12.7094 
 150   2.0000      -0.465653       -12.6711 
 151   2.0000      -0.457079       -12.4378 
 152   2.0000      -0.450098       -12.2478 
 153   2.0000      -0.445427       -12.1207 
 154   2.0000      -0.442047       -12.0287 
 155   2.0000      -0.434560       -11.8250 
 156   2.0000      -0.429313       -11.6822 
 157   2.0000      -0.417824       -11.3696 
 158   2.0000      -0.403860       -10.9896 
 159   2.0000      -0.388285       -10.5658 
 160   2.0000      -0.382398       -10.4056 
 161   2.0000      -0.378234       -10.2923 
 162   2.0000      -0.370249       -10.0750 
 163   2.0000      -0.357367        -9.7245 
 164   2.0000      -0.354990        -9.6598 
 165   2.0000      -0.339987        -9.2515 
 166   2.0000      -0.337422        -9.1817 
 167   2.0000      -0.326726        -8.8907 
 168   2.0000      -0.325740        -8.8638 
 169   2.0000      -0.303690        -8.2638 
 170   2.0000      -0.299729        -8.1560 
 171   2.0000      -0.286240        -7.7890 
 172   2.0000      -0.282433        -7.6854 
 173   2.0000      -0.262240        -7.1359 
 174   2.0000      -0.243316        -6.6210 
 175   2.0000      -0.189800        -5.1647 
 176   2.0000      -0.180152        -4.9022 
 177   2.0000      -0.075112        -2.0439 
 178   2.0000      -0.058136        -1.5820 
 179   0.0000       0.028617         0.7787 
 180   0.0000       0.066676         1.8143 
 181   0.0000       0.091425         2.4878 
 182   0.0000       0.109090         2.9685 
 183   0.0000       0.111515         3.0345 
 184   0.0000       0.136427         3.7124 
 185   0.0000       0.140026         3.8103 
 186   0.0000       0.145124         3.9490 
 187   0.0000       0.163102         4.4382 
 188   0.0000       0.164513         4.4766 
 189   0.0000       0.166349         4.5266 
 190   0.0000       0.168135         4.5752 
 191   0.0000       0.184608         5.0234 
 192   0.0000       0.185767         5.0550 
 193   0.0000       0.188013         5.1161 
 194   0.0000       0.204326         5.5600 
 195   0.0000       0.206269         5.6129 
 196   0.0000       0.207636         5.6501 
 197   0.0000       0.209299         5.6953 
 198   0.0000       0.220447         5.9987 
 199   0.0000       0.225727         6.1423 
 200   0.0000       0.229866         6.2550 
 201   0.0000       0.237432         6.4609 
 202   0.0000       0.239019         6.5040 
 203   0.0000       0.240404         6.5417 
 204   0.0000       0.248843         6.7714 
 205   0.0000       0.256235         6.9725 
 206   0.0000       0.257235         6.9997 
 207   0.0000       0.258231         7.0268 
 208   0.0000       0.260551         7.0899 
 209   0.0000       0.262030         7.1302 
 210   0.0000       0.262774         7.1505 
 211   0.0000       0.269340         7.3291 
 212   0.0000       0.269811         7.3419 
 213   0.0000       0.272762         7.4222 
 214   0.0000       0.273169         7.4333 
 215   0.0000       0.276403         7.5213 
 216   0.0000       0.278581         7.5806 
 217   0.0000       0.280604         7.6356 
 218   0.0000       0.285294         7.7633 
 219   0.0000       0.288463         7.8495 
 220   0.0000       0.289279         7.8717 
 221   0.0000       0.292302         7.9539 
 222   0.0000       0.294511         8.0140 
 223   0.0000       0.296392         8.0652 
 224   0.0000       0.298111         8.1120 
 225   0.0000       0.299072         8.1382 
 226   0.0000       0.305853         8.3227 
 227   0.0000       0.308167         8.3857 
 228   0.0000       0.310200         8.4410 
 229   0.0000       0.324392         8.8272 
 230   0.0000       0.325760         8.8644 
 231   0.0000       0.329276         8.9601 
 232   0.0000       0.334142         9.0925 
 233   0.0000       0.341974         9.3056 
 234   0.0000       0.350909         9.5487 
 235   0.0000       0.352919         9.6034 
 236   0.0000       0.370517        10.0823 
 237   0.0000       0.378743        10.3061 
 238   0.0000       0.394071        10.7232 
 239   0.0000       0.396969        10.8021 
 240   0.0000       0.400598        10.9008 
 241   0.0000       0.411603        11.2003 
 242   0.0000       0.416064        11.3217 
 243   0.0000       0.419908        11.4263 
 244   0.0000       0.429217        11.6796 
 245   0.0000       0.433762        11.8033 
 246   0.0000       0.436435        11.8760 
 247   0.0000       0.440891        11.9972 
 248   0.0000       0.441939        12.0258 
 249   0.0000       0.449852        12.2411 
 250   0.0000       0.454174        12.3587 
 251   0.0000       0.458753        12.4833 
 252   0.0000       0.464632        12.6433 
 253   0.0000       0.470475        12.8023 
 254   0.0000       0.472801        12.8656 
 255   0.0000       0.473813        12.8931 
 256   0.0000       0.478813        13.0292 
 257   0.0000       0.481370        13.0987 
 258   0.0000       0.486547        13.2396 
 259   0.0000       0.497921        13.5491 
 260   0.0000       0.503505        13.7011 
 261   0.0000       0.504621        13.7314 
 262   0.0000       0.507066        13.7980 
 263   0.0000       0.509960        13.8767 
 264   0.0000       0.513992        13.9864 
 265   0.0000       0.518955        14.1215 
 266   0.0000       0.524470        14.2715 
 267   0.0000       0.528456        14.3800 
 268   0.0000       0.532189        14.4816 
 269   0.0000       0.537407        14.6236 
 270   0.0000       0.540411        14.7053 
 271   0.0000       0.546315        14.8660 
 272   0.0000       0.552753        15.0412 
 273   0.0000       0.559281        15.2188 
 274   0.0000       0.561598        15.2819 
 275   0.0000       0.565505        15.3882 
 276   0.0000       0.570347        15.5199 
 277   0.0000       0.571696        15.5566 
 278   0.0000       0.577590        15.7170 
 279   0.0000       0.586473        15.9587 
 280   0.0000       0.589752        16.0480 
 281   0.0000       0.591851        16.1051 
 282   0.0000       0.594391        16.1742 
 283   0.0000       0.596140        16.2218 
 284   0.0000       0.598362        16.2823 
 285   0.0000       0.601399        16.3649 
 286   0.0000       0.608195        16.5498 
 287   0.0000       0.611522        16.6404 
 288   0.0000       0.613168        16.6852 
 289   0.0000       0.623700        16.9718 
 290   0.0000       0.628028        17.0895 
 291   0.0000       0.628945        17.1145 
 292   0.0000       0.634346        17.2614 
 293   0.0000       0.636051        17.3078 
 294   0.0000       0.647314        17.6143 
 295   0.0000       0.647845        17.6288 
 296   0.0000       0.653563        17.7844 
 297   0.0000       0.656271        17.8580 
 298   0.0000       0.663834        18.0638 
 299   0.0000       0.667943        18.1756 
 300   0.0000       0.669568        18.2199 
 301   0.0000       0.674199        18.3459 
 302   0.0000       0.677004        18.4222 
 303   0.0000       0.678569        18.4648 
 304   0.0000       0.681176        18.5357 
 305   0.0000       0.687078        18.6963 
 306   0.0000       0.689251        18.7555 
 307   0.0000       0.691094        18.8056 
 308   0.0000       0.696099        18.9418 
 309   0.0000       0.697979        18.9930 
 310   0.0000       0.702695        19.1213 
 311   0.0000       0.703936        19.1551 
 312   0.0000       0.706320        19.2199 
 313   0.0000       0.710290        19.3280 
 314   0.0000       0.711490        19.3606 
 315   0.0000       0.715264        19.4633 
 316   0.0000       0.717258        19.5176 
 317   0.0000       0.719164        19.5694 
 318   0.0000       0.721446        19.6316 
 319   0.0000       0.722903        19.6712 
 320   0.0000       0.726006        19.7556 
 321   0.0000       0.731189        19.8967 
 322   0.0000       0.731542        19.9063 
 323   0.0000       0.735535        20.0149 
 324   0.0000       0.736853        20.0508 
 325   0.0000       0.738989        20.1089 
 326   0.0000       0.742525        20.2051 
 327   0.0000       0.747482        20.3400 
 328   0.0000       0.750637        20.4259 
 329   0.0000       0.751763        20.4565 
 330   0.0000       0.754253        20.5243 
 331   0.0000       0.756820        20.5941 
 332   0.0000       0.758468        20.6390 
 333   0.0000       0.760921        20.7057 
 334   0.0000       0.768269        20.9057 
 335   0.0000       0.772400        21.0181 
 336   0.0000       0.773589        21.0504 
 337   0.0000       0.782765        21.3001 
 338   0.0000       0.786974        21.4147 
 339   0.0000       0.788728        21.4624 
 340   0.0000       0.789105        21.4726 
 341   0.0000       0.794755        21.6264 
 342   0.0000       0.797613        21.7042 
 343   0.0000       0.802077        21.8256 
 344   0.0000       0.806340        21.9416 
 345   0.0000       0.808188        21.9919 
 346   0.0000       0.810213        22.0470 
 347   0.0000       0.811103        22.0712 
 348   0.0000       0.812374        22.1058 
 349   0.0000       0.818511        22.2728 
 350   0.0000       0.819172        22.2908 
 351   0.0000       0.820701        22.3324 
 352   0.0000       0.825403        22.4603 
 353   0.0000       0.826223        22.4827 
 354   0.0000       0.828083        22.5333 
 355   0.0000       0.831553        22.6277 
 356   0.0000       0.832531        22.6543 
 357   0.0000       0.835917        22.7464 
 358   0.0000       0.836588        22.7647 
 359   0.0000       0.838593        22.8193 
 360   0.0000       0.839397        22.8411 
 361   0.0000       0.842649        22.9296 
 362   0.0000       0.844213        22.9722 
 363   0.0000       0.845533        23.0081 
 364   0.0000       0.850203        23.1352 
 365   0.0000       0.854314        23.2471 
 366   0.0000       0.857870        23.3438 
 367   0.0000       0.859672        23.3929 
 368   0.0000       0.862957        23.4822 
 369   0.0000       0.865396        23.5486 
 370   0.0000       0.869599        23.6630 
 371   0.0000       0.873511        23.7695 
 372   0.0000       0.874481        23.7958 
 373   0.0000       0.877670        23.8826 
 374   0.0000       0.879154        23.9230 
 375   0.0000       0.883807        24.0496 
 376   0.0000       0.884969        24.0812 
 377   0.0000       0.886927        24.1345 
 378   0.0000       0.890647        24.2357 
 379   0.0000       0.892927        24.2978 
 380   0.0000       0.896335        24.3905 
 381   0.0000       0.900128        24.4937 
 382   0.0000       0.901254        24.5244 
 383   0.0000       0.902833        24.5673 
 384   0.0000       0.903752        24.5923 
 385   0.0000       0.904667        24.6172 
 386   0.0000       0.907948        24.7065 
 387   0.0000       0.909010        24.7354 
 388   0.0000       0.911974        24.8161 
 389   0.0000       0.916785        24.9470 
 390   0.0000       0.920888        25.0586 
 391   0.0000       0.922192        25.0941 
 392   0.0000       0.925173        25.1752 
 393   0.0000       0.926503        25.2114 
 394   0.0000       0.929364        25.2893 
 395   0.0000       0.930090        25.3090 
 396   0.0000       0.931254        25.3407 
 397   0.0000       0.938048        25.5256 
 398   0.0000       0.939345        25.5609 
 399   0.0000       0.943201        25.6658 
 400   0.0000       0.945348        25.7242 
 401   0.0000       0.949214        25.8294 
 402   0.0000       0.952553        25.9203 
 403   0.0000       0.955777        26.0080 
 404   0.0000       0.959713        26.1151 
 405   0.0000       0.962534        26.1919 
 406   0.0000       0.965069        26.2609 
 407   0.0000       0.969688        26.3865 
 408   0.0000       0.970330        26.4040 
 409   0.0000       0.979974        26.6665 
 410   0.0000       0.982062        26.7233 
 411   0.0000       0.985892        26.8275 
 412   0.0000       0.991198        26.9719 
 413   0.0000       0.996265        27.1098 
 414   0.0000       0.998661        27.1750 
 415   0.0000       0.999199        27.1896 
 416   0.0000       1.005051        27.3488 
 417   0.0000       1.012362        27.5478 
 418   0.0000       1.020423        27.7671 
 419   0.0000       1.021951        27.8087 
 420   0.0000       1.028242        27.9799 
 421   0.0000       1.032186        28.0872 
 422   0.0000       1.036035        28.1919 
 423   0.0000       1.044075        28.4107 
 424   0.0000       1.050269        28.5793 
 425   0.0000       1.055396        28.7188 
 426   0.0000       1.057680        28.7809 
 427   0.0000       1.064903        28.9775 
 428   0.0000       1.073606        29.2143 
 429   0.0000       1.079726        29.3808 
 430   0.0000       1.081403        29.4265 
 431   0.0000       1.084480        29.5102 
 432   0.0000       1.088364        29.6159 
 433   0.0000       1.091065        29.6894 
 434   0.0000       1.099895        29.9297 
 435   0.0000       1.100949        29.9583 
 436   0.0000       1.107414        30.1343 
 437   0.0000       1.110605        30.2211 
 438   0.0000       1.115097        30.3433 
 439   0.0000       1.119129        30.4530 
 440   0.0000       1.120802        30.4986 
 441   0.0000       1.122817        30.5534 
 442   0.0000       1.123977        30.5850 
 443   0.0000       1.127940        30.6928 
 444   0.0000       1.132574        30.8189 
 445   0.0000       1.135969        30.9113 
 446   0.0000       1.140777        31.0421 
 447   0.0000       1.144725        31.1496 
 448   0.0000       1.147034        31.2124 
 449   0.0000       1.149523        31.2801 
 450   0.0000       1.152425        31.3591 
 451   0.0000       1.158735        31.5308 
 452   0.0000       1.160246        31.5719 
 453   0.0000       1.165391        31.7119 
 454   0.0000       1.167899        31.7802 
 455   0.0000       1.170524        31.8516 
 456   0.0000       1.172036        31.8927 
 457   0.0000       1.176853        32.0238 
 458   0.0000       1.182751        32.1843 
 459   0.0000       1.186269        32.2800 
 460   0.0000       1.188031        32.3280 
 461   0.0000       1.197614        32.5887 
 462   0.0000       1.200967        32.6800 
 463   0.0000       1.204271        32.7699 
 464   0.0000       1.208171        32.8760 
 465   0.0000       1.209861        32.9220 
 466   0.0000       1.215404        33.0728 
 467   0.0000       1.217818        33.1385 
 468   0.0000       1.222161        33.2567 
 469   0.0000       1.226776        33.3823 
 470   0.0000       1.229135        33.4465 
 471   0.0000       1.231793        33.5188 
 472   0.0000       1.234607        33.5954 
 473   0.0000       1.234688        33.5976 
 474   0.0000       1.243033        33.8246 
 475   0.0000       1.243744        33.8440 
 476   0.0000       1.248971        33.9862 
 477   0.0000       1.250651        34.0319 
 478   0.0000       1.251326        34.0503 
 479   0.0000       1.254913        34.1479 
 480   0.0000       1.257787        34.2261 
 481   0.0000       1.264373        34.4053 
 482   0.0000       1.264976        34.4217 
 483   0.0000       1.271175        34.5904 
 484   0.0000       1.273172        34.6448 
 485   0.0000       1.278088        34.7785 
 486   0.0000       1.282425        34.8966 
 487   0.0000       1.284813        34.9616 
 488   0.0000       1.287517        35.0351 
 489   0.0000       1.291537        35.1445 
 490   0.0000       1.294050        35.2129 
 491   0.0000       1.296835        35.2887 
 492   0.0000       1.300162        35.3792 
 493   0.0000       1.309398        35.6305 
 494   0.0000       1.311317        35.6828 
 495   0.0000       1.316834        35.8329 
 496   0.0000       1.321416        35.9576 
 497   0.0000       1.323374        36.0108 
 498   0.0000       1.325229        36.0613 
 499   0.0000       1.328710        36.1560 
 500   0.0000       1.332802        36.2674 
 501   0.0000       1.334181        36.3049 
 502   0.0000       1.338384        36.4193 
 503   0.0000       1.344214        36.5779 
 504   0.0000       1.345715        36.6188 
 505   0.0000       1.350979        36.7620 
 506   0.0000       1.353010        36.8173 
 507   0.0000       1.357107        36.9288 
 508   0.0000       1.358529        36.9675 
 509   0.0000       1.361041        37.0358 
[...]
      pz      :     0.022090  p :     0.079741
      px      :     0.043554
      py      :     0.014097
 77 H s       :     0.885402  s :     0.885402
      pz      :     0.047912  p :     0.079214
      px      :     0.015021
      py      :     0.016282
 78 H s       :     0.885767  s :     0.885767
      pz      :     0.025848  p :     0.079176
      px      :     0.020474
      py      :     0.032853
 79 H s       :     0.910362  s :     0.910362
      pz      :     0.021863  p :     0.086393
      px      :     0.021680
      py      :     0.042850
 80 H s       :     0.865653  s :     0.865653
      pz      :     0.039291  p :     0.084690
      px      :     0.030213
      py      :     0.015186
 81 H s       :     0.887029  s :     0.887029
      pz      :     0.037799  p :     0.084082
      px      :     0.016184
      py      :     0.030099
 82 H s       :     0.915851  s :     0.915851
      pz      :     0.021979  p :     0.086749
      px      :     0.031598
      py      :     0.033172
 83 H s       :     0.873316  s :     0.873316
      pz      :     0.039270  p :     0.084064
      px      :     0.015272
      py      :     0.029522
 84 H s       :     0.886807  s :     0.886807
      pz      :     0.035773  p :     0.083494
      px      :     0.031698
      py      :     0.016023
 85 H s       :     0.893036  s :     0.893036
      pz      :     0.022491  p :     0.079779
      px      :     0.014075
      py      :     0.043213
 86 H s       :     0.890993  s :     0.890993
      pz      :     0.024728  p :     0.078831
      px      :     0.032979
      py      :     0.021123
 87 H s       :     0.890002  s :     0.890002
      pz      :     0.047997  p :     0.078726
      px      :     0.015591
      py      :     0.015138
 88 H s       :     0.911088  s :     0.911088
      pz      :     0.021690  p :     0.087004
      px      :     0.042870
      py      :     0.022444
 89 H s       :     0.871736  s :     0.871736
      pz      :     0.037922  p :     0.083821
      px      :     0.030464
      py      :     0.015434


                      *****************************
                      * MAYER POPULATION ANALYSIS *
                      *****************************

  NA   - Mulliken gross atomic population
  ZA   - Total nuclear charge
  QA   - Mulliken gross atomic charge
  VA   - Mayer's total valence
  BVA  - Mayer's bonded valence
  FA   - Mayer's free valence

  ATOM       NA         ZA         QA         VA         BVA        FA
  0 C      5.7918     6.0000     0.2082     3.8398     3.8398     0.0000
  1 N      7.4540     7.0000    -0.4540     3.3338     3.3338     0.0000
  2 C      6.0652     6.0000    -0.0652     3.9198     3.9198     0.0000
  3 N      7.3370     7.0000    -0.3370     3.4570     3.4570    -0.0000
  4 C      6.0480     6.0000    -0.0480     4.0230     4.0230     0.0000
  5 N      7.5641     7.0000    -0.5641     3.0938     3.0938    -0.0000
  6 C      6.1137     6.0000    -0.1137     3.9988     3.9988    -0.0000
  7 N      7.3400     7.0000    -0.3400     3.4348     3.4348     0.0000
  8 C      5.7934     6.0000     0.2066     3.8418     3.8418     0.0000
  9 N      7.5624     7.0000    -0.5624     3.0783     3.0783    -0.0000
 10 C      5.8821     6.0000     0.1179     3.9081     3.9081     0.0000
 11 N      7.4382     7.0000    -0.4382     3.3793     3.3793    -0.0000
 12 C      6.0828     6.0000    -0.0828     3.9002     3.9002    -0.0000
 13 N      7.4313     7.0000    -0.4313     3.4195     3.4195     0.0000
 14 C      5.7660     6.0000     0.2340     3.7843     3.7843    -0.0000
 15 N      7.4411     7.0000    -0.4411     3.3714     3.3714    -0.0000
 16 C      5.7717     6.0000     0.2283     3.7800     3.7800    -0.0000
 17 C      6.1133     6.0000    -0.1133     3.9925     3.9925     0.0000
 18 C      6.1969     6.0000    -0.1969     3.7674     3.7674     0.0000
 19 C      5.7725     6.0000     0.2275     3.8614     3.8614    -0.0000
 20 C      5.7872     6.0000     0.2128     3.8286     3.8286     0.0000
 21 C      6.0934     6.0000    -0.0934     3.8866     3.8866    -0.0000
 22 C      6.0908     6.0000    -0.0908     3.9827     3.9827    -0.0000
 23 C      6.0408     6.0000    -0.0408     3.9924     3.9924    -0.0000
 24 C      5.8045     6.0000     0.1955     3.8216     3.8216    -0.0000
 25 C      5.8855     6.0000     0.1145     3.8912     3.8912    -0.0000
 26 C      6.0800     6.0000    -0.0800     3.9098     3.9098    -0.0000
 27 C      5.7866     6.0000     0.2134     3.8650     3.8650    -0.0000
 28 C      6.0604     6.0000    -0.0604     3.9885     3.9885    -0.0000
 29 C      6.1803     6.0000    -0.1803     3.7443     3.7443    -0.0000
 30 C      5.7556     6.0000     0.2444     3.7994     3.7994     0.0000
 31 C      5.7729     6.0000     0.2271     3.8192     3.8192     0.0000
 32 C      6.0622     6.0000    -0.0622     3.9224     3.9224    -0.0000
 33 C      6.0641     6.0000    -0.0641     3.9744     3.9744    -0.0000
 34 C      6.0507     6.0000    -0.0507     3.9852     3.9852    -0.0000
 35 C      5.7762     6.0000     0.2238     3.8182     3.8182    -0.0000
 36 C      5.8907     6.0000     0.1093     3.8778     3.8778     0.0000
 37 C      6.0648     6.0000    -0.0648     3.9176     3.9176     0.0000
 38 C      5.7676     6.0000     0.2324     3.8003     3.8003    -0.0000
 39 C      6.0585     6.0000    -0.0585     3.9846     3.9846    -0.0000
 40 C      6.1825     6.0000    -0.1825     3.7298     3.7298    -0.0000
 41 C      5.7750     6.0000     0.2250     3.8856     3.8856    -0.0000
 42 C      5.8020     6.0000     0.1980     3.8262     3.8262    -0.0000
 43 C      6.0725     6.0000    -0.0725     3.9004     3.9004     0.0000
 44 C      6.0898     6.0000    -0.0898     3.9850     3.9850     0.0000
 45 C      6.0599     6.0000    -0.0599     3.9924     3.9924    -0.0000
 46 C      5.7900     6.0000     0.2100     3.8282     3.8282     0.0000
 47 C      5.8845     6.0000     0.1155     3.8933     3.8933    -0.0000
 48 C      6.0682     6.0000    -0.0682     3.9088     3.9088     0.0000
 49 C      5.7631     6.0000     0.2369     3.8922     3.8922     0.0000
 50 C      6.0476     6.0000    -0.0476     3.9906     3.9906     0.0000
 51 C      6.1916     6.0000    -0.1916     3.7360     3.7360    -0.0000
 52 H      0.9589     1.0000     0.0411     0.9860     0.9860     0.0000
 53 H      1.0164     1.0000    -0.0164     0.9983     0.9983    -0.0000
 54 H      0.9510     1.0000     0.0490     1.0137     1.0137     0.0000
 55 H      0.9612     1.0000     0.0388     0.9867     0.9867     0.0000
 56 H      0.9499     1.0000     0.0501     0.9697     0.9697     0.0000
 57 H      0.9516     1.0000     0.0484     0.9828     0.9828     0.0000
 58 H      0.9513     1.0000     0.0487     0.9848     0.9848     0.0000
 59 H      0.9988     1.0000     0.0012     1.0035     1.0035     0.0000
 60 H      0.9476     1.0000     0.0524     1.0152     1.0152     0.0000
 61 H      0.8287     1.0000     0.1713     1.0421     1.0421     0.0000
 62 H      0.8249     1.0000     0.1751     1.0436     1.0436    -0.0000
 63 H      0.9445     1.0000     0.0555     0.9853     0.9853     0.0000
 64 H      1.0083     1.0000    -0.0083     0.9971     0.9971    -0.0000
 65 H      0.9525     1.0000     0.0475     1.0095     1.0095    -0.0000
 66 H      0.9438     1.0000     0.0562     0.9854     0.9854    -0.0000
 67 H      0.9375     1.0000     0.0625     0.9719     0.9719    -0.0000
 68 H      0.9425     1.0000     0.0575     0.9868     0.9868    -0.0000
 69 H      0.9432     1.0000     0.0568     0.9828     0.9828     0.0000
 70 H      1.0290     1.0000    -0.0290     0.9935     0.9935     0.0000
 71 H      0.9548     1.0000     0.0452     1.0060     1.0060    -0.0000
 72 H      0.9312     1.0000     0.0688     0.9838     0.9838     0.0000
 73 H      1.0088     1.0000    -0.0088     1.0006     1.0006     0.0000
 74 H      0.9419     1.0000     0.0581     1.0101     1.0101    -0.0000
 75 H      0.9319     1.0000     0.0681     0.9842     0.9842    -0.0000
 76 H      0.9273     1.0000     0.0727     0.9721     0.9721    -0.0000
 77 H      0.9337     1.0000     0.0663     0.9854     0.9854    -0.0000
 78 H      0.9344     1.0000     0.0656     0.9853     0.9853    -0.0000
 79 H      1.0160     1.0000    -0.0160     0.9978     0.9978     0.0000
 80 H      0.9411     1.0000     0.0589     1.0072     1.0072    -0.0000
 81 H      0.9461     1.0000     0.0539     0.9856     0.9856    -0.0000
 82 H      1.0246     1.0000    -0.0246     0.9935     0.9935     0.0000
 83 H      0.9580     1.0000     0.0420     1.0084     1.0084     0.0000
 84 H      0.9461     1.0000     0.0539     0.9853     0.9853    -0.0000
 85 H      0.9395     1.0000     0.0605     0.9716     0.9716    -0.0000
 86 H      0.9444     1.0000     0.0556     0.9839     0.9839     0.0000
 87 H      0.9431     1.0000     0.0569     0.9856     0.9856     0.0000
 88 H      1.0155     1.0000    -0.0155     0.9964     0.9964    -0.0000
 89 H      0.9544     1.0000     0.0456     1.0074     1.0074     0.0000

  Mayer bond orders larger than 0.100000
B(  0-C ,  1-N ) :   1.0927 B(  0-C , 17-C ) :   1.7016 B(  0-C , 52-H ) :   0.9670 
B(  1-N ,  8-C ) :   1.0905 B(  1-N , 10-C ) :   0.9767 B(  2-C , 12-C ) :   1.5088 
B(  2-C , 16-C ) :   1.3544 B(  2-C , 53-H ) :   0.9753 B(  3-N , 14-C ) :   1.2179 
B(  3-N , 16-C ) :   1.1902 B(  3-N , 61-H ) :   0.8990 B(  4-C ,  6-C ) :   1.2157 
B(  4-C , 17-C ) :   1.2151 B(  4-C , 18-C ) :   1.4263 B(  5-N , 19-C ) :   1.4503 
B(  5-N , 27-C ) :   1.3804 B(  6-C ,  8-C ) :   1.7001 B(  6-C , 54-H ) :   0.9581 
B(  7-N , 30-C ) :   1.1954 B(  7-N , 38-C ) :   1.1921 B(  7-N , 62-H ) :   0.8970 
B(  8-C , 55-H ) :   0.9677 B(  9-N , 41-C ) :   1.3957 B(  9-N , 49-C ) :   1.4245 
B( 10-C , 56-H ) :   0.9769 B( 10-C , 57-H ) :   0.9821 B( 10-C , 58-H ) :   0.9843 
B( 11-N , 20-C ) :   1.1303 B( 11-N , 24-C ) :   1.1093 B( 11-N , 25-C ) :   0.9598 
B( 12-C , 14-C ) :   1.3542 B( 12-C , 59-H ) :   0.9733 B( 13-N , 31-C ) :   1.1549 
B( 13-N , 35-C ) :   1.1518 B( 13-N , 36-C ) :   0.9446 B( 14-C , 18-C ) :   1.1343 
B( 15-N , 42-C ) :   1.1084 B( 15-N , 46-C ) :   1.1219 B( 15-N , 47-C ) :   0.9617 
B( 16-C , 51-C ) :   1.1735 B( 17-C , 60-H ) :   0.9554 B( 18-C , 19-C ) :   1.1396 
B( 19-C , 21-C ) :   1.2430 B( 20-C , 28-C ) :   1.6276 B( 20-C , 63-H ) :   0.9703 
B( 21-C , 26-C ) :   1.6099 B( 21-C , 64-H ) :   0.9675 B( 22-C , 23-C ) :   1.2890 
B( 22-C , 28-C ) :   1.2656 B( 22-C , 29-C ) :   1.2232 B( 23-C , 24-C ) :   1.6195 
B( 23-C , 65-H ) :   0.9704 B( 24-C , 66-H ) :   0.9694 B( 25-C , 67-H ) :   0.9760 
B( 25-C , 68-H ) :   0.9828 B( 25-C , 69-H ) :   0.9823 B( 26-C , 27-C ) :   1.2393 
B( 26-C , 70-H ) :   0.9709 B( 27-C , 29-C ) :   1.2151 B( 28-C , 71-H ) :   0.9719 
B( 29-C , 30-C ) :   1.2387 B( 30-C , 32-C ) :   1.2856 B( 31-C , 39-C ) :   1.5956 
B( 31-C , 72-H ) :   0.9684 B( 32-C , 37-C ) :   1.5732 B( 32-C , 73-H ) :   0.9785 
B( 33-C , 34-C ) :   1.3019 B( 33-C , 39-C ) :   1.2973 B( 33-C , 40-C ) :   1.1885 
B( 34-C , 35-C ) :   1.5927 B( 34-C , 74-H ) :   0.9698 B( 35-C , 75-H ) :   0.9684 
B( 36-C , 76-H ) :   0.9767 B( 36-C , 77-H ) :   0.9817 B( 36-C , 78-H ) :   0.9825 
B( 37-C , 38-C ) :   1.2901 B( 37-C , 79-H ) :   0.9767 B( 38-C , 40-C ) :   1.2288 
B( 39-C , 80-H ) :   0.9707 B( 40-C , 41-C ) :   1.2456 B( 41-C , 43-C ) :   1.1895 
B( 42-C , 50-C ) :   1.6339 B( 42-C , 81-H ) :   0.9697 B( 43-C , 48-C ) :   1.6629 
B( 43-C , 82-H ) :   0.9724 B( 44-C , 45-C ) :   1.2642 B( 44-C , 50-C ) :   1.2709 
B( 44-C , 51-C ) :   1.2609 B( 45-C , 46-C ) :   1.6351 B( 45-C , 83-H ) :   0.9717 
B( 46-C , 84-H ) :   0.9700 B( 47-C , 85-H ) :   0.9762 B( 47-C , 86-H ) :   0.9829 
B( 47-C , 87-H ) :   0.9825 B( 48-C , 49-C ) :   1.1927 B( 48-C , 88-H ) :   0.9747 
B( 49-C , 51-C ) :   1.2387 B( 50-C , 89-H ) :   0.9710 

-------
TIMINGS
-------

Total SCF time: 0 days 0 hours 28 min 32 sec 

Total time                  ....    1712.925 sec
Sum of individual times     ....    1708.232 sec  ( 99.7%)

Fock matrix formation       ....    1680.591 sec  ( 98.1%)
Diagonalization             ....       8.764 sec  (  0.5%)
Density matrix formation    ....       0.532 sec  (  0.0%)
Population analysis         ....       0.594 sec  (  0.0%)
Initial guess               ....       2.516 sec  (  0.1%)
Orbital Transformation      ....       0.000 sec  (  0.0%)
Orbital Orthonormalization  ....       0.000 sec  (  0.0%)
DIIS solution               ....       3.946 sec  (  0.2%)
SOSCF solution              ....       9.995 sec  (  0.6%)

Maximum memory used throughout the entire SCF-calculation: 302.6 MB


           ************************************************************
           *        Program running with 16 parallel MPI-processes    *
           *              working on a common directory               *
           ************************************************************

------------------------------------------------------------------------------
                                ORCA  MP2 
------------------------------------------------------------------------------

Freezing NCore=104 chemical core electrons

----------
MP2 ENERGY (disk based algorithm)
----------

Dimension of the basis                    ...  918
Memory devoted to MP2                     ... 2000 MB   
Data format for buffers                   ... DOUBLE
Compression type for matrix containers    ... UNCOMPRESSED

-------------------------------
PARTIAL EXCHANGE TRANSFORMATION
-------------------------------

Transformation type                        ... one-operator
Generation of integrals (i,mue|j,nue)      ... ON
Generation of integrals (mue,kappa|nue,tau)... OFF
Generation of integrals (i,mue|a,nue)      ... OFF
Dimension of the basis                     ...  918
Number of internal MOs                     ...  127 (  52- 178)
Pair cutoff                                ... 2.500e-12 Eh
Number of AO pairs in the trafo            ... 421821
Total Number of distinct AO pairs          ... 421821
Memory devoted for trafo                   ... 2000.0 MB 
Max. Number of MO pairs treated together   ...  311      
Number Format for Storage                  ... Double (8 Byte)
Integral package used                      ... LIBINT

Starting integral evaluation:
    ... done with AO integral generation
Closing buffer AOK     (38.26 GB; CompressionRatio= 1.33)
Collecting buffer AOK 
Number of MO pairs included in the trafo   ... 8128
------------------------
SORTING OF (i,mue|j,nue)
------------------------

IBATCH = 1 of  2
IBATCH = 2 of  2
Closing buffer KAO     (51.03 GB; CompressionRatio= 1.00)
Collecting buffer KAO 
N(AO-Batches) Done                         ...  85843603 
N(AO-Batches) Skipped                      ...  82468565 
N(IJ)-pairs Skipped                        ...         0 
TOTAL TIME for half transformation         ...  2269.426 sec
AO-integral generation                     ...   211.675 sec
Half transformation                        ...   426.083 sec
K-integral sorting                         ...  1413.545 sec
Process 10:   Internal MO 132
Process 13:   Internal MO 156

Finished integral transformation - now doing MP2 part

Process  4:   Internal MO  84
Process  1:   Internal MO  60
Process  7:   Internal MO 108
OPERATOR COMBINATION   0   0: ij=( 52..178, 52..178)
Process  0:   Internal MO  54
Process  2:   Internal MO  69
Process  0:   Internal MO  57
Process  1:   Internal MO  63
Process  5:   Internal MO  93
Process  3:   Internal MO  78
Process  8:   Internal MO 117
Process  1:   Internal MO  66
Process  2:   Internal MO  72
Process  6:   Internal MO 102
Process 14:   Internal MO 165
Process  4:   Internal MO  87
Process 11:   Internal MO 141
Process  2:   Internal MO  75
Process  3:   Internal MO  81
Process  9:   Internal MO 126
Process  7:   Internal MO 111
Process  5:   Internal MO  96
Process 12:   Internal MO 150
Process 10:   Internal MO 135
Process  6:   Internal MO 105
Process  4:   Internal MO  90
Process 15:   Internal MO 174
Process  8:   Internal MO 120
Process  7:   Internal MO 114
Process  5:   Internal MO  99
Process  9:   Internal MO 129
Process 13:   Internal MO 159
Process 11:   Internal MO 144
Process 14:   Internal MO 168
Process 12:   Internal MO 153
Process 10:   Internal MO 138
Process  8:   Internal MO 123
Process 15:   Internal MO 177
Process 11:   Internal MO 147
Process 13:   Internal MO 162
Process 14:   Internal MO 171
-----------------------------------------------
 MP2 CORRELATION ENERGY   :     -7.283804470 Eh
-----------------------------------------------


-------
TIMINGS
-------
Total time                : 2555.391 sec
Integral trafo            : 2272.034 sec ( 88.9%)
K(i,j)                    :    6.721 sec (  0.3%)
T(i,j)                    :    0.514 sec (  0.0%)

---------------------------------------
MP2 TOTAL ENERGY:    -2130.886898485 Eh
---------------------------------------

Maximum memory used throughout the entire MP2-calculation: 2275.3 MB

-------------------------   --------------------
FINAL SINGLE POINT ENERGY     -2130.886898485009
-------------------------   --------------------


                            ***************************************
                            *     ORCA property calculations      *
                            ***************************************


  WARNING: The energy has been calculated at the MP2 level but the densities
           used in the property calculations are still SCF densities
           MP2 response densities have not been calculated 
           use %mp2 Density relaxed end
           or  %mp2 Density unrelaxed end

                                    ---------------------
                                    Active property flags
                                    ---------------------
   (+) Dipole Moment


------------------------------------------------------------------------------
                       ORCA ELECTRIC PROPERTIES CALCULATION
------------------------------------------------------------------------------

Dipole Moment Calculation                       ... on
Quadrupole Moment Calculation                   ... off
Polarizability Calculation                      ... off
GBWName                                         ... /scratch/allen/tmpyp4_amber_gaff2/conf1/conf1/Conf213.orca.gbw
Electron density                                ... /scratch/allen/tmpyp4_amber_gaff2/conf1/conf1/Conf213.orca.scfp
The origin for moment calculation is the CENTER OF MASS  = ( 0.002633, -0.002300 -0.001030)

-------------
DIPOLE MOMENT
-------------
                                X             Y             Z
Electronic contribution:      2.16307      -3.78976      -0.16065
Nuclear contribution   :      0.07607       0.23934       0.16105
                        -----------------------------------------
Total Dipole Moment    :      2.23914      -3.55042       0.00040
                        -----------------------------------------
Magnitude (a.u.)       :      4.19753
Magnitude (Debye)      :     10.66926



--------------------
Rotational spectrum 
--------------------
 
Rotational constants in cm-1:     0.001500     0.001478     0.000761 
Rotational constants in MHz :    44.976628    44.310339    22.803321 

 Dipole components along the rotational axes: 
x,y,z [a.u.] :     3.007498    -2.928171    -0.000464 
x,y,z [Debye]:     7.644452    -7.442818    -0.001179 

 

Timings for individual modules:

Sum of individual times         ...     4291.433 sec (=  71.524 min)
GTO integral calculation        ...        3.505 sec (=   0.058 min)   0.1 %
SCF iterations                  ...     1714.170 sec (=  28.570 min)  39.9 %
MP2 module                      ...     2573.758 sec (=  42.896 min)  60.0 %
                             ****ORCA TERMINATED NORMALLY****
TOTAL RUN TIME: 0 days 1 hours 11 minutes 34 seconds 926 msec
# of primitive gaussian functions

