
                                 *****************
                                 * O   R   C   A *
                                 *****************

                                            #,                                       
                                            ###                                      
                                            ####                                     
                                            #####                                    
                                            ######                                   
                                           ########,                                 
                                     ,,################,,,,,                         
                               ,,#################################,,                 
                          ,,##########################################,,             
                       ,#########################################, ''#####,          
                    ,#############################################,,   '####,        
                  ,##################################################,,,,####,       
                ,###########''''           ''''###############################       
              ,#####''   ,,,,##########,,,,          '''####'''          '####       
            ,##' ,,,,###########################,,,                        '##       
           ' ,,###''''                  '''############,,,                           
         ,,##''                                '''############,,,,        ,,,,,,###''
      ,#''                                            '''#######################'''  
     '                                                          ''''####''''         
             ,#######,   #######,   ,#######,      ##                                
            ,#'     '#,  ##    ##  ,#'     '#,    #''#        ######   ,####,        
            ##       ##  ##   ,#'  ##            #'  '#       #        #'  '#        
            ##       ##  #######   ##           ,######,      #####,   #    #        
            '#,     ,#'  ##    ##  '#,     ,#' ,#      #,         ##   #,  ,#        
             '#######'   ##     ##  '#######'  #'      '#     #####' # '####'        



                  #######################################################
                  #                        -***-                        #
                  #          Department of theory and spectroscopy      #
                  #    Directorship and core code : Frank Neese         #
                  #        Max Planck Institute fuer Kohlenforschung    #
                  #                Kaiser Wilhelm Platz 1               #
                  #                 D-45470 Muelheim/Ruhr               #
                  #                      Germany                        #
                  #                                                     #
                  #                  All rights reserved                #
                  #                        -***-                        #
                  #######################################################


                         Program Version 5.0.4 -  RELEASE  -


 With contributions from (in alphabetic order):
   Daniel Aravena         : Magnetic Suceptibility
   Michael Atanasov       : Ab Initio Ligand Field Theory (pilot matlab implementation)
   Alexander A. Auer      : GIAO ZORA, VPT2 properties, NMR spectrum
   Ute Becker             : Parallelization
   Giovanni Bistoni       : ED, misc. LED, open-shell LED, HFLD
   Martin Brehm           : Molecular dynamics
   Dmytro Bykov           : SCF Hessian
   Vijay G. Chilkuri      : MRCI spin determinant printing, contributions to CSF-ICE
   Dipayan Datta          : RHF DLPNO-CCSD density
   Achintya Kumar Dutta   : EOM-CC, STEOM-CC
   Dmitry Ganyushin       : Spin-Orbit,Spin-Spin,Magnetic field MRCI
   Miquel Garcia          : C-PCM and meta-GGA Hessian, CC/C-PCM, Gaussian charge scheme
   Yang Guo               : DLPNO-NEVPT2, F12-NEVPT2, CIM, IAO-localization
   Andreas Hansen         : Spin unrestricted coupled pair/coupled cluster methods
   Benjamin Helmich-Paris : MC-RPA, TRAH-SCF, COSX integrals
   Lee Huntington         : MR-EOM, pCC
   Robert Izsak           : Overlap fitted RIJCOSX, COSX-SCS-MP3, EOM
   Marcus Kettner         : VPT2
   Christian Kollmar      : KDIIS, OOCD, Brueckner-CCSD(T), CCSD density, CASPT2, CASPT2-K
   Simone Kossmann        : Meta GGA functionals, TD-DFT gradient, OOMP2, MP2 Hessian
   Martin Krupicka        : Initial AUTO-CI
   Lucas Lang             : DCDCAS
   Marvin Lechner         : AUTO-CI (C++ implementation), FIC-MRCC
   Dagmar Lenk            : GEPOL surface, SMD
   Dimitrios Liakos       : Extrapolation schemes; Compound Job, initial MDCI parallelization
   Dimitrios Manganas     : Further ROCIS development; embedding schemes
   Dimitrios Pantazis     : SARC Basis sets
   Anastasios Papadopoulos: AUTO-CI, single reference methods and gradients
   Taras Petrenko         : DFT Hessian,TD-DFT gradient, ASA, ECA, R-Raman, ABS, FL, XAS/XES, NRVS
   Peter Pinski           : DLPNO-MP2, DLPNO-MP2 Gradient
   Christoph Reimann      : Effective Core Potentials
   Marius Retegan         : Local ZFS, SOC
   Christoph Riplinger    : Optimizer, TS searches, QM/MM, DLPNO-CCSD(T), (RO)-DLPNO pert. Triples
   Tobias Risthaus        : Range-separated hybrids, TD-DFT gradient, RPA, STAB
   Michael Roemelt        : Original ROCIS implementation
   Masaaki Saitow         : Open-shell DLPNO-CCSD energy and density
   Barbara Sandhoefer     : DKH picture change effects
   Avijit Sen             : IP-ROCIS
   Kantharuban Sivalingam : CASSCF convergence, NEVPT2, FIC-MRCI
   Bernardo de Souza      : ESD, SOC TD-DFT
   Georgi Stoychev        : AutoAux, RI-MP2 NMR, DLPNO-MP2 response
   Willem Van den Heuvel  : Paramagnetic NMR
   Boris Wezisla          : Elementary symmetry handling
   Frank Wennmohs         : Technical directorship


 We gratefully acknowledge several colleagues who have allowed us to
 interface, adapt or use parts of their codes:
   Stefan Grimme, W. Hujo, H. Kruse, P. Pracht,  : VdW corrections, initial TS optimization,
                  C. Bannwarth, S. Ehlert          DFT functionals, gCP, sTDA/sTD-DF
   Ed Valeev, F. Pavosevic, A. Kumar             : LibInt (2-el integral package), F12 methods
   Garnet Chan, S. Sharma, J. Yang, R. Olivares  : DMRG
   Ulf Ekstrom                                   : XCFun DFT Library
   Mihaly Kallay                                 : mrcc  (arbitrary order and MRCC methods)
   Jiri Pittner, Ondrej Demel                    : Mk-CCSD
   Frank Weinhold                                : gennbo (NPA and NBO analysis)
   Christopher J. Cramer and Donald G. Truhlar   : smd solvation model
   Lars Goerigk                                  : TD-DFT with DH, B97 family of functionals
   V. Asgeirsson, H. Jonsson                     : NEB implementation
   FAccTs GmbH                                   : IRC, NEB, NEB-TS, DLPNO-Multilevel, CI-OPT
                                                   MM, QMMM, 2- and 3-layer-ONIOM, Crystal-QMMM,
                                                   LR-CPCM, SF, NACMEs, symmetry and pop. for TD-DFT,
                                                   nearIR, NL-DFT gradient (VV10), updates on ESD,
                                                   ML-optimized integration grids
   S Lehtola, MJT Oliveira, MAL Marques          : LibXC Library
   Liviu Ungur et al                             : ANISO software


 Your calculation uses the libint2 library for the computation of 2-el integrals
 For citations please refer to: http://libint.valeyev.net

 Your ORCA version has been built with support for libXC version: 5.1.0
 For citations please refer to: https://tddft.org/programs/libxc/

 This ORCA versions uses:
   CBLAS   interface :  Fast vector & matrix operations
   LAPACKE interface :  Fast linear algebra routines
   SCALAPACK package :  Parallel linear algebra routines
   Shared memory     :  Shared parallel matrices
   BLAS/LAPACK       :  OpenBLAS 0.3.15  USE64BITINT DYNAMIC_ARCH NO_AFFINITY Sandybridge SINGLE_THREADED
        Core in use  :  Sandybridge
   Copyright (c) 2011-2014, The OpenBLAS Project


================================================================================

----- Orbital basis set information -----
Your calculation utilizes the basis: cc-pVDZ 
       H, B-Ne : Obtained from the ccRepo (grant-hill.group.shef.ac.uk/ccrepo) Feb. 2017
                 T. H. Dunning, Jr., J. Chem. Phys. 90, 1007 (1989)
            He : Obtained from the ccRepo (grant-hill.group.shef.ac.uk/ccrepo) Feb. 2017
                 D. E. Woon, T. H. Dunning, Jr., J. Chem. Phys. 100, 2975 (1994)
  Li-Be, Na-Mg : Obtained from the ccRepo (grant-hill.group.shef.ac.uk/ccrepo) Feb. 2017
                 B. P. Prascher, D. E. Woon, K. A. Peterson, T. H. Dunning, Jr., A. K. Wilson, Theor. Chem. Acc. 128, 69 (2011)
         Al-Ar : Obtained from the ccRepo (grant-hill.group.shef.ac.uk/ccrepo) Feb. 2017
                 D. E. Woon, T. H. Dunning, Jr., J. Chem. Phys. 98, 1358 (1993)
            Ca : Obtained from the Peterson Research Group Website (tyr0.chem.wsu.edu/~kipeters) Feb. 2017
                 J. Koput, K. A. Peterson, J. Phys. Chem. 106, 9595 (2002)
         Sc-Zn : Obtained from the ccRepo (grant-hill.group.shef.ac.uk/ccrepo) Feb. 2017
                 N. B. Balabanov, K. A. Peterson, J. Chem. Phys. 123, 064107 (2005)
                 N. B. Balabanov, K. A. Peterson, J. Chem. Phys. 125, 074110 (2006)
         Ga-Kr : Obtained from the ccRepo (grant-hill.group.shef.ac.uk/ccrepo) Feb. 2017
                 A. K. Wilson, D. E. Woon, K. A. Peterson, T. H. Dunning, Jr., J. Chem. Phys. 110, 7667 (1999)

================================================================================
                                        WARNINGS
                       Please study these warnings very carefully!
================================================================================


WARNING: No MP2 level density has been requested!
         To caclulate MP2 level properties use
         %mp2 Density relaxed end
         or
         %mp2 Density unrelaxed end

WARNING: Post HF methods need fully converged wavefunctions
  ===> : Setting SCFConvForced true
         You can overwrite this default with %scf ConvForced false 


INFO   : the flag for use of the SHARK integral package has been found!

================================================================================
                                       INPUT FILE
================================================================================
NAME = /scratch/allen/tmpyp4_amber_gaff2/2.Mdgx/conf11/conf11/Conf169.orca
|  1> ! PAL2
|  2> ! mp2 cc-pvdz TightSCF  NoKeepInts
|  3> 
|  4> %scf
|  5>   MaxCore 2000
|  6> end
|  7> %mp2
|  8>   MaxCore 2000
|  9> end
| 10> * xyz 0 1
| 11>    C       -4.93200         5.20300        -0.18500
| 12>    C        1.47400         4.04100         0.05700
| 13>    C       -2.80200         4.09300         0.04900
| 14>    C       -2.23600         5.34800         0.32300
| 15>    C       -3.02900         6.47800         0.33700
| 16>    C       -5.18400         7.62100         0.14200
| 17>    C        0.13200         4.30700         0.06100
| 18>    C       -0.56900         3.05600         0.04700
| 19>    C        1.64900         2.61800         0.02300
| 20>    C       -4.18200         4.04300        -0.20400
| 21>    N       -4.35600         6.39700         0.08200
| 22>    N        0.38800         2.06700         0.02500
| 23>    N       -2.01000         0.39500        -0.07500
| 24>    N       -0.38800        -2.07400        -0.02700
| 25>    N        2.01000        -0.40100         0.06500
| 26>    C       -1.96000         2.86100         0.02400
| 27>    C       -2.62300         1.61500        -0.01800
| 28>    C       -5.57300        -4.32900         1.06600
| 29>    C       -4.07300         1.47100         0.05600
| 30>    C       -4.10600        -2.75600        -0.02600
| 31>    C       -4.99500        -2.75700        -1.11100
| 32>    C       -6.13200        -3.54200        -1.07600
| 33>    C       -7.65100        -5.11300         0.04000
| 34>    C       -4.32400         0.14100         0.03700
| 35>    C       -3.02500        -0.52000        -0.04800
| 36>    C       -4.42200        -3.56600         1.07500
| 37>    N       -6.40700        -4.31300         0.00100
| 38>    C       -2.86700        -1.92200        -0.04000
| 39>    C       -1.65000        -2.62400        -0.02700
| 40>    C        3.56800        -6.14200        -1.04000
| 41>    C       -1.47600        -4.04900        -0.03400
| 42>    C        2.80300        -4.09900        -0.00800
| 43>    C        3.65700        -4.38400         1.06900
| 44>    C        4.42700        -5.53000         1.05900
| 45>    C        5.24500        -7.58800         0.01400
| 46>    C       -0.13400        -4.31500        -0.02200
| 47>    C        0.56800        -3.06400        -0.02700
| 48>    C        2.77500        -5.01200        -1.07400
| 49>    N        4.37600        -6.39100         0.01700
| 50>    C        1.95900        -2.86900        -0.00900
| 51>    C        2.62100        -1.62200         0.00900
| 52>    C        5.54300         4.33900        -1.13000
| 53>    C        4.07000        -1.47900        -0.09400
| 54>    C        4.10400         2.75100        -0.02100
| 55>    C        5.02700         2.72900         1.03600
| 56>    C        6.16600         3.50900         0.97800
| 57>    C        7.61900         5.15300        -0.11500
| 58>    C        4.32100        -0.14800        -0.09200
| 59>    C        3.02500         0.51400         0.01500
| 60>    C        4.38700         3.58200        -1.11500
| 61>    C        2.86600         1.91600         0.01300
| 62>    N        6.41300         4.29600        -0.09500
| 63>    H       -5.99600         5.21400        -0.38600
| 64>    H        2.27400         4.76600         0.08100
| 65>    H       -1.17900         5.45000         0.53600
| 66>    H       -2.64000         7.46500         0.55200
| 67>    H       -5.49900         7.78700         1.17500
| 68>    H       -4.59100         8.46400        -0.20900
| 69>    H       -6.05600         7.48600        -0.49700
| 70>    H       -0.33200         5.28200         0.06900
| 71>    H       -4.67500         3.10700        -0.43600
| 72>    H        0.18200         1.07200         0.00500
| 73>    H       -0.18300        -1.08000        -0.02100
| 74>    H       -5.86400        -4.96200         1.89500
| 75>    H       -4.79400         2.27200         0.13900
| 76>    H       -4.80000        -2.16000        -1.99400
| 77>    H       -6.84100        -3.58200        -1.89300
| 78>    H       -8.42800        -4.53600         0.54600
| 79>    H       -7.95600        -5.33700        -0.98100
| 80>    H       -7.45600        -6.03700         0.58400
| 81>    H       -5.28700        -0.34400         0.10000
| 82>    H       -3.78000        -3.60100         1.94700
| 83>    H        3.58700        -6.86800        -1.84300
| 84>    H       -2.27600        -4.77400        -0.05000
| 85>    H        3.71400        -3.72400         1.92600
| 86>    H        5.09200        -5.79500         1.87100
| 87>    H        6.20500        -7.32900        -0.43900
| 88>    H        5.39300        -7.91700         1.04200
| 89>    H        4.75900        -8.37300        -0.56400
| 90>    H        0.32900        -5.29000        -0.00800
| 91>    H        2.14600        -4.84200        -1.94000
| 92>    H        5.80800         4.98600        -1.95600
| 93>    H        4.78800        -2.28100        -0.18500
| 94>    H        4.86000         2.11400         1.91200
| 95>    H        6.90100         3.53100         1.77200
| 96>    H        7.38300         6.10900         0.35600
| 97>    H        8.41400         4.65200         0.43500
| 98>    H        7.92100         5.31000        -1.15000
| 99>    H        5.28300         0.33600        -0.17900
|100>    H        3.72000         3.63200        -1.96700
|101> *
|102> 
|103>                          ****END OF INPUT****
================================================================================

                       ****************************
                       * Single Point Calculation *
                       ****************************

---------------------------------
CARTESIAN COORDINATES (ANGSTROEM)
---------------------------------
  C     -4.932000    5.203000   -0.185000
  C      1.474000    4.041000    0.057000
  C     -2.802000    4.093000    0.049000
  C     -2.236000    5.348000    0.323000
  C     -3.029000    6.478000    0.337000
  C     -5.184000    7.621000    0.142000
  C      0.132000    4.307000    0.061000
  C     -0.569000    3.056000    0.047000
  C      1.649000    2.618000    0.023000
  C     -4.182000    4.043000   -0.204000
  N     -4.356000    6.397000    0.082000
  N      0.388000    2.067000    0.025000
  N     -2.010000    0.395000   -0.075000
  N     -0.388000   -2.074000   -0.027000
  N      2.010000   -0.401000    0.065000
  C     -1.960000    2.861000    0.024000
  C     -2.623000    1.615000   -0.018000
  C     -5.573000   -4.329000    1.066000
  C     -4.073000    1.471000    0.056000
  C     -4.106000   -2.756000   -0.026000
  C     -4.995000   -2.757000   -1.111000
  C     -6.132000   -3.542000   -1.076000
  C     -7.651000   -5.113000    0.040000
  C     -4.324000    0.141000    0.037000
  C     -3.025000   -0.520000   -0.048000
  C     -4.422000   -3.566000    1.075000
  N     -6.407000   -4.313000    0.001000
  C     -2.867000   -1.922000   -0.040000
  C     -1.650000   -2.624000   -0.027000
  C      3.568000   -6.142000   -1.040000
  C     -1.476000   -4.049000   -0.034000
  C      2.803000   -4.099000   -0.008000
  C      3.657000   -4.384000    1.069000
  C      4.427000   -5.530000    1.059000
  C      5.245000   -7.588000    0.014000
  C     -0.134000   -4.315000   -0.022000
  C      0.568000   -3.064000   -0.027000
  C      2.775000   -5.012000   -1.074000
  N      4.376000   -6.391000    0.017000
  C      1.959000   -2.869000   -0.009000
  C      2.621000   -1.622000    0.009000
  C      5.543000    4.339000   -1.130000
  C      4.070000   -1.479000   -0.094000
  C      4.104000    2.751000   -0.021000
  C      5.027000    2.729000    1.036000
  C      6.166000    3.509000    0.978000
  C      7.619000    5.153000   -0.115000
  C      4.321000   -0.148000   -0.092000
  C      3.025000    0.514000    0.015000
  C      4.387000    3.582000   -1.115000
  C      2.866000    1.916000    0.013000
  N      6.413000    4.296000   -0.095000
  H     -5.996000    5.214000   -0.386000
  H      2.274000    4.766000    0.081000
  H     -1.179000    5.450000    0.536000
  H     -2.640000    7.465000    0.552000
  H     -5.499000    7.787000    1.175000
  H     -4.591000    8.464000   -0.209000
  H     -6.056000    7.486000   -0.497000
  H     -0.332000    5.282000    0.069000
  H     -4.675000    3.107000   -0.436000
  H      0.182000    1.072000    0.005000
  H     -0.183000   -1.080000   -0.021000
  H     -5.864000   -4.962000    1.895000
  H     -4.794000    2.272000    0.139000
  H     -4.800000   -2.160000   -1.994000
  H     -6.841000   -3.582000   -1.893000
  H     -8.428000   -4.536000    0.546000
  H     -7.956000   -5.337000   -0.981000
  H     -7.456000   -6.037000    0.584000
  H     -5.287000   -0.344000    0.100000
  H     -3.780000   -3.601000    1.947000
  H      3.587000   -6.868000   -1.843000
  H     -2.276000   -4.774000   -0.050000
  H      3.714000   -3.724000    1.926000
  H      5.092000   -5.795000    1.871000
  H      6.205000   -7.329000   -0.439000
  H      5.393000   -7.917000    1.042000
  H      4.759000   -8.373000   -0.564000
  H      0.329000   -5.290000   -0.008000
  H      2.146000   -4.842000   -1.940000
  H      5.808000    4.986000   -1.956000
  H      4.788000   -2.281000   -0.185000
  H      4.860000    2.114000    1.912000
  H      6.901000    3.531000    1.772000
  H      7.383000    6.109000    0.356000
  H      8.414000    4.652000    0.435000
  H      7.921000    5.310000   -1.150000
  H      5.283000    0.336000   -0.179000
  H      3.720000    3.632000   -1.967000

----------------------------
CARTESIAN COORDINATES (A.U.)
----------------------------
  NO LB      ZA    FRAG     MASS         X           Y           Z
   0 C     6.0000    0    12.011   -9.320129    9.832245   -0.349599
   1 C     6.0000    0    12.011    2.785456    7.636383    0.107714
   2 C     6.0000    0    12.011   -5.295013    7.734649    0.092597
   3 C     6.0000    0    12.011   -4.225428   10.106255    0.610382
   4 C     6.0000    0    12.011   -5.723980   12.241646    0.636838
   5 C     6.0000    0    12.011   -9.796340   14.401603    0.268341
   6 C     6.0000    0    12.011    0.249444    8.139050    0.115273
   7 C     6.0000    0    12.011   -1.075254    5.775003    0.088817
   8 C     6.0000    0    12.011    3.116158    4.947303    0.043464
   9 C     6.0000    0    12.011   -7.902835    7.640163   -0.385504
  10 N     7.0000    0    14.007   -8.231647   12.088578    0.154958
  11 N     7.0000    0    14.007    0.733214    3.906064    0.047243
  12 N     7.0000    0    14.007   -3.798350    0.746442   -0.141729
  13 N     7.0000    0    14.007   -0.733214   -3.919292   -0.051023
  14 N     7.0000    0    14.007    3.798350   -0.757780    0.122832
  15 C     6.0000    0    12.011   -3.703863    5.406506    0.045353
  16 C     6.0000    0    12.011   -4.956752    3.051908   -0.034015
  17 C     6.0000    0    12.011  -10.531444   -8.180624    2.014448
  18 C     6.0000    0    12.011   -7.696855    2.779787    0.105825
  19 C     6.0000    0    12.011   -7.759216   -5.208085   -0.049133
  20 C     6.0000    0    12.011   -9.439182   -5.209975   -2.099486
  21 C     6.0000    0    12.011  -11.587801   -6.693410   -2.033345
  22 C     6.0000    0    12.011  -14.458295   -9.662170    0.075589
  23 C     6.0000    0    12.011   -8.171176    0.266451    0.069920
  24 C     6.0000    0    12.011   -5.716422   -0.982658   -0.090707
  25 C     6.0000    0    12.011   -8.356369   -6.738763    2.031456
  26 N     7.0000    0    14.007  -12.107475   -8.150389    0.001890
  27 C     6.0000    0    12.011   -5.417845   -3.632054   -0.075589
  28 C     6.0000    0    12.011   -3.118048   -4.958641   -0.051023
  29 C     6.0000    0    12.011    6.742543  -11.606698   -1.965315
  30 C     6.0000    0    12.011   -2.789236   -7.651501   -0.064251
  31 C     6.0000    0    12.011    5.296902   -7.745987   -0.015118
  32 C     6.0000    0    12.011    6.910728   -8.284559    2.020117
  33 C     6.0000    0    12.011    8.365818  -10.450186    2.001220
  34 C     6.0000    0    12.011    9.911614  -14.339242    0.026456
  35 C     6.0000    0    12.011   -0.253223   -8.154168   -0.041574
  36 C     6.0000    0    12.011    1.073364   -5.790121   -0.051023
  37 C     6.0000    0    12.011    5.243990   -9.471307   -2.029566
  38 N     7.0000    0    14.007    8.269442  -12.077240    0.032125
  39 C     6.0000    0    12.011    3.701973   -5.421624   -0.017008
  40 C     6.0000    0    12.011    4.952972   -3.065136    0.017008
  41 C     6.0000    0    12.011   10.474752    8.199522   -2.135391
  42 C     6.0000    0    12.011    7.691185   -2.794905   -0.177634
  43 C     6.0000    0    12.011    7.755436    5.198637   -0.039684
  44 C     6.0000    0    12.011    9.499653    5.157063    1.957756
  45 C     6.0000    0    12.011   11.652051    6.631049    1.848152
  46 C     6.0000    0    12.011   14.397823    9.737759   -0.217319
  47 C     6.0000    0    12.011    8.165507   -0.279679   -0.173855
  48 C     6.0000    0    12.011    5.716422    0.971319    0.028346
  49 C     6.0000    0    12.011    8.290229    6.768999   -2.107045
  50 C     6.0000    0    12.011    5.415955    3.620715    0.024566
  51 N     7.0000    0    14.007   12.118814    8.118263   -0.179524
  52 H     1.0000    0     1.008  -11.330798    9.853032   -0.729434
  53 H     1.0000    0     1.008    4.297237    9.006435    0.153068
  54 H     1.0000    0     1.008   -2.227987   10.299007    1.012893
  55 H     1.0000    0     1.008   -4.988877   14.106806    1.043129
  56 H     1.0000    0     1.008  -10.391604   14.715297    2.220428
  57 H     1.0000    0     1.008   -8.675733   15.994642   -0.394953
  58 H     1.0000    0     1.008  -11.444181   14.146490   -0.939194
  59 H     1.0000    0     1.008   -0.627389    9.981533    0.130391
  60 H     1.0000    0     1.008   -8.834470    5.871379   -0.823921
  61 H     1.0000    0     1.008    0.343930    2.025786    0.009449
  62 H     1.0000    0     1.008   -0.345820   -2.040904   -0.039684
  63 H     1.0000    0     1.008  -11.081354   -9.376821    3.581031
  64 H     1.0000    0     1.008   -9.059347    4.293458    0.262672
  65 H     1.0000    0     1.008   -9.070685   -4.081808   -3.768114
  66 H     1.0000    0     1.008  -12.927616   -6.768999   -3.577252
  67 H     1.0000    0     1.008  -15.926612   -8.571798    1.031790
  68 H     1.0000    0     1.008  -15.034661  -10.085468   -1.853821
  69 H     1.0000    0     1.008  -14.089798  -11.408277    1.103600
  70 H     1.0000    0     1.008   -9.990982   -0.650066    0.188973
  71 H     1.0000    0     1.008   -7.143165   -6.804904    3.679297
  72 H     1.0000    0     1.008    6.778448  -12.978639   -3.482765
  73 H     1.0000    0     1.008   -4.301017   -9.021553   -0.094486
  74 H     1.0000    0     1.008    7.018443   -7.037340    3.639613
  75 H     1.0000    0     1.008    9.622485  -10.950963    3.535678
  76 H     1.0000    0     1.008   11.725751  -13.849803   -0.829590
  77 H     1.0000    0     1.008   10.191293  -14.960962    1.969095
  78 H     1.0000    0     1.008    8.993207  -15.822677   -1.065806
  79 H     1.0000    0     1.008    0.621720   -9.996651   -0.015118
  80 H     1.0000    0     1.008    4.055352   -9.150054   -3.666069
  81 H     1.0000    0     1.008   10.975529    9.422175   -3.696304
  82 H     1.0000    0     1.008    9.048009   -4.310465   -0.349599
  83 H     1.0000    0     1.008    9.184069    3.994881    3.613156
  84 H     1.0000    0     1.008   13.041000    6.672623    3.348595
  85 H     1.0000    0     1.008   13.951848   11.544337    0.672743
  86 H     1.0000    0     1.008   15.900156    8.791006    0.822031
  87 H     1.0000    0     1.008   14.968521   10.034446   -2.173185
  88 H     1.0000    0     1.008    9.983423    0.634948   -0.338261
  89 H     1.0000    0     1.008    7.029781    6.863485   -3.717091

--------------------------------
INTERNAL COORDINATES (ANGSTROEM)
--------------------------------
 C      0   0   0     0.000000000000     0.00000000     0.00000000
 C      1   0   0     6.515032156482     0.00000000     0.00000000
 C      1   2   0     2.413245946852    17.54197337     0.00000000
 C      3   1   2     1.403729674831    87.91317117    22.15010396
 C      4   3   1     1.380559669120   120.14286329     0.14820326
 C      5   4   3     2.447140984905   152.53955272     1.61114479
 C      2   1   3     1.368114030335     2.47741081   259.73286448
 C      7   2   4     1.434084376876   108.05010202   203.77906020
 C      2   1   3     1.434123425651   107.22209128    13.87475547
 C      1   2   7     1.381470593245    46.91625150   244.86884624
 N      1   2   7     1.352294716399    74.41490201    56.71156302
 N      9   2   1     1.376127174356   106.58526707   356.85751360
 N     12   9   2     2.925062050624   168.53581413   171.12065651
 N     13  12   9     2.954513327098    91.55032014    11.12112580
 N     14  13  12     2.925371258490    88.43092389   359.84326247
 C      8   7   2     1.404790019896   127.24786865   181.11170171
 C     13  12   9     1.366535034311    81.72106996   188.00453233
 C     14  13  12     5.758810554272    80.56209567   166.76250791
 C     17  13  12     1.459010623676   111.08861209   183.82872609
 C     18  14  13     2.412235892279    27.27532823    36.33507194
 C     20  18  14     1.402692767501    87.95206320   148.94598259
 C     21  20  18     1.382106725257   120.14573887   359.70382047
 C     18  14  13     2.446510985056   144.15733107    82.80075377
 C     19  17  13     1.353610726908   106.29293361   359.75308708
 C     13  12   9     1.366813447402   172.21332906    33.46711076
 C     18  14  13     1.380960173213    15.08449437   309.23336894
 N     22  21  20     1.352773077792   120.73759875     0.27865223
 C     25  13  17     1.410897586645   125.60330303   182.37774668
 C     14  13  12     1.376642291955    80.24689249   177.85461986
 C     14  13  12     5.764089607215   164.51507311   312.20821879
 C     29  14  13     1.435600919476   106.58649366   178.76395472
 C     30  14  13     2.413316804732    27.10625047    82.12560436
 C     32  30  14     1.403734305344    87.90059683   149.76154742
 C     33  32  30     1.380694028378   120.14881443   359.74174632
 C     34  33  32     2.448777858443   152.49203239     2.45173620
 C     31  29  14     1.368160809262   108.16950133     0.70383075
 C     14  13  12     1.376239804685   169.26375223   353.09862627
 C     30  14  13     1.380907310430    14.68948582   353.70041132
 N     34  33  32     1.352658863128   120.85575621     0.19603406
 C     37  14  29     1.404717053360   126.01551127   180.90772073
 C     15  14  13     1.366491126938    81.61824056   183.09049352
 C      2   1   3     4.249062720177   156.73840908   139.20066561
 C     41  15  14     1.459677704153   111.05201287   175.08990246
 C     42   2   1     2.412953791518    41.78584867   207.65565564
 C     44  42   2     1.403446472082    87.95153797   233.97558675
 C     45  44  42     1.381696421071   120.11137308     0.19721020
 C     42   2   1     2.450019795838   135.97209175   117.97050475
 C     43  41  15     1.354461516618   106.26758155     0.30894352
 C     15  14  13     1.367461151185   171.87382904   332.35056460
 C     42   2   1     1.381886391857    32.59078432   256.51093484
 C      9   2   1     1.404988612053   126.98745415   177.86185113
 N     42   2   1     1.352765315936   113.57249190   145.70709394
 H      1   2   7     1.082874877352   167.11828294   205.82593151
 H      2   1   3     1.079907866440   127.55272969   191.76099651
 H      4   3   1     1.083061401768   121.07074692   179.53849902
 H      5   4   3     1.082457851373   122.81439292   179.41390940
 H      6   5   4     1.092643583242   104.44796442   100.07858101
 H      6   5   4     1.088806227021    84.70425336   209.53207987
 H      6   5   4     1.089463170557   133.92393087   322.40434240
 H     55   4   3     0.981693434836   137.08474640    61.76287950
 H     10   1   2     1.083036933812   118.78365823   190.04851701
 H     12   9   2     1.016297692608   125.29023241   180.00180175
 H     14  13  12     1.014936943854    44.97226959   359.42596618
 H     18  14  13     1.082871645210   128.03556573   234.20482432
 H     61  10   1     1.020789400415   129.74282384   242.80677994
 H     21  20  18     1.083569563987   121.05669627   180.67006309
 H     22  21  20     1.082483256222   122.73097286   180.59748951
 H     23  18  14     1.092105306278   103.92715769   234.93429879
 H     23  18  14     1.088871893291   134.19244188    12.25587044
 H     23  18  14     1.089833473518    84.85857450   125.45241208
 H     24  19  17     1.080075460327   127.28078426   178.44613241
 H     26  18  14     1.083408048706   118.76995697   244.94906660
 H     30  14  13     1.082703098730   127.99711412   279.66882698
 H     31  29  14     1.079759695488   125.22293469   180.92530585
 H     33  32  30     1.083188810873   121.01964473   180.74284758
 H     34  33  32     1.082494341787   122.70821597   180.59516895
 H     35  34  33     1.092652735319   105.73575241    97.19771933
 H     35  34  33     1.089462711615    84.05943581   206.43036958
 H     35  34  33     1.089268102902   133.08365142   318.50306270
 H     36  31  29     1.079439669458   126.61599965   178.98859863
 H     38  30  73     1.083742127999   118.77264435   359.90091293
 H     42   2   1     1.082178358682   119.31790784     2.33862439
 H     43  41  15     1.080281907652   126.36969097   182.06329380
 H     45  44  42     1.083277434455   121.10105945   179.58025624
 H     46  45  44     1.082194529648   122.72144639   179.46906377
 H     47  42   2     1.091546151109   106.65128841   315.16475048
 H     47  42   2     1.088818625851   132.46019523    94.52397119
 H     47  42   2     1.089531091801    83.63838232   206.04504406
 H     48  43  41     1.080402239909   127.23657387   181.62955349
 H     50  42   2     1.083186502870   118.77001737    94.71359229

---------------------------
INTERNAL COORDINATES (A.U.)
---------------------------
 C      0   0   0     0.000000000000     0.00000000     0.00000000
 C      1   0   0    12.311626529442     0.00000000     0.00000000
 C      1   2   0     4.560373933347    17.54197337     0.00000000
 C      3   1   2     2.652664651488    87.91317117    22.15010396
 C      4   3   1     2.608879686173   120.14286329     0.14820326
 C      5   4   3     4.624426272564   152.53955272     1.61114479
 C      2   1   3     2.585360837309     2.47741081   259.73286448
 C      7   2   4     2.710026725231   108.05010202   203.77906020
 C      2   1   3     2.710100516721   107.22209128    13.87475547
 C      1   2   7     2.610601083298    46.91625150   244.86884624
 N      1   2   7     2.555466666342    74.41490201    56.71156302
 N      9   2   1     2.600503484979   106.58526707   356.85751360
 N     12   9   2     5.527566200405   168.53581413   171.12065651
 N     13  12   9     5.583221047236    91.55032014    11.12112580
 N     14  13  12     5.528150518591    88.43092389   359.84326247
 C      8   7   2     2.654668413270   127.24786865   181.11170171
 C     13  12   9     2.582376967257    81.72106996   188.00453233
 C     14  13  12    10.882574804710    80.56209567   166.76250791
 C     17  13  12     2.757130505230   111.08861209   183.82872609
 C     18  14  13     4.558465206823    27.27532823    36.33507194
 C     20  18  14     2.650705180609    87.95206320   148.94598259
 C     21  20  18     2.611803198586   120.14573887   359.70382047
 C     18  14  13     4.623235745386   144.15733107    82.80075377
 C     19  17  13     2.557953565794   106.29293361   359.75308708
 C     13  12   9     2.582903091751   172.21332906    33.46711076
 C     18  14  13     2.609636529225    15.08449437   309.23336894
 N     22  21  20     2.556370638369   120.73759875     0.27865223
 C     25  13  17     2.666210041769   125.60330303   182.37774668
 C     14  13  12     2.601476916169    80.24689249   177.85461986
 C     14  13  12    10.892550769017   164.51507311   312.20821879
 C     29  14  13     2.712892575415   106.58649366   178.76395472
 C     30  14  13     4.560507835333    27.10625047    82.12560436
 C     32  30  14     2.652673401891    87.90059683   149.76154742
 C     33  32  30     2.609133588376   120.14881443   359.74174632
 C     34  33  32     4.627519515267   152.49203239     2.45173620
 C     31  29  14     2.585449236669   108.16950133     0.70383075
 C     14  13  12     2.600716325456   169.26375223   353.09862627
 C     30  14  13     2.609536633043    14.68948582   353.70041132
 N     34  33  32     2.556154803934   120.85575621     0.19603406
 C     37  14  29     2.654530526499   126.01551127   180.90772073
 C     15  14  13     2.582293994346    81.61824056   183.09049352
 C      2   1   3     8.029564866989   156.73840908   139.20066561
 C     41  15  14     2.758391104639   111.05201287   175.08990246
 C     42   2   1     4.559821839776    41.78584867   207.65565564
 C     44  42   2     2.652129475853    87.95153797   233.97558675
 C     45  44  42     2.611027836043   120.11137308     0.19721020
 C     42   2   1     4.629866436820   135.97209175   117.97050475
 C     43  41  15     2.559561325344   106.26758155     0.30894352
 C     15  14  13     2.584127074516   171.87382904   332.35056460
 C     42   2   1     2.611386828803    32.59078432   256.51093484
 C      9   2   1     2.655043698059   126.98745415   177.86185113
 N     42   2   1     2.556355970587   113.57249190   145.70709394
 H      1   2   7     2.046336955499   167.11828294   205.82593151
 H      2   1   3     2.040730117440   127.55272969   191.76099651
 H      4   3   1     2.046689435563   121.07074692   179.53849902
 H      5   4   3     2.045548890609   122.81439292   179.41390940
 H      6   5   4     2.064797134314   104.44796442   100.07858101
 H      6   5   4     2.057545581978    84.70425336   209.53207987
 H      6   5   4     2.058787025346   133.92393087   322.40434240
 H     55   4   3     1.855131739308   137.08474640    61.76287950
 H     10   1   2     2.046643197826   118.78365823   190.04851701
 H     12   9   2     1.920524309565   125.29023241   180.00180175
 H     14  13  12     1.917952867083    44.97226959   359.42596618
 H     18  14  13     2.046330847636   128.03556573   234.20482432
 H     61  10   1     1.929012407194   129.74282384   242.80677994
 H     21  20  18     2.047649722989   121.05669627   180.67006309
 H     22  21  20     2.045596898814   122.73097286   180.59748951
 H     23  18  14     2.063779938267   103.92715769   234.93429879
 H     23  18  14     2.057669673245   134.19244188    12.25587044
 H     23  18  14     2.059486796529    84.85857450   125.45241208
 H     24  19  17     2.041046823986   127.28078426   178.44613241
 H     26  18  14     2.047344503340   118.76995697   244.94906660
 H     30  14  13     2.046012340948   127.99711412   279.66882698
 H     31  29  14     2.040450114918   125.22293469   180.92530585
 H     33  32  30     2.046930203877   121.01964473   180.74284758
 H     34  33  32     2.045617847496   122.70821597   180.59516895
 H     35  34  33     2.064814429233   105.73575241    97.19771933
 H     35  34  33     2.058786158072    84.05943581   206.43036958
 H     35  34  33     2.058418400901   133.08365142   318.50306270
 H     36  31  29     2.039845353366   126.61599965   178.98859863
 H     38  30  73     2.047975821711   118.77264435   359.90091293
 H     42   2   1     2.045020725966   119.31790784     2.33862439
 H     43  41  15     2.041436952892   126.36969097   182.06329380
 H     45  44  42     2.047097678177   121.10105945   179.58025624
 H     46  45  44     2.045051284662   122.72144639   179.46906377
 H     47  42   2     2.062723288131   106.65128841   315.16475048
 H     47  42   2     2.057569012371   132.46019523    94.52397119
 H     47  42   2     2.058915377895    83.63838232   206.04504406
 H     48  43  41     2.041664347903   127.23657387   181.62955349
 H     50  42   2     2.046925842384   118.77001737    94.71359229

---------------------
BASIS SET INFORMATION
---------------------
There are 3 groups of distinct atoms

 Group   1 Type C   : 17s4p1d contracted to 3s2p1d pattern {881/31/1}
 Group   2 Type N   : 17s4p1d contracted to 3s2p1d pattern {881/31/1}
 Group   3 Type H   : 4s1p contracted to 2s1p pattern {31/1}

Atom   0C    basis set group =>   1
Atom   1N    basis set group =>   2
Atom   2C    basis set group =>   1
Atom   3N    basis set group =>   2
Atom   4C    basis set group =>   1
Atom   5N    basis set group =>   2
Atom   6C    basis set group =>   1
Atom   7N    basis set group =>   2
Atom   8C    basis set group =>   1
Atom   9N    basis set group =>   2
Atom  10C    basis set group =>   1
Atom  11N    basis set group =>   2
Atom  12C    basis set group =>   1
Atom  13N    basis set group =>   2
Atom  14C    basis set group =>   1
Atom  15N    basis set group =>   2
Atom  16C    basis set group =>   1
Atom  17C    basis set group =>   1
Atom  18C    basis set group =>   1
Atom  19C    basis set group =>   1
Atom  20C    basis set group =>   1
Atom  21C    basis set group =>   1
Atom  22C    basis set group =>   1
Atom  23C    basis set group =>   1
Atom  24C    basis set group =>   1
Atom  25C    basis set group =>   1
Atom  26C    basis set group =>   1
Atom  27C    basis set group =>   1
Atom  28C    basis set group =>   1
Atom  29C    basis set group =>   1
Atom  30C    basis set group =>   1
Atom  31C    basis set group =>   1
Atom  32C    basis set group =>   1
Atom  33C    basis set group =>   1
Atom  34C    basis set group =>   1
Atom  35C    basis set group =>   1
Atom  36C    basis set group =>   1
Atom  37C    basis set group =>   1
Atom  38C    basis set group =>   1
Atom  39C    basis set group =>   1
Atom  40C    basis set group =>   1
Atom  41C    basis set group =>   1
Atom  42C    basis set group =>   1
Atom  43C    basis set group =>   1
Atom  44C    basis set group =>   1
Atom  45C    basis set group =>   1
Atom  46C    basis set group =>   1
Atom  47C    basis set group =>   1
Atom  48C    basis set group =>   1
Atom  49C    basis set group =>   1
Atom  50C    basis set group =>   1
Atom  51C    basis set group =>   1
Atom  52H    basis set group =>   3
Atom  53H    basis set group =>   3
Atom  54H    basis set group =>   3
Atom  55H    basis set group =>   3
Atom  56H    basis set group =>   3
Atom  57H    basis set group =>   3
Atom  58H    basis set group =>   3
Atom  59H    basis set group =>   3
Atom  60H    basis set group =>   3
Atom  61H    basis set group =>   3
Atom  62H    basis set group =>   3
Atom  63H    basis set group =>   3
Atom  64H    basis set group =>   3
Atom  65H    basis set group =>   3
Atom  66H    basis set group =>   3
Atom  67H    basis set group =>   3
Atom  68H    basis set group =>   3
Atom  69H    basis set group =>   3
Atom  70H    basis set group =>   3
Atom  71H    basis set group =>   3
Atom  72H    basis set group =>   3
Atom  73H    basis set group =>   3
Atom  74H    basis set group =>   3
Atom  75H    basis set group =>   3
Atom  76H    basis set group =>   3
Atom  77H    basis set group =>   3
Atom  78H    basis set group =>   3
Atom  79H    basis set group =>   3
Atom  80H    basis set group =>   3
Atom  81H    basis set group =>   3
Atom  82H    basis set group =>   3
Atom  83H    basis set group =>   3
Atom  84H    basis set group =>   3
Atom  85H    basis set group =>   3
Atom  86H    basis set group =>   3
Atom  87H    basis set group =>   3
Atom  88H    basis set group =>   3
Atom  89H    basis set group =>   3


           ************************************************************
           *        Program running with 16 parallel MPI-processes    *
           *              working on a common directory               *
           ************************************************************
------------------------------------------------------------------------------
                           ORCA GTO INTEGRAL CALCULATION
------------------------------------------------------------------------------
------------------------------------------------------------------------------
                   ___                                                        
                  /   \      - P O W E R E D   B Y -                         
                 /     \                                                     
                 |  |  |   _    _      __       _____    __    __             
                 |  |  |  | |  | |    /  \     |  _  \  |  |  /  |          
                  \  \/   | |  | |   /    \    | | | |  |  | /  /          
                 / \  \   | |__| |  /  /\  \   | |_| |  |  |/  /          
                |  |  |   |  __  | /  /__\  \  |    /   |      \           
                |  |  |   | |  | | |   __   |  |    \   |  |\   \          
                \     /   | |  | | |  |  |  |  | |\  \  |  | \   \       
                 \___/    |_|  |_| |__|  |__|  |_| \__\ |__|  \__/        
                                                                              
                      - O R C A' S   B I G   F R I E N D -                    
                                      &                                       
                       - I N T E G R A L  F E E D E R -                       
                                                                              
 v1 FN, 2020, v2 2021                                                         
------------------------------------------------------------------------------


Reading SHARK input file /scratch/allen/tmpyp4_amber_gaff2/conf1/conf1/Conf169.orca.SHARKINP.tmp ... ok
----------------------
SHARK INTEGRAL PACKAGE
----------------------

Number of atoms                             ...     90
Number of basis functions                   ...   1230
Number of shells                            ...    738
Maximum angular momentum                    ...      2
Integral batch strategy                     ... SHARK/LIBINT Hybrid
RI-J (if used) integral strategy            ... SPLIT-RIJ (Revised 2003 algorithm where possible)
Printlevel                                  ...      1
Contraction scheme used                     ... PARTIAL GENERAL contraction
Coulomb Range Separation                    ... NOT USED
Exchange Range Separation                   ... NOT USED
Finite Nucleus Model                        ... NOT USED
Auxiliary Coulomb fitting basis             ... NOT available
Auxiliary J/K fitting basis                 ... NOT available
Auxiliary Correlation fitting basis         ... NOT available
Auxiliary 'external' fitting basis          ... NOT available
Integral threshold                          ...     2.500000e-11
Primitive cut-off                           ...     2.500000e-12
Primitive pair pre-selection threshold      ...     2.500000e-12

Calculating pre-screening integrals         ... done (  0.1 sec) Dimension = 738
Calculating pre-screening integrals (ORCA)  ... done (  0.3 sec) Dimension = 426
Organizing shell pair data                  ... done (  0.7 sec)
Shell pair information
Total number of shell pairs                 ...    272691
Shell pairs after pre-screening             ...     71716
Total number of primitive shell pairs       ...    422091
Primitive shell pairs kept                  ...     92632
          la=0 lb=0:  29438 shell pairs
          la=1 lb=0:  26034 shell pairs
          la=1 lb=1:   4699 shell pairs
          la=2 lb=0:   7890 shell pairs
          la=2 lb=1:   3126 shell pairs
          la=2 lb=2:    529 shell pairs

Calculating one electron integrals          ... done (  0.2 sec)
Calculating Nuclear repulsion               ... done (  0.0 sec) ENN=   6234.848510919885 Eh

SHARK setup successfully completed in   2.5 seconds

Maximum memory used throughout the entire GTOINT-calculation: 99.1 MB


           ************************************************************
           *        Program running with 16 parallel MPI-processes    *
           *              working on a common directory               *
           ************************************************************
-------------------------------------------------------------------------------
                                 ORCA SCF
-------------------------------------------------------------------------------

------------
SCF SETTINGS
------------
Hamiltonian:
 Ab initio Hamiltonian  Method          .... Hartree-Fock(GTOs)


General Settings:
 Integral files         IntName         .... /scratch/allen/tmpyp4_amber_gaff2/conf1/conf1/Conf169.orca
 Hartree-Fock type      HFTyp           .... RHF
 Total Charge           Charge          ....    0
 Multiplicity           Mult            ....    1
 Number of Electrons    NEL             ....  358
 Basis Dimension        Dim             ....  918
 Nuclear Repulsion      ENuc            ....   6234.8485109199 Eh

Convergence Acceleration:
 DIIS                   CNVDIIS         .... on
   Start iteration      DIISMaxIt       ....    12
   Startup error        DIISStart       ....  0.200000
   # of expansion vecs  DIISMaxEq       ....     5
   Bias factor          DIISBfac        ....   1.050
   Max. coefficient     DIISMaxC        ....  10.000
 Trust-Rad. Augm. Hess. CNVTRAH         .... auto
   Auto Start mean grad. ratio tolernc. ....  1.125000
   Auto Start start iteration           ....    20
   Auto Start num. interpolation iter.  ....    10
   Max. Number of Micro iterations      ....    16
   Max. Number of Macro iterations      .... Maxiter - #DIIS iter
   Number of Davidson start vectors     ....     2
   Converg. threshold I  (grad. norm)   ....   1.000e-05
   Converg. threshold II (energy diff.) ....   1.000e-08
   Grad. Scal. Fac. for Micro threshold ....   0.100
   Minimum threshold for Micro iter.    ....   0.010
   NR start threshold (gradient norm)   ....   0.001
   Initial trust radius                 ....   0.400
   Minimum AH scaling param. (alpha)    ....   1.000
   Maximum AH scaling param. (alpha)    .... 1000.000
   Orbital update algorithm             .... Taylor
   White noise on init. David. guess    .... on
   Maximum white noise                  ....   0.010
   Quad. conv. algorithm                .... NR
 SOSCF                  CNVSOSCF        .... on
   Start iteration      SOSCFMaxIt      ....   150
   Startup grad/error   SOSCFStart      ....  0.003300
 Level Shifting         CNVShift        .... on
   Level shift para.    LevelShift      ....    0.2500
   Turn off err/grad.   ShiftErr        ....    0.0010
 Zerner damping         CNVZerner       .... off
 Static damping         CNVDamp         .... on
   Fraction old density DampFac         ....    0.7000
   Max. Damping (<1)    DampMax         ....    0.9800
   Min. Damping (>=0)   DampMin         ....    0.0000
   Turn off err/grad.   DampErr         ....    0.1000
 Fernandez-Rico         CNVRico         .... off

SCF Procedure:
 Maximum # iterations   MaxIter         ....   125
 SCF integral mode      SCFMode         .... Direct
   Integral package                     .... SHARK and LIBINT hybrid scheme
 Reset frequency        DirectResetFreq ....    20
 Integral Threshold     Thresh          ....  2.500e-11 Eh
 Primitive CutOff       TCut            ....  2.500e-12 Eh

Convergence Tolerance:
 Convergence Check Mode ConvCheckMode   .... Total+1el-Energy
 Convergence forced     ConvForced      .... 1
 Energy Change          TolE            ....  1.000e-08 Eh
 1-El. energy change                    ....  1.000e-05 Eh
 Orbital Gradient       TolG            ....  1.000e-05
 Orbital Rotation angle TolX            ....  1.000e-05
 DIIS Error             TolErr          ....  5.000e-07


Diagonalization of the overlap matrix:
Smallest eigenvalue                        ... 1.740e-04
Time for diagonalization                   ...    0.440 sec
Threshold for overlap eigenvalues          ... 1.000e-08
Number of eigenvalues below threshold      ... 0
Time for construction of square roots      ...    0.268 sec
Total time needed                          ...    0.715 sec

Time for model grid setup =    1.294 sec

------------------------------
INITIAL GUESS: MODEL POTENTIAL
------------------------------
Loading Hartree-Fock densities                     ... done
Calculating cut-offs                               ... done
Initializing the effective Hamiltonian             ... done
Setting up the integral package (SHARK)            ... done
Starting the Coulomb interaction                   ... done (   1.5 sec)
Reading the grid                                   ... done
Mapping shells                                     ... done
Starting the XC term evaluation                    ... done (   0.2 sec)
Transforming the Hamiltonian                       ... done (   0.3 sec)
Diagonalizing the Hamiltonian                      ... done (   0.4 sec)
Back transforming the eigenvectors                 ... done (   0.1 sec)
Now organizing SCF variables                       ... done
                      ------------------
                      INITIAL GUESS DONE (   3.8 sec)
                      ------------------
--------------
SCF ITERATIONS
--------------
ITER       Energy         Delta-E        Max-DP      RMS-DP      [F,P]     Damp
               ***  Starting incremental Fock matrix formation  ***
  0  -2121.6185939821   0.000000000000 0.08092987  0.00127349  0.2311839 0.7000
  1  -2122.2613333504  -0.642739368232 0.06133889  0.00103826  0.1434727 0.7000
                               ***Turning on DIIS***
  2  -2122.6623465694  -0.401013219005 0.14272028  0.00235569  0.0803099 0.0000
  3  -2118.0462963717   4.616050197701 0.06314361  0.00070372  0.0434282 0.0000
  4  -2123.3591303344  -5.312833962746 0.01962170  0.00023330  0.0092423 0.0000
  5  -2123.4911381092  -0.132007774777 0.00888220  0.00013424  0.0048398 0.0000
  6  -2123.4753837777   0.015754331447 0.00554451  0.00008579  0.0022303 0.0000
  7  -2123.5675587327  -0.092174954951 0.00344461  0.00006741  0.0016322 0.0000
  8  -2123.5740440980  -0.006485365324 0.00335629  0.00006438  0.0015284 0.0000
  9  -2123.5473420001   0.026702097961 0.00269275  0.00004592  0.0012306 0.0000
 10  -2123.5549834392  -0.007641439113 0.00543815  0.00009651  0.0009641 0.0000
                      *** Initiating the SOSCF procedure ***
                           *** Shutting down DIIS ***
                      *** Re-Reading the Fockian *** 
                      *** Removing any level shift *** 
ITER      Energy       Delta-E        Grad      Rot      Max-DP    RMS-DP
 11  -2123.44983552   0.1051479210  0.000181  0.000181  0.000243  0.000005
               *** Restarting incremental Fock matrix formation ***
 12  -2123.51511693  -0.0652814166  0.000908  0.006342  0.001510  0.000035
 13  -2123.51522922  -0.0001122818  0.001116  0.030856  0.006892  0.000138
 14  -2123.51541410  -0.0001848854  0.000398  0.002043  0.000619  0.000013
 15  -2123.51542912  -0.0000150178  0.000153  0.001808  0.000484  0.000012
 16  -2123.51543537  -0.0000062512  0.000138  0.002109  0.000492  0.000008
 17  -2123.51543770  -0.0000023262  0.000107  0.001637  0.000272  0.000006
 18  -2123.51543864  -0.0000009461  0.000053  0.000561  0.000202  0.000003
 19  -2123.51543914  -0.0000005011  0.000039  0.000910  0.000194  0.000004
 20  -2123.51543942  -0.0000002721  0.000019  0.000551  0.000093  0.000002
 21  -2123.51543953  -0.0000001149  0.000023  0.000744  0.000111  0.000002
 22  -2123.51543964  -0.0000001106  0.000017  0.000782  0.000125  0.000002
 23  -2123.51543972  -0.0000000764  0.000012  0.000407  0.000069  0.000001
 24  -2123.51543976  -0.0000000391  0.000006  0.000343  0.000054  0.000001
 25  -2123.51543979  -0.0000000286  0.000007  0.000121  0.000032  0.000001
 26  -2123.51543980  -0.0000000155  0.000005  0.000080  0.000028  0.000000
 27  -2123.51543981  -0.0000000072  0.000003  0.000071  0.000019  0.000000
                 **** Energy Check signals convergence ****
              ***Rediagonalizing the Fockian in SOSCF/NRSCF***

               *****************************************************
               *                     SUCCESS                       *
               *           SCF CONVERGED AFTER  28 CYCLES          *
               *****************************************************


----------------
TOTAL SCF ENERGY
----------------

Total Energy       :        -2123.51543981 Eh          -57783.79279 eV

Components:
Nuclear Repulsion  :         6234.84851092 Eh          169658.85327 eV
Electronic Energy  :        -8358.36395073 Eh         -227442.64606 eV
One Electron Energy:       -15310.22894046 Eh         -416612.50964 eV
Two Electron Energy:         6951.86498973 Eh          189169.86358 eV

Virial components:
Potential Energy   :        -4246.01586333 Eh         -115539.96558 eV
Kinetic Energy     :         2122.50042351 Eh           57756.17279 eV
Virial Ratio       :            2.00047822


---------------
SCF CONVERGENCE
---------------

  Last Energy change         ...   -5.6025e-09  Tolerance :   1.0000e-08
  Last MAX-Density change    ...    9.8334e-06  Tolerance :   1.0000e-07
  Last RMS-Density change    ...    1.9497e-07  Tolerance :   5.0000e-09
  Last Orbital Gradient      ...    1.7465e-06  Tolerance :   1.0000e-05
  Last Orbital Rotation      ...    5.1289e-05  Tolerance :   1.0000e-05

             **** THE GBW FILE WAS UPDATED (/scratch/allen/tmpyp4_amber_gaff2/conf1/conf1/Conf169.orca.gbw) ****
             **** DENSITY /scratch/allen/tmpyp4_amber_gaff2/conf1/conf1/Conf169.orca.scfp WAS UPDATED ****
             **** ENERGY FILE WAS UPDATED (/scratch/allen/tmpyp4_amber_gaff2/conf1/conf1/Conf169.orca.en.tmp) ****
             **** THE GBW FILE WAS UPDATED (/scratch/allen/tmpyp4_amber_gaff2/conf1/conf1/Conf169.orca.gbw) ****
             **** DENSITY /scratch/allen/tmpyp4_amber_gaff2/conf1/conf1/Conf169.orca.scfp WAS UPDATED ****
----------------
ORBITAL ENERGIES
----------------

  NO   OCC          E(Eh)            E(eV) 
   0   2.0000     -15.680225      -426.6806 
   1   2.0000     -15.635441      -425.4620 
   2   2.0000     -15.630632      -425.3311 
   3   2.0000     -15.587246      -424.1505 
   4   2.0000     -15.525570      -422.4722 
   5   2.0000     -15.515424      -422.1961 
   6   2.0000     -15.453558      -420.5127 
   7   2.0000     -15.440241      -420.1503 
   8   2.0000     -11.329945      -308.3035 
   9   2.0000     -11.328532      -308.2650 
  10   2.0000     -11.328191      -308.2558 
  11   2.0000     -11.300224      -307.4947 
  12   2.0000     -11.297621      -307.4239 
  13   2.0000     -11.294234      -307.3317 
  14   2.0000     -11.290217      -307.2224 
  15   2.0000     -11.287845      -307.1579 
  16   2.0000     -11.285501      -307.0941 
  17   2.0000     -11.282461      -307.0114 
  18   2.0000     -11.269295      -306.6531 
  19   2.0000     -11.263673      -306.5001 
  20   2.0000     -11.262688      -306.4733 
  21   2.0000     -11.250644      -306.1456 
  22   2.0000     -11.248941      -306.0993 
  23   2.0000     -11.239165      -305.8332 
  24   2.0000     -11.235473      -305.7327 
  25   2.0000     -11.232226      -305.6444 
  26   2.0000     -11.231572      -305.6266 
  27   2.0000     -11.228851      -305.5526 
  28   2.0000     -11.228557      -305.5446 
  29   2.0000     -11.211806      -305.0888 
  30   2.0000     -11.210322      -305.0484 
  31   2.0000     -11.193519      -304.5911 
  32   2.0000     -11.191719      -304.5422 
  33   2.0000     -11.191012      -304.5229 
  34   2.0000     -11.187955      -304.4397 
  35   2.0000     -11.187955      -304.4397 
  36   2.0000     -11.186581      -304.4023 
  37   2.0000     -11.175380      -304.0976 
  38   2.0000     -11.174882      -304.0840 
  39   2.0000     -11.173585      -304.0487 
  40   2.0000     -11.173249      -304.0396 
  41   2.0000     -11.169775      -303.9450 
  42   2.0000     -11.169328      -303.9329 
  43   2.0000     -11.161568      -303.7217 
  44   2.0000     -11.160439      -303.6910 
  45   2.0000     -11.157115      -303.6005 
  46   2.0000     -11.156047      -303.5715 
  47   2.0000     -11.152633      -303.4786 
  48   2.0000     -11.146006      -303.2982 
  49   2.0000     -11.134693      -302.9904 
  50   2.0000     -11.130003      -302.8628 
  51   2.0000     -11.117364      -302.5189 
  52   2.0000      -1.360741       -37.0277 
  53   2.0000      -1.322479       -35.9865 
  54   2.0000      -1.318591       -35.8807 
  55   2.0000      -1.280081       -34.8328 
  56   2.0000      -1.226776       -33.3823 
  57   2.0000      -1.210045       -32.9270 
  58   2.0000      -1.173165       -31.9235 
  59   2.0000      -1.151018       -31.3208 
  60   2.0000      -1.143933       -31.1280 
  61   2.0000      -1.111190       -30.2370 
  62   2.0000      -1.108202       -30.1557 
  63   2.0000      -1.082408       -29.4538 
  64   2.0000      -1.076808       -29.3014 
  65   2.0000      -1.046603       -28.4795 
  66   2.0000      -1.043290       -28.3894 
  67   2.0000      -1.041393       -28.3377 
  68   2.0000      -1.015264       -27.6267 
  69   2.0000      -1.012775       -27.5590 
  70   2.0000      -1.008719       -27.4486 
  71   2.0000      -0.994181       -27.0531 
  72   2.0000      -0.985431       -26.8149 
  73   2.0000      -0.982072       -26.7235 
  74   2.0000      -0.973018       -26.4772 
  75   2.0000      -0.961741       -26.1703 
  76   2.0000      -0.954394       -25.9704 
  77   2.0000      -0.945746       -25.7351 
  78   2.0000      -0.936692       -25.4887 
  79   2.0000      -0.916924       -24.9508 
  80   2.0000      -0.910843       -24.7853 
  81   2.0000      -0.897107       -24.4115 
  82   2.0000      -0.876976       -23.8637 
  83   2.0000      -0.873358       -23.7653 
  84   2.0000      -0.869814       -23.6688 
  85   2.0000      -0.859650       -23.3923 
  86   2.0000      -0.841123       -22.8881 
  87   2.0000      -0.837357       -22.7856 
  88   2.0000      -0.827441       -22.5158 
  89   2.0000      -0.796599       -21.6766 
  90   2.0000      -0.788821       -21.4649 
  91   2.0000      -0.763285       -20.7700 
  92   2.0000      -0.753146       -20.4941 
  93   2.0000      -0.734127       -19.9766 
  94   2.0000      -0.727078       -19.7848 
  95   2.0000      -0.724294       -19.7090 
  96   2.0000      -0.718711       -19.5571 
  97   2.0000      -0.716938       -19.5089 
  98   2.0000      -0.711718       -19.3668 
  99   2.0000      -0.698652       -19.0113 
 100   2.0000      -0.697098       -18.9690 
 101   2.0000      -0.690586       -18.7918 
 102   2.0000      -0.685495       -18.6533 
 103   2.0000      -0.684489       -18.6259 
 104   2.0000      -0.679321       -18.4853 
 105   2.0000      -0.674146       -18.3445 
 106   2.0000      -0.672311       -18.2945 
 107   2.0000      -0.660417       -17.9709 
 108   2.0000      -0.657588       -17.8939 
 109   2.0000      -0.653787       -17.7905 
 110   2.0000      -0.651141       -17.7185 
 111   2.0000      -0.646460       -17.5911 
 112   2.0000      -0.645438       -17.5633 
 113   2.0000      -0.637996       -17.3608 
 114   2.0000      -0.635934       -17.3046 
 115   2.0000      -0.627600       -17.0779 
 116   2.0000      -0.622207       -16.9311 
 117   2.0000      -0.620529       -16.8855 
 118   2.0000      -0.613720       -16.7002 
 119   2.0000      -0.613108       -16.6835 
 120   2.0000      -0.611789       -16.6476 
 121   2.0000      -0.610526       -16.6133 
 122   2.0000      -0.600426       -16.3384 
 123   2.0000      -0.588302       -16.0085 
 124   2.0000      -0.582527       -15.8514 
 125   2.0000      -0.580790       -15.8041 
 126   2.0000      -0.579750       -15.7758 
 127   2.0000      -0.571543       -15.5525 
 128   2.0000      -0.568325       -15.4649 
 129   2.0000      -0.559706       -15.2304 
 130   2.0000      -0.554270       -15.0825 
 131   2.0000      -0.548199       -14.9173 
 132   2.0000      -0.543095       -14.7784 
 133   2.0000      -0.541486       -14.7346 
 134   2.0000      -0.539348       -14.6764 
 135   2.0000      -0.535362       -14.5679 
 136   2.0000      -0.530962       -14.4482 
 137   2.0000      -0.518324       -14.1043 
 138   2.0000      -0.517999       -14.0955 
 139   2.0000      -0.514098       -13.9893 
 140   2.0000      -0.511845       -13.9280 
 141   2.0000      -0.510626       -13.8948 
 142   2.0000      -0.509121       -13.8539 
 143   2.0000      -0.504715       -13.7340 
 144   2.0000      -0.501253       -13.6398 
 145   2.0000      -0.495436       -13.4815 
 146   2.0000      -0.489798       -13.3281 
 147   2.0000      -0.481522       -13.1029 
 148   2.0000      -0.476844       -12.9756 
 149   2.0000      -0.467766       -12.7285 
 150   2.0000      -0.466134       -12.6841 
 151   2.0000      -0.456544       -12.4232 
 152   2.0000      -0.451171       -12.2770 
 153   2.0000      -0.445314       -12.1176 
 154   2.0000      -0.438785       -11.9399 
 155   2.0000      -0.427481       -11.6323 
 156   2.0000      -0.409258       -11.1365 
 157   2.0000      -0.398462       -10.8427 
 158   2.0000      -0.392610       -10.6835 
 159   2.0000      -0.387867       -10.5544 
 160   2.0000      -0.382464       -10.4074 
 161   2.0000      -0.377297       -10.2668 
 162   2.0000      -0.370551       -10.0832 
 163   2.0000      -0.357639        -9.7318 
 164   2.0000      -0.355054        -9.6615 
 165   2.0000      -0.341579        -9.2948 
 166   2.0000      -0.337844        -9.1932 
 167   2.0000      -0.325295        -8.8517 
 168   2.0000      -0.320356        -8.7173 
 169   2.0000      -0.306052        -8.3281 
 170   2.0000      -0.299209        -8.1419 
 171   2.0000      -0.285181        -7.7602 
 172   2.0000      -0.278595        -7.5810 
 173   2.0000      -0.263216        -7.1625 
 174   2.0000      -0.241637        -6.5753 
 175   2.0000      -0.190107        -5.1731 
 176   2.0000      -0.181140        -4.9291 
 177   2.0000      -0.079986        -2.1765 
 178   2.0000      -0.059685        -1.6241 
 179   0.0000       0.028207         0.7676 
 180   0.0000       0.065116         1.7719 
 181   0.0000       0.090245         2.4557 
 182   0.0000       0.105951         2.8831 
 183   0.0000       0.115414         3.1406 
 184   0.0000       0.136180         3.7056 
 185   0.0000       0.140044         3.8108 
 186   0.0000       0.140740         3.8297 
 187   0.0000       0.164148         4.4667 
 188   0.0000       0.164713         4.4821 
 189   0.0000       0.166289         4.5250 
 190   0.0000       0.173891         4.7318 
 191   0.0000       0.180128         4.9015 
 192   0.0000       0.183558         4.9949 
 193   0.0000       0.189662         5.1610 
 194   0.0000       0.204060         5.5528 
 195   0.0000       0.206196         5.6109 
 196   0.0000       0.207423         5.6443 
 197   0.0000       0.209368         5.6972 
 198   0.0000       0.216323         5.8865 
 199   0.0000       0.229378         6.2417 
 200   0.0000       0.233458         6.3527 
 201   0.0000       0.234025         6.3681 
 202   0.0000       0.238456         6.4887 
 203   0.0000       0.240185         6.5358 
 204   0.0000       0.245886         6.6909 
 205   0.0000       0.254654         6.9295 
 206   0.0000       0.256137         6.9698 
 207   0.0000       0.257507         7.0071 
 208   0.0000       0.259363         7.0576 
 209   0.0000       0.260165         7.0794 
 210   0.0000       0.263959         7.1827 
 211   0.0000       0.266524         7.2525 
 212   0.0000       0.268694         7.3115 
 213   0.0000       0.270714         7.3665 
 214   0.0000       0.272736         7.4215 
 215   0.0000       0.276604         7.5268 
 216   0.0000       0.278798         7.5865 
 217   0.0000       0.281090         7.6488 
 218   0.0000       0.285209         7.7609 
 219   0.0000       0.288027         7.8376 
 220   0.0000       0.289016         7.8645 
 221   0.0000       0.292303         7.9540 
 222   0.0000       0.294514         8.0141 
 223   0.0000       0.295865         8.0509 
 224   0.0000       0.298143         8.1129 
 225   0.0000       0.301001         8.1906 
 226   0.0000       0.304270         8.2796 
 227   0.0000       0.308799         8.4028 
 228   0.0000       0.313638         8.5345 
 229   0.0000       0.324483         8.8296 
 230   0.0000       0.328001         8.9254 
 231   0.0000       0.334393         9.0993 
 232   0.0000       0.344212         9.3665 
 233   0.0000       0.355860         9.6835 
 234   0.0000       0.361366         9.8333 
 235   0.0000       0.364736         9.9250 
 236   0.0000       0.375424        10.2158 
 237   0.0000       0.390900        10.6369 
 238   0.0000       0.395796        10.7702 
 239   0.0000       0.399307        10.8657 
 240   0.0000       0.406996        11.0749 
 241   0.0000       0.411026        11.1846 
 242   0.0000       0.411415        11.1952 
 243   0.0000       0.420045        11.4300 
 244   0.0000       0.428162        11.6509 
 245   0.0000       0.435116        11.8401 
 246   0.0000       0.436871        11.8879 
 247   0.0000       0.440462        11.9856 
 248   0.0000       0.441888        12.0244 
 249   0.0000       0.448328        12.1996 
 250   0.0000       0.456936        12.4339 
 251   0.0000       0.464655        12.6439 
 252   0.0000       0.467769        12.7287 
 253   0.0000       0.470385        12.7998 
 254   0.0000       0.471548        12.8315 
 255   0.0000       0.474257        12.9052 
 256   0.0000       0.477760        13.0005 
 257   0.0000       0.480496        13.0750 
 258   0.0000       0.489917        13.3313 
 259   0.0000       0.494857        13.4657 
 260   0.0000       0.504508        13.7283 
 261   0.0000       0.504696        13.7335 
 262   0.0000       0.506472        13.7818 
 263   0.0000       0.511664        13.9231 
 264   0.0000       0.516722        14.0607 
 265   0.0000       0.521621        14.1940 
 266   0.0000       0.525438        14.2979 
 267   0.0000       0.526967        14.3395 
 268   0.0000       0.531938        14.4748 
 269   0.0000       0.536218        14.5912 
 270   0.0000       0.543405        14.7868 
 271   0.0000       0.547229        14.8909 
 272   0.0000       0.557788        15.1782 
 273   0.0000       0.560321        15.2471 
 274   0.0000       0.560370        15.2485 
 275   0.0000       0.566296        15.4097 
 276   0.0000       0.572303        15.5732 
 277   0.0000       0.573558        15.6073 
 278   0.0000       0.579584        15.7713 
 279   0.0000       0.586025        15.9466 
 280   0.0000       0.591106        16.0848 
 281   0.0000       0.593555        16.1515 
 282   0.0000       0.594865        16.1871 
 283   0.0000       0.595661        16.2088 
 284   0.0000       0.597931        16.2705 
 285   0.0000       0.598694        16.2913 
 286   0.0000       0.604935        16.4611 
 287   0.0000       0.610238        16.6054 
 288   0.0000       0.617412        16.8006 
 289   0.0000       0.625010        17.0074 
 290   0.0000       0.625762        17.0278 
 291   0.0000       0.629531        17.1304 
 292   0.0000       0.632319        17.2063 
 293   0.0000       0.636207        17.3121 
 294   0.0000       0.645030        17.5521 
 295   0.0000       0.648808        17.6550 
 296   0.0000       0.653014        17.7694 
 297   0.0000       0.655270        17.8308 
 298   0.0000       0.661287        17.9945 
 299   0.0000       0.664603        18.0848 
 300   0.0000       0.670631        18.2488 
 301   0.0000       0.675272        18.3751 
 302   0.0000       0.676950        18.4207 
 303   0.0000       0.679133        18.4801 
 304   0.0000       0.680910        18.5285 
 305   0.0000       0.684696        18.6315 
 306   0.0000       0.689078        18.7508 
 307   0.0000       0.692670        18.8485 
 308   0.0000       0.695573        18.9275 
 309   0.0000       0.699951        19.0466 
 310   0.0000       0.702624        19.1194 
 311   0.0000       0.704633        19.1740 
 312   0.0000       0.707268        19.2457 
 313   0.0000       0.710650        19.3378 
 314   0.0000       0.710704        19.3392 
 315   0.0000       0.714507        19.4427 
 316   0.0000       0.716675        19.5017 
 317   0.0000       0.719037        19.5660 
 318   0.0000       0.724160        19.7054 
 319   0.0000       0.726909        19.7802 
 320   0.0000       0.728708        19.8292 
 321   0.0000       0.729933        19.8625 
 322   0.0000       0.731263        19.8987 
 323   0.0000       0.734243        19.9798 
 324   0.0000       0.736334        20.0367 
 325   0.0000       0.741622        20.1806 
 326   0.0000       0.745027        20.2732 
 327   0.0000       0.748521        20.3683 
 328   0.0000       0.750443        20.4206 
 329   0.0000       0.753373        20.5003 
 330   0.0000       0.759235        20.6598 
 331   0.0000       0.762039        20.7361 
 332   0.0000       0.766474        20.8568 
 333   0.0000       0.768190        20.9035 
 334   0.0000       0.769924        20.9507 
 335   0.0000       0.776609        21.1326 
 336   0.0000       0.776976        21.1426 
 337   0.0000       0.782397        21.2901 
 338   0.0000       0.786290        21.3960 
 339   0.0000       0.790277        21.5045 
 340   0.0000       0.792858        21.5748 
 341   0.0000       0.797491        21.7008 
 342   0.0000       0.798760        21.7354 
 343   0.0000       0.805145        21.9091 
 344   0.0000       0.806265        21.9396 
 345   0.0000       0.807630        21.9767 
 346   0.0000       0.808855        22.0101 
 347   0.0000       0.811385        22.0789 
 348   0.0000       0.816015        22.2049 
 349   0.0000       0.816590        22.2205 
 350   0.0000       0.818386        22.2694 
 351   0.0000       0.821772        22.3616 
 352   0.0000       0.823384        22.4054 
 353   0.0000       0.827580        22.5196 
 354   0.0000       0.829798        22.5800 
 355   0.0000       0.832269        22.6472 
 356   0.0000       0.836120        22.7520 
 357   0.0000       0.836340        22.7580 
 358   0.0000       0.838432        22.8149 
 359   0.0000       0.841346        22.8942 
 360   0.0000       0.842783        22.9333 
 361   0.0000       0.844452        22.9787 
 362   0.0000       0.846386        23.0313 
 363   0.0000       0.849334        23.1116 
 364   0.0000       0.850963        23.1559 
 365   0.0000       0.854179        23.2434 
 366   0.0000       0.858627        23.3644 
 367   0.0000       0.864281        23.5183 
 368   0.0000       0.864651        23.5283 
 369   0.0000       0.867804        23.6141 
 370   0.0000       0.869590        23.6627 
 371   0.0000       0.872214        23.7342 
 372   0.0000       0.877292        23.8723 
 373   0.0000       0.878446        23.9037 
 374   0.0000       0.878897        23.9160 
 375   0.0000       0.884205        24.0604 
 376   0.0000       0.888877        24.1876 
 377   0.0000       0.890442        24.2302 
 378   0.0000       0.892648        24.2902 
 379   0.0000       0.895275        24.3617 
 380   0.0000       0.895514        24.3682 
 381   0.0000       0.898562        24.4511 
 382   0.0000       0.898962        24.4620 
 383   0.0000       0.901528        24.5318 
 384   0.0000       0.906185        24.6585 
 385   0.0000       0.906549        24.6685 
 386   0.0000       0.909719        24.7547 
 387   0.0000       0.910889        24.7865 
 388   0.0000       0.914247        24.8779 
 389   0.0000       0.917147        24.9568 
 390   0.0000       0.920491        25.0478 
 391   0.0000       0.926619        25.2146 
 392   0.0000       0.927371        25.2350 
 393   0.0000       0.928509        25.2660 
 394   0.0000       0.929882        25.3034 
 395   0.0000       0.933939        25.4138 
 396   0.0000       0.935099        25.4453 
 397   0.0000       0.939990        25.5784 
 398   0.0000       0.942340        25.6424 
 399   0.0000       0.945710        25.7341 
 400   0.0000       0.948521        25.8106 
 401   0.0000       0.952391        25.9159 
 402   0.0000       0.955130        25.9904 
 403   0.0000       0.957253        26.0482 
 404   0.0000       0.960680        26.1414 
 405   0.0000       0.965108        26.2619 
 406   0.0000       0.968651        26.3583 
 407   0.0000       0.979725        26.6597 
 408   0.0000       0.981303        26.7026 
 409   0.0000       0.985527        26.8175 
 410   0.0000       0.987354        26.8673 
 411   0.0000       0.991449        26.9787 
 412   0.0000       0.997025        27.1304 
 413   0.0000       1.003120        27.2963 
 414   0.0000       1.008759        27.4497 
 415   0.0000       1.013503        27.5788 
 416   0.0000       1.015670        27.6378 
 417   0.0000       1.021280        27.7904 
 418   0.0000       1.023075        27.8393 
 419   0.0000       1.029722        28.0202 
 420   0.0000       1.035002        28.1638 
 421   0.0000       1.038128        28.2489 
 422   0.0000       1.049871        28.5684 
 423   0.0000       1.051403        28.6101 
 424   0.0000       1.053580        28.6694 
 425   0.0000       1.072269        29.1779 
 426   0.0000       1.076891        29.3037 
 427   0.0000       1.078138        29.3376 
 428   0.0000       1.081836        29.4382 
 429   0.0000       1.082807        29.4647 
 430   0.0000       1.087244        29.5854 
 431   0.0000       1.092922        29.7399 
 432   0.0000       1.095787        29.8179 
 433   0.0000       1.101446        29.9719 
 434   0.0000       1.106889        30.1200 
 435   0.0000       1.110551        30.2196 
 436   0.0000       1.112822        30.2814 
 437   0.0000       1.113686        30.3049 
 438   0.0000       1.120299        30.4849 
 439   0.0000       1.122188        30.5363 
 440   0.0000       1.123530        30.5728 
 441   0.0000       1.127663        30.6853 
 442   0.0000       1.132556        30.8184 
 443   0.0000       1.133918        30.8555 
 444   0.0000       1.135985        30.9117 
 445   0.0000       1.137590        30.9554 
 446   0.0000       1.145977        31.1836 
 447   0.0000       1.150995        31.3202 
 448   0.0000       1.152668        31.3657 
 449   0.0000       1.154622        31.4189 
 450   0.0000       1.162947        31.6454 
 451   0.0000       1.163796        31.6685 
 452   0.0000       1.164849        31.6972 
 453   0.0000       1.167274        31.7631 
 454   0.0000       1.169975        31.8366 
 455   0.0000       1.173694        31.9378 
 456   0.0000       1.181285        32.1444 
 457   0.0000       1.186045        32.2739 
 458   0.0000       1.192830        32.4585 
 459   0.0000       1.198043        32.6004 
 460   0.0000       1.201398        32.6917 
 461   0.0000       1.202916        32.7330 
 462   0.0000       1.205185        32.7948 
 463   0.0000       1.206434        32.8287 
 464   0.0000       1.210487        32.9390 
 465   0.0000       1.214805        33.0565 
 466   0.0000       1.220174        33.2026 
 467   0.0000       1.223318        33.2882 
 468   0.0000       1.225532        33.3484 
 469   0.0000       1.230231        33.4763 
 470   0.0000       1.236399        33.6441 
 471   0.0000       1.237844        33.6835 
 472   0.0000       1.238770        33.7087 
 473   0.0000       1.241310        33.7778 
 474   0.0000       1.242710        33.8158 
 475   0.0000       1.246785        33.9267 
 476   0.0000       1.248505        33.9735 
 477   0.0000       1.252884        34.0927 
 478   0.0000       1.255038        34.1513 
 479   0.0000       1.257230        34.2110 
 480   0.0000       1.262455        34.3532 
 481   0.0000       1.269710        34.5506 
 482   0.0000       1.270924        34.5836 
 483   0.0000       1.272693        34.6317 
 484   0.0000       1.273795        34.6617 
 485   0.0000       1.281432        34.8695 
 486   0.0000       1.285652        34.9844 
 487   0.0000       1.288156        35.0525 
 488   0.0000       1.291268        35.1372 
 489   0.0000       1.297386        35.3037 
 490   0.0000       1.298001        35.3204 
 491   0.0000       1.302662        35.4472 
 492   0.0000       1.304723        35.5033 
 493   0.0000       1.308958        35.6186 
 494   0.0000       1.313176        35.7333 
 495   0.0000       1.317606        35.8539 
 496   0.0000       1.319395        35.9026 
 497   0.0000       1.324154        36.0321 
 498   0.0000       1.326974        36.1088 
 499   0.0000       1.328533        36.1512 
 500   0.0000       1.332519        36.2597 
 501   0.0000       1.338379        36.4191 
 502   0.0000       1.342548        36.5326 
 503   0.0000       1.344871        36.5958 
 504   0.0000       1.349224        36.7142 
 505   0.0000       1.351245        36.7692 
 506   0.0000       1.354081        36.8464 
 507   0.0000       1.355672        36.8897 
 508   0.0000       1.359167        36.9848 
 509   0.0000       1.363352        37.0987 
[...]
      pz      :     0.022122  p :     0.079789
      px      :     0.043624
      py      :     0.014043
 77 H s       :     0.884413  s :     0.884413
      pz      :     0.047989  p :     0.079303
      px      :     0.015024
      py      :     0.016290
 78 H s       :     0.884789  s :     0.884789
      pz      :     0.025887  p :     0.079269
      px      :     0.020452
      py      :     0.032929
 79 H s       :     0.910662  s :     0.910662
      pz      :     0.021788  p :     0.086308
      px      :     0.021658
      py      :     0.042861
 80 H s       :     0.864320  s :     0.864320
      pz      :     0.039402  p :     0.084857
      px      :     0.030303
      py      :     0.015151
 81 H s       :     0.886895  s :     0.886895
      pz      :     0.037820  p :     0.084122
      px      :     0.016187
      py      :     0.030115
 82 H s       :     0.916204  s :     0.916204
      pz      :     0.021962  p :     0.086717
      px      :     0.031654
      py      :     0.033101
 83 H s       :     0.873639  s :     0.873639
      pz      :     0.039255  p :     0.084080
      px      :     0.015281
      py      :     0.029544
 84 H s       :     0.886869  s :     0.886869
      pz      :     0.035755  p :     0.083424
      px      :     0.031688
      py      :     0.015981
 85 H s       :     0.892979  s :     0.892979
      pz      :     0.022486  p :     0.079777
      px      :     0.014075
      py      :     0.043216
 86 H s       :     0.891127  s :     0.891127
      pz      :     0.024726  p :     0.078816
      px      :     0.032971
      py      :     0.021119
 87 H s       :     0.889928  s :     0.889928
      pz      :     0.048011  p :     0.078733
      px      :     0.015585
      py      :     0.015137
 88 H s       :     0.910515  s :     0.910515
      pz      :     0.021641  p :     0.087035
      px      :     0.042936
      py      :     0.022459
 89 H s       :     0.871064  s :     0.871064
      pz      :     0.037957  p :     0.083848
      px      :     0.030498
      py      :     0.015393


                      *****************************
                      * MAYER POPULATION ANALYSIS *
                      *****************************

  NA   - Mulliken gross atomic population
  ZA   - Total nuclear charge
  QA   - Mulliken gross atomic charge
  VA   - Mayer's total valence
  BVA  - Mayer's bonded valence
  FA   - Mayer's free valence

  ATOM       NA         ZA         QA         VA         BVA        FA
  0 C      5.7833     6.0000     0.2167     3.8459     3.8459     0.0000
  1 N      7.4565     7.0000    -0.4565     3.3420     3.3420    -0.0000
  2 C      6.0780     6.0000    -0.0780     3.9243     3.9243     0.0000
  3 N      7.3413     7.0000    -0.3413     3.4568     3.4568    -0.0000
  4 C      6.0708     6.0000    -0.0708     4.1212     4.1212    -0.0000
  5 N      7.5675     7.0000    -0.5675     3.0959     3.0959     0.0000
  6 C      6.1196     6.0000    -0.1196     3.9445     3.9445    -0.0000
  7 N      7.3410     7.0000    -0.3410     3.4321     3.4321     0.0000
  8 C      5.7814     6.0000     0.2186     3.8505     3.8505    -0.0000
  9 N      7.5625     7.0000    -0.5625     3.0771     3.0771     0.0000
 10 C      5.8801     6.0000     0.1199     3.9098     3.9098     0.0000
 11 N      7.4381     7.0000    -0.4381     3.3798     3.3798    -0.0000
 12 C      6.0503     6.0000    -0.0503     3.8398     3.8398     0.0000
 13 N      7.4292     7.0000    -0.4292     3.4290     3.4290     0.0000
 14 C      5.7903     6.0000     0.2097     3.7969     3.7969    -0.0000
 15 N      7.4412     7.0000    -0.4412     3.3712     3.3712    -0.0000
 16 C      5.7658     6.0000     0.2342     3.7762     3.7762    -0.0000
 17 C      6.1175     6.0000    -0.1175     3.9421     3.9421    -0.0000
 18 C      6.1563     6.0000    -0.1563     3.7478     3.7478    -0.0000
 19 C      5.7972     6.0000     0.2028     3.8699     3.8699    -0.0000
 20 C      5.7855     6.0000     0.2145     3.8288     3.8288    -0.0000
 21 C      6.0661     6.0000    -0.0661     3.8443     3.8443    -0.0000
 22 C      6.0893     6.0000    -0.0893     3.9822     3.9822    -0.0000
 23 C      6.0396     6.0000    -0.0396     3.9925     3.9925     0.0000
 24 C      5.8059     6.0000     0.1941     3.8210     3.8210    -0.0000
 25 C      5.8856     6.0000     0.1144     3.8910     3.8910     0.0000
 26 C      6.0916     6.0000    -0.0916     3.9106     3.9106    -0.0000
 27 C      5.7850     6.0000     0.2150     3.8610     3.8610     0.0000
 28 C      6.0617     6.0000    -0.0617     3.9887     3.9887     0.0000
 29 C      6.1831     6.0000    -0.1831     3.7471     3.7471     0.0000
 30 C      5.7538     6.0000     0.2462     3.7994     3.7994    -0.0000
 31 C      5.7689     6.0000     0.2311     3.8170     3.8170    -0.0000
 32 C      6.0613     6.0000    -0.0613     3.9235     3.9235     0.0000
 33 C      6.0600     6.0000    -0.0600     3.9709     3.9709     0.0000
 34 C      6.0506     6.0000    -0.0506     3.9834     3.9834    -0.0000
 35 C      5.7718     6.0000     0.2282     3.8162     3.8162     0.0000
 36 C      5.8918     6.0000     0.1082     3.8745     3.8745     0.0000
 37 C      6.0643     6.0000    -0.0643     3.9177     3.9177    -0.0000
 38 C      5.7685     6.0000     0.2315     3.8018     3.8018     0.0000
 39 C      6.0581     6.0000    -0.0581     3.9829     3.9829     0.0000
 40 C      6.1810     6.0000    -0.1810     3.7263     3.7263     0.0000
 41 C      5.7747     6.0000     0.2253     3.8873     3.8873     0.0000
 42 C      5.8030     6.0000     0.1970     3.8257     3.8257    -0.0000
 43 C      6.0727     6.0000    -0.0727     3.8999     3.8999     0.0000
 44 C      6.0903     6.0000    -0.0903     3.9858     3.9858     0.0000
 45 C      6.0617     6.0000    -0.0617     3.9919     3.9919    -0.0000
 46 C      5.7888     6.0000     0.2112     3.8287     3.8287    -0.0000
 47 C      5.8845     6.0000     0.1155     3.8933     3.8933    -0.0000
 48 C      6.0668     6.0000    -0.0668     3.9093     3.9093    -0.0000
 49 C      5.7616     6.0000     0.2384     3.8962     3.8962     0.0000
 50 C      6.0461     6.0000    -0.0461     3.9903     3.9903     0.0000
 51 C      6.1952     6.0000    -0.1952     3.7374     3.7374     0.0000
 52 H      0.9645     1.0000     0.0355     0.9858     0.9858     0.0000
 53 H      1.0180     1.0000    -0.0180     0.9992     0.9992     0.0000
 54 H      0.9554     1.0000     0.0446     1.0161     1.0161    -0.0000
 55 H      0.9661     1.0000     0.0339     0.9864     0.9864     0.0000
 56 H      0.9509     1.0000     0.0491     0.9695     0.9695    -0.0000
 57 H      0.9529     1.0000     0.0471     0.9824     0.9824    -0.0000
 58 H      0.9538     1.0000     0.0462     0.9848     0.9848    -0.0000
 59 H      1.0119     1.0000    -0.0119     0.9991     0.9991     0.0000
 60 H      0.9522     1.0000     0.0478     1.0260     1.0260    -0.0000
 61 H      0.8290     1.0000     0.1710     1.0422     1.0422     0.0000
 62 H      0.8243     1.0000     0.1757     1.0436     1.0436    -0.0000
 63 H      0.9442     1.0000     0.0558     0.9852     0.9852     0.0000
 64 H      1.0166     1.0000    -0.0166     0.9945     0.9945     0.0000
 65 H      0.9529     1.0000     0.0471     1.0100     1.0100     0.0000
 66 H      0.9440     1.0000     0.0560     0.9855     0.9855    -0.0000
 67 H      0.9370     1.0000     0.0630     0.9720     0.9720     0.0000
 68 H      0.9425     1.0000     0.0575     0.9868     0.9868     0.0000
 69 H      0.9433     1.0000     0.0567     0.9828     0.9828     0.0000
 70 H      1.0300     1.0000    -0.0300     0.9939     0.9939     0.0000
 71 H      0.9547     1.0000     0.0453     1.0058     1.0058     0.0000
 72 H      0.9284     1.0000     0.0716     0.9835     0.9835     0.0000
 73 H      1.0079     1.0000    -0.0079     1.0009     1.0009     0.0000
 74 H      0.9393     1.0000     0.0607     1.0101     1.0101    -0.0000
 75 H      0.9290     1.0000     0.0710     0.9838     0.9838     0.0000
 76 H      0.9247     1.0000     0.0753     0.9721     0.9721    -0.0000
 77 H      0.9318     1.0000     0.0682     0.9855     0.9855     0.0000
 78 H      0.9326     1.0000     0.0674     0.9854     0.9854     0.0000
 79 H      1.0164     1.0000    -0.0164     0.9975     0.9975    -0.0000
 80 H      0.9385     1.0000     0.0615     1.0072     1.0072    -0.0000
 81 H      0.9458     1.0000     0.0542     0.9857     0.9857     0.0000
 82 H      1.0252     1.0000    -0.0252     0.9933     0.9933     0.0000
 83 H      0.9586     1.0000     0.0414     1.0083     1.0083    -0.0000
 84 H      0.9462     1.0000     0.0538     0.9852     0.9852    -0.0000
 85 H      0.9394     1.0000     0.0606     0.9716     0.9716     0.0000
 86 H      0.9447     1.0000     0.0553     0.9839     0.9839    -0.0000
 87 H      0.9429     1.0000     0.0571     0.9856     0.9856    -0.0000
 88 H      1.0144     1.0000    -0.0144     0.9968     0.9968    -0.0000
 89 H      0.9529     1.0000     0.0471     1.0074     1.0074     0.0000

  Mayer bond orders larger than 0.100000
B(  0-C ,  1-N ) :   1.0918 B(  0-C , 17-C ) :   1.7209 B(  0-C , 52-H ) :   0.9620 
B(  1-N ,  8-C ) :   1.0958 B(  1-N , 10-C ) :   0.9782 B(  2-C , 12-C ) :   1.4851 
B(  2-C , 16-C ) :   1.3740 B(  2-C , 53-H ) :   0.9731 B(  3-N , 14-C ) :   1.2215 
B(  3-N , 16-C ) :   1.1821 B(  3-N , 61-H ) :   0.8988 B(  4-C ,  6-C ) :   1.2172 
B(  4-C , 17-C ) :   1.2171 B(  4-C , 18-C ) :   1.4757 B(  5-N , 19-C ) :   1.4580 
B(  5-N , 27-C ) :   1.3711 B(  6-C ,  8-C ) :   1.7190 B(  6-C , 54-H ) :   0.8945 
B(  7-N , 30-C ) :   1.1947 B(  7-N , 38-C ) :   1.1900 B(  7-N , 62-H ) :   0.8966 
B(  8-C , 55-H ) :   0.9630 B(  9-N , 41-C ) :   1.3927 B(  9-N , 49-C ) :   1.4270 
B( 10-C , 56-H ) :   0.9775 B( 10-C , 57-H ) :   0.9831 B( 10-C , 58-H ) :   0.9834 
B( 11-N , 20-C ) :   1.1324 B( 11-N , 24-C ) :   1.1079 B( 11-N , 25-C ) :   0.9596 
B( 12-C , 14-C ) :   1.3602 B( 12-C , 59-H ) :   0.9331 B( 13-N , 31-C ) :   1.1629 
B( 13-N , 35-C ) :   1.1603 B( 13-N , 36-C ) :   0.9410 B( 14-C , 18-C ) :   1.1156 
B( 15-N , 42-C ) :   1.1069 B( 15-N , 46-C ) :   1.1237 B( 15-N , 47-C ) :   0.9617 
B( 16-C , 51-C ) :   1.1663 B( 17-C , 60-H ) :   0.8977 B( 18-C , 19-C ) :   1.1153 
B( 19-C , 21-C ) :   1.2520 B( 20-C , 28-C ) :   1.6273 B( 20-C , 63-H ) :   0.9702 
B( 21-C , 26-C ) :   1.5858 B( 21-C , 64-H ) :   0.9365 B( 22-C , 23-C ) :   1.2908 
B( 22-C , 28-C ) :   1.2650 B( 22-C , 29-C ) :   1.2239 B( 23-C , 24-C ) :   1.6186 
B( 23-C , 65-H ) :   0.9703 B( 24-C , 66-H ) :   0.9695 B( 25-C , 67-H ) :   0.9761 
B( 25-C , 68-H ) :   0.9828 B( 25-C , 69-H ) :   0.9823 B( 26-C , 27-C ) :   1.2583 
B( 26-C , 70-H ) :   0.9671 B( 27-C , 29-C ) :   1.2065 B( 28-C , 71-H ) :   0.9720 
B( 29-C , 30-C ) :   1.2484 B( 30-C , 32-C ) :   1.2771 B( 31-C , 39-C ) :   1.5871 
B( 31-C , 72-H ) :   0.9681 B( 32-C , 37-C ) :   1.5819 B( 32-C , 73-H ) :   0.9786 
B( 33-C , 34-C ) :   1.3083 B( 33-C , 39-C ) :   1.3042 B( 33-C , 40-C ) :   1.1742 
B( 34-C , 35-C ) :   1.5843 B( 34-C , 74-H ) :   0.9696 B( 35-C , 75-H ) :   0.9681 
B( 36-C , 76-H ) :   0.9768 B( 36-C , 77-H ) :   0.9815 B( 36-C , 78-H ) :   0.9823 
B( 37-C , 38-C ) :   1.2829 B( 37-C , 79-H ) :   0.9765 B( 38-C , 40-C ) :   1.2356 
B( 39-C , 80-H ) :   0.9705 B( 40-C , 41-C ) :   1.2508 B( 41-C , 43-C ) :   1.1851 
B( 42-C , 50-C ) :   1.6344 B( 42-C , 81-H ) :   0.9697 B( 43-C , 48-C ) :   1.6676 
B( 43-C , 82-H ) :   0.9720 B( 44-C , 45-C ) :   1.2624 B( 44-C , 50-C ) :   1.2713 
B( 44-C , 51-C ) :   1.2635 B( 45-C , 46-C ) :   1.6357 B( 45-C , 83-H ) :   0.9719 
B( 46-C , 84-H ) :   0.9700 B( 47-C , 85-H ) :   0.9762 B( 47-C , 86-H ) :   0.9829 
B( 47-C , 87-H ) :   0.9825 B( 48-C , 49-C ) :   1.1886 B( 48-C , 88-H ) :   0.9749 
B( 49-C , 51-C ) :   1.2440 B( 50-C , 89-H ) :   0.9708 

-------
TIMINGS
-------

Total SCF time: 0 days 0 hours 28 min 37 sec 

Total time                  ....    1717.863 sec
Sum of individual times     ....    1713.087 sec  ( 99.7%)

Fock matrix formation       ....    1685.263 sec  ( 98.1%)
Diagonalization             ....       8.808 sec  (  0.5%)
Density matrix formation    ....       0.534 sec  (  0.0%)
Population analysis         ....       0.587 sec  (  0.0%)
Initial guess               ....       2.535 sec  (  0.1%)
Orbital Transformation      ....       0.000 sec  (  0.0%)
Orbital Orthonormalization  ....       0.000 sec  (  0.0%)
DIIS solution               ....       3.993 sec  (  0.2%)
SOSCF solution              ....      10.073 sec  (  0.6%)

Maximum memory used throughout the entire SCF-calculation: 302.7 MB


           ************************************************************
           *        Program running with 16 parallel MPI-processes    *
           *              working on a common directory               *
           ************************************************************

------------------------------------------------------------------------------
                                ORCA  MP2 
------------------------------------------------------------------------------

Freezing NCore=104 chemical core electrons

----------
MP2 ENERGY (disk based algorithm)
----------

Dimension of the basis                    ...  918
Memory devoted to MP2                     ... 2000 MB   
Data format for buffers                   ... DOUBLE
Compression type for matrix containers    ... UNCOMPRESSED

-------------------------------
PARTIAL EXCHANGE TRANSFORMATION
-------------------------------

Transformation type                        ... one-operator
Generation of integrals (i,mue|j,nue)      ... ON
Generation of integrals (mue,kappa|nue,tau)... OFF
Generation of integrals (i,mue|a,nue)      ... OFF
Dimension of the basis                     ...  918
Number of internal MOs                     ...  127 (  52- 178)
Pair cutoff                                ... 2.500e-12 Eh
Number of AO pairs in the trafo            ... 421821
Total Number of distinct AO pairs          ... 421821
Memory devoted for trafo                   ... 2000.0 MB 
Max. Number of MO pairs treated together   ...  311      
Number Format for Storage                  ... Double (8 Byte)
Integral package used                      ... LIBINT

Starting integral evaluation:
    ... done with AO integral generation
Closing buffer AOK     (38.25 GB; CompressionRatio= 1.33)
Collecting buffer AOK 
Number of MO pairs included in the trafo   ... 8128
------------------------
SORTING OF (i,mue|j,nue)
------------------------

IBATCH = 1 of  2
IBATCH = 2 of  2
Closing buffer KAO     (51.03 GB; CompressionRatio= 1.00)
Collecting buffer KAO 
N(AO-Batches) Done                         ...  86238934 
N(AO-Batches) Skipped                      ...  82321804 
N(IJ)-pairs Skipped                        ...         0 
TOTAL TIME for half transformation         ...  2544.423 sec
AO-integral generation                     ...   211.085 sec
Half transformation                        ...   423.719 sec
K-integral sorting                         ...  1685.941 sec

Finished integral transformation - now doing MP2 part

OPERATOR COMBINATION   0   0: ij=( 52..178, 52..178)
Process 10:   Internal MO 132
Process 13:   Internal MO 156
Process  4:   Internal MO  84
Process  7:   Internal MO 108
Process  1:   Internal MO  60
Process  0:   Internal MO  54
Process  0:   Internal MO  57
Process  1:   Internal MO  63
Process  2:   Internal MO  69
Process  3:   Internal MO  78
Process  8:   Internal MO 117
Process  1:   Internal MO  66
Process  2:   Internal MO  72
Process 11:   Internal MO 141
Process 14:   Internal MO 165
Process  4:   Internal MO  87
Process  6:   Internal MO 102
Process  9:   Internal MO 126
Process  5:   Internal MO  93
Process  3:   Internal MO  81
Process  7:   Internal MO 111
Process  2:   Internal MO  75
Process  4:   Internal MO  90
Process 10:   Internal MO 135
Process 15:   Internal MO 174
Process  8:   Internal MO 120
Process  6:   Internal MO 105
Process  5:   Internal MO  96
Process  7:   Internal MO 114
Process  9:   Internal MO 129
Process 12:   Internal MO 150
Process 13:   Internal MO 159
Process 11:   Internal MO 144
Process  5:   Internal MO  99
Process 14:   Internal MO 168
Process 10:   Internal MO 138
Process  8:   Internal MO 123
Process 15:   Internal MO 177
Process 11:   Internal MO 147
Process 12:   Internal MO 153
Process 13:   Internal MO 162
Process 14:   Internal MO 171
-----------------------------------------------
 MP2 CORRELATION ENERGY   :     -7.288052288 Eh
-----------------------------------------------


-------
TIMINGS
-------
Total time                : 2884.807 sec
Integral trafo            : 2547.951 sec ( 88.3%)
K(i,j)                    :    6.322 sec (  0.2%)
T(i,j)                    :    0.074 sec (  0.0%)

---------------------------------------
MP2 TOTAL ENERGY:    -2130.803492102 Eh
---------------------------------------

Maximum memory used throughout the entire MP2-calculation: 2275.3 MB

-------------------------   --------------------
FINAL SINGLE POINT ENERGY     -2130.803492102067
-------------------------   --------------------


                            ***************************************
                            *     ORCA property calculations      *
                            ***************************************


  WARNING: The energy has been calculated at the MP2 level but the densities
           used in the property calculations are still SCF densities
           MP2 response densities have not been calculated 
           use %mp2 Density relaxed end
           or  %mp2 Density unrelaxed end

                                    ---------------------
                                    Active property flags
                                    ---------------------
   (+) Dipole Moment


------------------------------------------------------------------------------
                       ORCA ELECTRIC PROPERTIES CALCULATION
------------------------------------------------------------------------------

Dipole Moment Calculation                       ... on
Quadrupole Moment Calculation                   ... off
Polarizability Calculation                      ... off
GBWName                                         ... /scratch/allen/tmpyp4_amber_gaff2/conf1/conf1/Conf169.orca.gbw
Electron density                                ... /scratch/allen/tmpyp4_amber_gaff2/conf1/conf1/Conf169.orca.scfp
The origin for moment calculation is the CENTER OF MASS  = ( 0.003407, -0.001737  0.000883)

-------------
DIPOLE MOMENT
-------------
                                X             Y             Z
Electronic contribution:      2.68632      -4.48596      -0.21688
Nuclear contribution   :      0.05400       0.22313       0.21314
                        -----------------------------------------
Total Dipole Moment    :      2.74032      -4.26283      -0.00374
                        -----------------------------------------
Magnitude (a.u.)       :      5.06765
Magnitude (Debye)      :     12.88095



--------------------
Rotational spectrum 
--------------------
 
Rotational constants in cm-1:     0.001501     0.001479     0.000760 
Rotational constants in MHz :    45.005934    44.351461    22.784390 

 Dipole components along the rotational axes: 
x,y,z [a.u.] :     3.466917    -3.696160    -0.001054 
x,y,z [Debye]:     8.812203    -9.394893    -0.002680 

 

Timings for individual modules:

Sum of individual times         ...     4627.298 sec (=  77.122 min)
GTO integral calculation        ...        3.714 sec (=   0.062 min)   0.1 %
SCF iterations                  ...     1719.102 sec (=  28.652 min)  37.2 %
MP2 module                      ...     2904.482 sec (=  48.408 min)  62.8 %
                             ****ORCA TERMINATED NORMALLY****
TOTAL RUN TIME: 0 days 1 hours 17 minutes 10 seconds 779 msec
# of primitive gaussian functions

