
                                 *****************
                                 * O   R   C   A *
                                 *****************

                                            #,                                       
                                            ###                                      
                                            ####                                     
                                            #####                                    
                                            ######                                   
                                           ########,                                 
                                     ,,################,,,,,                         
                               ,,#################################,,                 
                          ,,##########################################,,             
                       ,#########################################, ''#####,          
                    ,#############################################,,   '####,        
                  ,##################################################,,,,####,       
                ,###########''''           ''''###############################       
              ,#####''   ,,,,##########,,,,          '''####'''          '####       
            ,##' ,,,,###########################,,,                        '##       
           ' ,,###''''                  '''############,,,                           
         ,,##''                                '''############,,,,        ,,,,,,###''
      ,#''                                            '''#######################'''  
     '                                                          ''''####''''         
             ,#######,   #######,   ,#######,      ##                                
            ,#'     '#,  ##    ##  ,#'     '#,    #''#        ######   ,####,        
            ##       ##  ##   ,#'  ##            #'  '#       #        #'  '#        
            ##       ##  #######   ##           ,######,      #####,   #    #        
            '#,     ,#'  ##    ##  '#,     ,#' ,#      #,         ##   #,  ,#        
             '#######'   ##     ##  '#######'  #'      '#     #####' # '####'        



                  #######################################################
                  #                        -***-                        #
                  #          Department of theory and spectroscopy      #
                  #    Directorship and core code : Frank Neese         #
                  #        Max Planck Institute fuer Kohlenforschung    #
                  #                Kaiser Wilhelm Platz 1               #
                  #                 D-45470 Muelheim/Ruhr               #
                  #                      Germany                        #
                  #                                                     #
                  #                  All rights reserved                #
                  #                        -***-                        #
                  #######################################################


                         Program Version 5.0.4 -  RELEASE  -


 With contributions from (in alphabetic order):
   Daniel Aravena         : Magnetic Suceptibility
   Michael Atanasov       : Ab Initio Ligand Field Theory (pilot matlab implementation)
   Alexander A. Auer      : GIAO ZORA, VPT2 properties, NMR spectrum
   Ute Becker             : Parallelization
   Giovanni Bistoni       : ED, misc. LED, open-shell LED, HFLD
   Martin Brehm           : Molecular dynamics
   Dmytro Bykov           : SCF Hessian
   Vijay G. Chilkuri      : MRCI spin determinant printing, contributions to CSF-ICE
   Dipayan Datta          : RHF DLPNO-CCSD density
   Achintya Kumar Dutta   : EOM-CC, STEOM-CC
   Dmitry Ganyushin       : Spin-Orbit,Spin-Spin,Magnetic field MRCI
   Miquel Garcia          : C-PCM and meta-GGA Hessian, CC/C-PCM, Gaussian charge scheme
   Yang Guo               : DLPNO-NEVPT2, F12-NEVPT2, CIM, IAO-localization
   Andreas Hansen         : Spin unrestricted coupled pair/coupled cluster methods
   Benjamin Helmich-Paris : MC-RPA, TRAH-SCF, COSX integrals
   Lee Huntington         : MR-EOM, pCC
   Robert Izsak           : Overlap fitted RIJCOSX, COSX-SCS-MP3, EOM
   Marcus Kettner         : VPT2
   Christian Kollmar      : KDIIS, OOCD, Brueckner-CCSD(T), CCSD density, CASPT2, CASPT2-K
   Simone Kossmann        : Meta GGA functionals, TD-DFT gradient, OOMP2, MP2 Hessian
   Martin Krupicka        : Initial AUTO-CI
   Lucas Lang             : DCDCAS
   Marvin Lechner         : AUTO-CI (C++ implementation), FIC-MRCC
   Dagmar Lenk            : GEPOL surface, SMD
   Dimitrios Liakos       : Extrapolation schemes; Compound Job, initial MDCI parallelization
   Dimitrios Manganas     : Further ROCIS development; embedding schemes
   Dimitrios Pantazis     : SARC Basis sets
   Anastasios Papadopoulos: AUTO-CI, single reference methods and gradients
   Taras Petrenko         : DFT Hessian,TD-DFT gradient, ASA, ECA, R-Raman, ABS, FL, XAS/XES, NRVS
   Peter Pinski           : DLPNO-MP2, DLPNO-MP2 Gradient
   Christoph Reimann      : Effective Core Potentials
   Marius Retegan         : Local ZFS, SOC
   Christoph Riplinger    : Optimizer, TS searches, QM/MM, DLPNO-CCSD(T), (RO)-DLPNO pert. Triples
   Tobias Risthaus        : Range-separated hybrids, TD-DFT gradient, RPA, STAB
   Michael Roemelt        : Original ROCIS implementation
   Masaaki Saitow         : Open-shell DLPNO-CCSD energy and density
   Barbara Sandhoefer     : DKH picture change effects
   Avijit Sen             : IP-ROCIS
   Kantharuban Sivalingam : CASSCF convergence, NEVPT2, FIC-MRCI
   Bernardo de Souza      : ESD, SOC TD-DFT
   Georgi Stoychev        : AutoAux, RI-MP2 NMR, DLPNO-MP2 response
   Willem Van den Heuvel  : Paramagnetic NMR
   Boris Wezisla          : Elementary symmetry handling
   Frank Wennmohs         : Technical directorship


 We gratefully acknowledge several colleagues who have allowed us to
 interface, adapt or use parts of their codes:
   Stefan Grimme, W. Hujo, H. Kruse, P. Pracht,  : VdW corrections, initial TS optimization,
                  C. Bannwarth, S. Ehlert          DFT functionals, gCP, sTDA/sTD-DF
   Ed Valeev, F. Pavosevic, A. Kumar             : LibInt (2-el integral package), F12 methods
   Garnet Chan, S. Sharma, J. Yang, R. Olivares  : DMRG
   Ulf Ekstrom                                   : XCFun DFT Library
   Mihaly Kallay                                 : mrcc  (arbitrary order and MRCC methods)
   Jiri Pittner, Ondrej Demel                    : Mk-CCSD
   Frank Weinhold                                : gennbo (NPA and NBO analysis)
   Christopher J. Cramer and Donald G. Truhlar   : smd solvation model
   Lars Goerigk                                  : TD-DFT with DH, B97 family of functionals
   V. Asgeirsson, H. Jonsson                     : NEB implementation
   FAccTs GmbH                                   : IRC, NEB, NEB-TS, DLPNO-Multilevel, CI-OPT
                                                   MM, QMMM, 2- and 3-layer-ONIOM, Crystal-QMMM,
                                                   LR-CPCM, SF, NACMEs, symmetry and pop. for TD-DFT,
                                                   nearIR, NL-DFT gradient (VV10), updates on ESD,
                                                   ML-optimized integration grids
   S Lehtola, MJT Oliveira, MAL Marques          : LibXC Library
   Liviu Ungur et al                             : ANISO software


 Your calculation uses the libint2 library for the computation of 2-el integrals
 For citations please refer to: http://libint.valeyev.net

 Your ORCA version has been built with support for libXC version: 5.1.0
 For citations please refer to: https://tddft.org/programs/libxc/

 This ORCA versions uses:
   CBLAS   interface :  Fast vector & matrix operations
   LAPACKE interface :  Fast linear algebra routines
   SCALAPACK package :  Parallel linear algebra routines
   Shared memory     :  Shared parallel matrices
   BLAS/LAPACK       :  OpenBLAS 0.3.15  USE64BITINT DYNAMIC_ARCH NO_AFFINITY Sandybridge SINGLE_THREADED
        Core in use  :  Sandybridge
   Copyright (c) 2011-2014, The OpenBLAS Project


================================================================================

----- Orbital basis set information -----
Your calculation utilizes the basis: cc-pVDZ 
       H, B-Ne : Obtained from the ccRepo (grant-hill.group.shef.ac.uk/ccrepo) Feb. 2017
                 T. H. Dunning, Jr., J. Chem. Phys. 90, 1007 (1989)
            He : Obtained from the ccRepo (grant-hill.group.shef.ac.uk/ccrepo) Feb. 2017
                 D. E. Woon, T. H. Dunning, Jr., J. Chem. Phys. 100, 2975 (1994)
  Li-Be, Na-Mg : Obtained from the ccRepo (grant-hill.group.shef.ac.uk/ccrepo) Feb. 2017
                 B. P. Prascher, D. E. Woon, K. A. Peterson, T. H. Dunning, Jr., A. K. Wilson, Theor. Chem. Acc. 128, 69 (2011)
         Al-Ar : Obtained from the ccRepo (grant-hill.group.shef.ac.uk/ccrepo) Feb. 2017
                 D. E. Woon, T. H. Dunning, Jr., J. Chem. Phys. 98, 1358 (1993)
            Ca : Obtained from the Peterson Research Group Website (tyr0.chem.wsu.edu/~kipeters) Feb. 2017
                 J. Koput, K. A. Peterson, J. Phys. Chem. 106, 9595 (2002)
         Sc-Zn : Obtained from the ccRepo (grant-hill.group.shef.ac.uk/ccrepo) Feb. 2017
                 N. B. Balabanov, K. A. Peterson, J. Chem. Phys. 123, 064107 (2005)
                 N. B. Balabanov, K. A. Peterson, J. Chem. Phys. 125, 074110 (2006)
         Ga-Kr : Obtained from the ccRepo (grant-hill.group.shef.ac.uk/ccrepo) Feb. 2017
                 A. K. Wilson, D. E. Woon, K. A. Peterson, T. H. Dunning, Jr., J. Chem. Phys. 110, 7667 (1999)

================================================================================
                                        WARNINGS
                       Please study these warnings very carefully!
================================================================================


WARNING: No MP2 level density has been requested!
         To caclulate MP2 level properties use
         %mp2 Density relaxed end
         or
         %mp2 Density unrelaxed end

WARNING: Post HF methods need fully converged wavefunctions
  ===> : Setting SCFConvForced true
         You can overwrite this default with %scf ConvForced false 


INFO   : the flag for use of the SHARK integral package has been found!

================================================================================
                                       INPUT FILE
================================================================================
NAME = /scratch/allen/tmpyp4_amber_gaff2/2.Mdgx/conf11/conf11/Conf59.orca
|  1> ! PAL2
|  2> ! mp2 cc-pvdz TightSCF  NoKeepInts
|  3> 
|  4> %scf
|  5>   MaxCore 2000
|  6> end
|  7> %mp2
|  8>   MaxCore 2000
|  9> end
| 10> * xyz 0 1
| 11>    C       -3.47200         6.21500        -0.88500
| 12>    C        1.47400         4.04100         0.05700
| 13>    C       -2.80200         4.09300         0.04900
| 14>    C       -3.73800         4.30600         1.07300
| 15>    C       -4.50500         5.45400         1.08300
| 16>    C       -5.22800         7.59100         0.13500
| 17>    C        0.13200         4.30700         0.06100
| 18>    C       -0.56900         3.05600         0.04700
| 19>    C        1.64900         2.61800         0.02300
| 20>    C       -2.68600         5.08100        -0.94100
| 21>    N       -4.36400         6.39000         0.11600
| 22>    N        0.38800         2.06700         0.02500
| 23>    N       -2.01000         0.39500        -0.07500
| 24>    N       -0.38800        -2.07400        -0.02700
| 25>    N        2.01000        -0.40100         0.06500
| 26>    C       -1.96000         2.86100         0.02400
| 27>    C       -2.62300         1.61500        -0.01800
| 28>    C       -5.57300        -4.32900         1.06600
| 29>    C       -4.07300         1.47100         0.05600
| 30>    C       -4.10600        -2.75600        -0.02600
| 31>    C       -4.99500        -2.75700        -1.11100
| 32>    C       -6.13200        -3.54200        -1.07600
| 33>    C       -7.65100        -5.11300         0.04000
| 34>    C       -4.32400         0.14100         0.03700
| 35>    C       -3.02500        -0.52000        -0.04800
| 36>    C       -4.42200        -3.56600         1.07500
| 37>    N       -6.40700        -4.31300         0.00100
| 38>    C       -2.86700        -1.92200        -0.04000
| 39>    C       -1.65000        -2.62400        -0.02700
| 40>    C        3.56800        -6.14200        -1.04000
| 41>    C       -1.47600        -4.04900        -0.03400
| 42>    C        2.80300        -4.09900        -0.00800
| 43>    C        3.65700        -4.38400         1.06900
| 44>    C        4.42700        -5.53000         1.05900
| 45>    C        5.24500        -7.58800         0.01400
| 46>    C       -0.13400        -4.31500        -0.02200
| 47>    C        0.56800        -3.06400        -0.02700
| 48>    C        2.77500        -5.01200        -1.07400
| 49>    N        4.37600        -6.39100         0.01700
| 50>    C        1.95900        -2.86900        -0.00900
| 51>    C        2.62100        -1.62200         0.00900
| 52>    C        5.54300         4.33900        -1.13000
| 53>    C        4.07000        -1.47900        -0.09400
| 54>    C        4.10400         2.75100        -0.02100
| 55>    C        5.02700         2.72900         1.03600
| 56>    C        6.16600         3.50900         0.97800
| 57>    C        7.61900         5.15300        -0.11500
| 58>    C        4.32100        -0.14800        -0.09200
| 59>    C        3.02500         0.51400         0.01500
| 60>    C        4.38700         3.58200        -1.11500
| 61>    C        2.86600         1.91600         0.01300
| 62>    N        6.41300         4.29600        -0.09500
| 63>    H       -3.40700         7.00800        -1.62000
| 64>    H        2.27400         4.76600         0.08100
| 65>    H       -3.88100         3.57600         1.86000
| 66>    H       -5.24500         5.65800         1.84600
| 67>    H       -6.16800         7.36100        -0.37100
| 68>    H       -5.41800         7.87100         1.17100
| 69>    H       -4.71300         8.40100        -0.38200
| 70>    H       -0.33200         5.28200         0.06900
| 71>    H       -1.97100         4.98100        -1.75000
| 72>    H        0.18200         1.07200         0.00500
| 73>    H       -0.18300        -1.08000        -0.02100
| 74>    H       -5.86400        -4.96200         1.89500
| 75>    H       -4.79400         2.27200         0.13900
| 76>    H       -4.80000        -2.16000        -1.99400
| 77>    H       -6.84100        -3.58200        -1.89300
| 78>    H       -8.42800        -4.53600         0.54600
| 79>    H       -7.95600        -5.33700        -0.98100
| 80>    H       -7.45600        -6.03700         0.58400
| 81>    H       -5.28700        -0.34400         0.10000
| 82>    H       -3.78000        -3.60100         1.94700
| 83>    H        3.58700        -6.86800        -1.84300
| 84>    H       -2.27600        -4.77400        -0.05000
| 85>    H        3.71400        -3.72400         1.92600
| 86>    H        5.09200        -5.79500         1.87100
| 87>    H        6.20500        -7.32900        -0.43900
| 88>    H        5.39300        -7.91700         1.04200
| 89>    H        4.75900        -8.37300        -0.56400
| 90>    H        0.32900        -5.29000        -0.00800
| 91>    H        2.14600        -4.84200        -1.94000
| 92>    H        5.80800         4.98600        -1.95600
| 93>    H        4.78800        -2.28100        -0.18500
| 94>    H        4.86000         2.11400         1.91200
| 95>    H        6.90100         3.53100         1.77200
| 96>    H        7.38300         6.10900         0.35600
| 97>    H        8.41400         4.65200         0.43500
| 98>    H        7.92100         5.31000        -1.15000
| 99>    H        5.28300         0.33600        -0.17900
|100>    H        3.72000         3.63200        -1.96700
|101> *
|102> 
|103>                          ****END OF INPUT****
================================================================================

                       ****************************
                       * Single Point Calculation *
                       ****************************

---------------------------------
CARTESIAN COORDINATES (ANGSTROEM)
---------------------------------
  C     -3.472000    6.215000   -0.885000
  C      1.474000    4.041000    0.057000
  C     -2.802000    4.093000    0.049000
  C     -3.738000    4.306000    1.073000
  C     -4.505000    5.454000    1.083000
  C     -5.228000    7.591000    0.135000
  C      0.132000    4.307000    0.061000
  C     -0.569000    3.056000    0.047000
  C      1.649000    2.618000    0.023000
  C     -2.686000    5.081000   -0.941000
  N     -4.364000    6.390000    0.116000
  N      0.388000    2.067000    0.025000
  N     -2.010000    0.395000   -0.075000
  N     -0.388000   -2.074000   -0.027000
  N      2.010000   -0.401000    0.065000
  C     -1.960000    2.861000    0.024000
  C     -2.623000    1.615000   -0.018000
  C     -5.573000   -4.329000    1.066000
  C     -4.073000    1.471000    0.056000
  C     -4.106000   -2.756000   -0.026000
  C     -4.995000   -2.757000   -1.111000
  C     -6.132000   -3.542000   -1.076000
  C     -7.651000   -5.113000    0.040000
  C     -4.324000    0.141000    0.037000
  C     -3.025000   -0.520000   -0.048000
  C     -4.422000   -3.566000    1.075000
  N     -6.407000   -4.313000    0.001000
  C     -2.867000   -1.922000   -0.040000
  C     -1.650000   -2.624000   -0.027000
  C      3.568000   -6.142000   -1.040000
  C     -1.476000   -4.049000   -0.034000
  C      2.803000   -4.099000   -0.008000
  C      3.657000   -4.384000    1.069000
  C      4.427000   -5.530000    1.059000
  C      5.245000   -7.588000    0.014000
  C     -0.134000   -4.315000   -0.022000
  C      0.568000   -3.064000   -0.027000
  C      2.775000   -5.012000   -1.074000
  N      4.376000   -6.391000    0.017000
  C      1.959000   -2.869000   -0.009000
  C      2.621000   -1.622000    0.009000
  C      5.543000    4.339000   -1.130000
  C      4.070000   -1.479000   -0.094000
  C      4.104000    2.751000   -0.021000
  C      5.027000    2.729000    1.036000
  C      6.166000    3.509000    0.978000
  C      7.619000    5.153000   -0.115000
  C      4.321000   -0.148000   -0.092000
  C      3.025000    0.514000    0.015000
  C      4.387000    3.582000   -1.115000
  C      2.866000    1.916000    0.013000
  N      6.413000    4.296000   -0.095000
  H     -3.407000    7.008000   -1.620000
  H      2.274000    4.766000    0.081000
  H     -3.881000    3.576000    1.860000
  H     -5.245000    5.658000    1.846000
  H     -6.168000    7.361000   -0.371000
  H     -5.418000    7.871000    1.171000
  H     -4.713000    8.401000   -0.382000
  H     -0.332000    5.282000    0.069000
  H     -1.971000    4.981000   -1.750000
  H      0.182000    1.072000    0.005000
  H     -0.183000   -1.080000   -0.021000
  H     -5.864000   -4.962000    1.895000
  H     -4.794000    2.272000    0.139000
  H     -4.800000   -2.160000   -1.994000
  H     -6.841000   -3.582000   -1.893000
  H     -8.428000   -4.536000    0.546000
  H     -7.956000   -5.337000   -0.981000
  H     -7.456000   -6.037000    0.584000
  H     -5.287000   -0.344000    0.100000
  H     -3.780000   -3.601000    1.947000
  H      3.587000   -6.868000   -1.843000
  H     -2.276000   -4.774000   -0.050000
  H      3.714000   -3.724000    1.926000
  H      5.092000   -5.795000    1.871000
  H      6.205000   -7.329000   -0.439000
  H      5.393000   -7.917000    1.042000
  H      4.759000   -8.373000   -0.564000
  H      0.329000   -5.290000   -0.008000
  H      2.146000   -4.842000   -1.940000
  H      5.808000    4.986000   -1.956000
  H      4.788000   -2.281000   -0.185000
  H      4.860000    2.114000    1.912000
  H      6.901000    3.531000    1.772000
  H      7.383000    6.109000    0.356000
  H      8.414000    4.652000    0.435000
  H      7.921000    5.310000   -1.150000
  H      5.283000    0.336000   -0.179000
  H      3.720000    3.632000   -1.967000

----------------------------
CARTESIAN COORDINATES (A.U.)
----------------------------
  NO LB      ZA    FRAG     MASS         X           Y           Z
   0 C     6.0000    0    12.011   -6.561129   11.744648   -1.672408
   1 C     6.0000    0    12.011    2.785456    7.636383    0.107714
   2 C     6.0000    0    12.011   -5.295013    7.734649    0.092597
   3 C     6.0000    0    12.011   -7.063796    8.137161    2.027676
   4 C     6.0000    0    12.011   -8.513216   10.306566    2.046573
   5 C     6.0000    0    12.011   -9.879488   14.344911    0.255113
   6 C     6.0000    0    12.011    0.249444    8.139050    0.115273
   7 C     6.0000    0    12.011   -1.075254    5.775003    0.088817
   8 C     6.0000    0    12.011    3.116158    4.947303    0.043464
   9 C     6.0000    0    12.011   -5.075804    9.601698   -1.778232
  10 N     7.0000    0    14.007   -8.246765   12.075350    0.219208
  11 N     7.0000    0    14.007    0.733214    3.906064    0.047243
  12 N     7.0000    0    14.007   -3.798350    0.746442   -0.141729
  13 N     7.0000    0    14.007   -0.733214   -3.919292   -0.051023
  14 N     7.0000    0    14.007    3.798350   -0.757780    0.122832
  15 C     6.0000    0    12.011   -3.703863    5.406506    0.045353
  16 C     6.0000    0    12.011   -4.956752    3.051908   -0.034015
  17 C     6.0000    0    12.011  -10.531444   -8.180624    2.014448
  18 C     6.0000    0    12.011   -7.696855    2.779787    0.105825
  19 C     6.0000    0    12.011   -7.759216   -5.208085   -0.049133
  20 C     6.0000    0    12.011   -9.439182   -5.209975   -2.099486
  21 C     6.0000    0    12.011  -11.587801   -6.693410   -2.033345
  22 C     6.0000    0    12.011  -14.458295   -9.662170    0.075589
  23 C     6.0000    0    12.011   -8.171176    0.266451    0.069920
  24 C     6.0000    0    12.011   -5.716422   -0.982658   -0.090707
  25 C     6.0000    0    12.011   -8.356369   -6.738763    2.031456
  26 N     7.0000    0    14.007  -12.107475   -8.150389    0.001890
  27 C     6.0000    0    12.011   -5.417845   -3.632054   -0.075589
  28 C     6.0000    0    12.011   -3.118048   -4.958641   -0.051023
  29 C     6.0000    0    12.011    6.742543  -11.606698   -1.965315
  30 C     6.0000    0    12.011   -2.789236   -7.651501   -0.064251
  31 C     6.0000    0    12.011    5.296902   -7.745987   -0.015118
  32 C     6.0000    0    12.011    6.910728   -8.284559    2.020117
  33 C     6.0000    0    12.011    8.365818  -10.450186    2.001220
  34 C     6.0000    0    12.011    9.911614  -14.339242    0.026456
  35 C     6.0000    0    12.011   -0.253223   -8.154168   -0.041574
  36 C     6.0000    0    12.011    1.073364   -5.790121   -0.051023
  37 C     6.0000    0    12.011    5.243990   -9.471307   -2.029566
  38 N     7.0000    0    14.007    8.269442  -12.077240    0.032125
  39 C     6.0000    0    12.011    3.701973   -5.421624   -0.017008
  40 C     6.0000    0    12.011    4.952972   -3.065136    0.017008
  41 C     6.0000    0    12.011   10.474752    8.199522   -2.135391
  42 C     6.0000    0    12.011    7.691185   -2.794905   -0.177634
  43 C     6.0000    0    12.011    7.755436    5.198637   -0.039684
  44 C     6.0000    0    12.011    9.499653    5.157063    1.957756
  45 C     6.0000    0    12.011   11.652051    6.631049    1.848152
  46 C     6.0000    0    12.011   14.397823    9.737759   -0.217319
  47 C     6.0000    0    12.011    8.165507   -0.279679   -0.173855
  48 C     6.0000    0    12.011    5.716422    0.971319    0.028346
  49 C     6.0000    0    12.011    8.290229    6.768999   -2.107045
  50 C     6.0000    0    12.011    5.415955    3.620715    0.024566
  51 N     7.0000    0    14.007   12.118814    8.118263   -0.179524
  52 H     1.0000    0     1.008   -6.438297   13.243201   -3.061356
  53 H     1.0000    0     1.008    4.297237    9.006435    0.153068
  54 H     1.0000    0     1.008   -7.334027    6.757661    3.514891
  55 H     1.0000    0     1.008   -9.911614   10.692070    3.488434
  56 H     1.0000    0     1.008  -11.655831   13.910274   -0.701088
  57 H     1.0000    0     1.008  -10.238536   14.874034    2.212869
  58 H     1.0000    0     1.008   -8.906279   15.875589   -0.721875
  59 H     1.0000    0     1.008   -0.627389    9.981533    0.130391
  60 H     1.0000    0     1.008   -3.724650    9.412726   -3.307021
  61 H     1.0000    0     1.008    0.343930    2.025786    0.009449
  62 H     1.0000    0     1.008   -0.345820   -2.040904   -0.039684
  63 H     1.0000    0     1.008  -11.081354   -9.376821    3.581031
  64 H     1.0000    0     1.008   -9.059347    4.293458    0.262672
  65 H     1.0000    0     1.008   -9.070685   -4.081808   -3.768114
  66 H     1.0000    0     1.008  -12.927616   -6.768999   -3.577252
  67 H     1.0000    0     1.008  -15.926612   -8.571798    1.031790
  68 H     1.0000    0     1.008  -15.034661  -10.085468   -1.853821
  69 H     1.0000    0     1.008  -14.089798  -11.408277    1.103600
  70 H     1.0000    0     1.008   -9.990982   -0.650066    0.188973
  71 H     1.0000    0     1.008   -7.143165   -6.804904    3.679297
  72 H     1.0000    0     1.008    6.778448  -12.978639   -3.482765
  73 H     1.0000    0     1.008   -4.301017   -9.021553   -0.094486
  74 H     1.0000    0     1.008    7.018443   -7.037340    3.639613
  75 H     1.0000    0     1.008    9.622485  -10.950963    3.535678
  76 H     1.0000    0     1.008   11.725751  -13.849803   -0.829590
  77 H     1.0000    0     1.008   10.191293  -14.960962    1.969095
  78 H     1.0000    0     1.008    8.993207  -15.822677   -1.065806
  79 H     1.0000    0     1.008    0.621720   -9.996651   -0.015118
  80 H     1.0000    0     1.008    4.055352   -9.150054   -3.666069
  81 H     1.0000    0     1.008   10.975529    9.422175   -3.696304
  82 H     1.0000    0     1.008    9.048009   -4.310465   -0.349599
  83 H     1.0000    0     1.008    9.184069    3.994881    3.613156
  84 H     1.0000    0     1.008   13.041000    6.672623    3.348595
  85 H     1.0000    0     1.008   13.951848   11.544337    0.672743
  86 H     1.0000    0     1.008   15.900156    8.791006    0.822031
  87 H     1.0000    0     1.008   14.968521   10.034446   -2.173185
  88 H     1.0000    0     1.008    9.983423    0.634948   -0.338261
  89 H     1.0000    0     1.008    7.029781    6.863485   -3.717091

--------------------------------
INTERNAL COORDINATES (ANGSTROEM)
--------------------------------
 C      0   0   0     0.000000000000     0.00000000     0.00000000
 C      1   0   0     5.484209696939     0.00000000     0.00000000
 C      1   2   0     2.413325506433    48.28590672     0.00000000
 C      3   1   2     1.403581490331    87.92425849   133.35830123
 C      4   3   1     1.380685699209   120.12720261     0.13550859
 C      5   4   3     2.447080301094   152.55289323     1.62908024
 C      2   1   3     1.368114030335    16.00891278   343.56481791
 C      7   2   1     1.434084376876   108.05010202   140.08425910
 C      2   1   3     1.434123425651   119.95464695    29.13749056
 C      1   2   3     1.380901155043    33.70538040   318.62443510
 N      1   2   3     1.352142743944   121.27179241    58.32996782
 N      9   2   1     1.376127174356   106.58526707   347.27058683
 N     12   9   2     2.925062050624   168.53581413   171.12065651
 N     13  12   9     2.954513327098    91.55032014    11.12112580
 N     14  13  12     2.925371258490    88.43092389   359.84326247
 C      8   7   2     1.404790019896   127.24786865   181.11170171
 C     13  12   9     1.366535034311    81.72106996   188.00453233
 C     14  13  12     5.758810554272    80.56209567   166.76250791
 C     17  13  12     1.459010623676   111.08861209   183.82872609
 C     18  14  13     2.412235892279    27.27532823    36.33507194
 C     20  18  14     1.402692767501    87.95206320   148.94598259
 C     21  20  18     1.382106725257   120.14573887   359.70382047
 C     18  14  13     2.446510985056   144.15733107    82.80075377
 C     19  17  13     1.353610726908   106.29293361   359.75308708
 C     13  12   9     1.366813447402   172.21332906    33.46711076
 C     18  14  13     1.380960173213    15.08449437   309.23336894
 N     22  21  20     1.352773077792   120.73759875     0.27865223
 C     25  13  17     1.410897586645   125.60330303   182.37774668
 C     14  13  12     1.376642291955    80.24689249   177.85461986
 C     14  13  12     5.764089607215   164.51507311   312.20821879
 C     29  14  13     1.435600919476   106.58649366   178.76395472
 C     30  14  13     2.413316804732    27.10625047    82.12560436
 C     32  30  14     1.403734305344    87.90059683   149.76154742
 C     33  32  30     1.380694028378   120.14881443   359.74174632
 C     34  33  32     2.448777858443   152.49203239     2.45173620
 C     31  29  14     1.368160809262   108.16950133     0.70383075
 C     14  13  12     1.376239804685   169.26375223   353.09862627
 C     30  14  13     1.380907310430    14.68948582   353.70041132
 N     34  33  32     1.352658863128   120.85575621     0.19603406
 C     37  14  29     1.404717053360   126.01551127   180.90772073
 C     15  14  13     1.366491126938    81.61824056   183.09049352
 C      2   1   3     4.249062720177   141.98582326   158.65071060
 C     41  15  14     1.459677704153   111.05201287   175.08990246
 C     42   2   1     2.412953791518    41.78584867   198.37626692
 C     44  42   2     1.403446472082    87.95153797   233.97558675
 C     45  44  42     1.381696421071   120.11137308     0.19721020
 C     42   2   1     2.450019795838   135.97209175   108.69111602
 C     43  41  15     1.354461516618   106.26758155     0.30894352
 C     15  14  13     1.367461151185   171.87382904   332.35056460
 C     42   2   1     1.381886391857    32.59078432   247.23154611
 C      9   2   1     1.404988612053   126.98745415   168.27492436
 N     42   2   1     1.352765315936   113.57249190   136.42770521
 H      1   2   3     1.083189272473   110.64914522   200.32693153
 H      2   1   3     1.079907866440   113.94054246   198.74604533
 H      4   3   1     1.082921049754   121.06179136   179.50042975
 H      5   4   3     1.082305409762   122.79610624   179.44369580
 H      6   5   4     1.092032966535   104.47142072   100.05684922
 H      6   5   4     1.089860541537    84.69896791   209.53054194
 H      6   5   4     1.090235754321   133.86478445   322.33336903
 H      7   2   1     1.079807853278   126.66122480   320.32267289
 H     10   1   2     1.084299774048   118.77201382   282.18741245
 H     12   9   2     1.016297692608   125.29023241   180.00180175
 H     14  13  12     1.014936943854    44.97226959   359.42596618
 H     18  14  13     1.082871645210   128.03556573   234.20482432
 H     19  17  13     1.080893611786   126.41830519   178.11313280
 H     21  20  18     1.083569563987   121.05669627   180.67006309
 H     22  21  20     1.082483256222   122.73097286   180.59748951
 H     23  18  14     1.092105306278   103.92715769   234.93429879
 H     23  18  14     1.088871893291   134.19244188    12.25587044
 H     23  18  14     1.089833473518    84.85857450   125.45241208
 H     24  19  17     1.080075460327   127.28078426   178.44613241
 H     26  18  14     1.083408048706   118.76995697   244.94906660
 H     30  14  13     1.082703098730   127.99711412   279.66882698
 H     31  29  14     1.079759695488   125.22293469   180.92530585
 H     33  32  30     1.083188810873   121.01964473   180.74284758
 H     34  33  32     1.082494341787   122.70821597   180.59516895
 H     35  34  33     1.092652735319   105.73575241    97.19771933
 H     35  34  33     1.089462711615    84.05943581   206.43036958
 H     35  34  33     1.089268102902   133.08365142   318.50306270
 H     36  31  29     1.079439669458   126.61599965   178.98859863
 H     38  30  73     1.083742127999   118.77264435   359.90091293
 H     42   2   1     1.082178358682   119.31790784   353.05923567
 H     43  41  15     1.080281907652   126.36969097   182.06329380
 H     45  44  42     1.083277434455   121.10105945   179.58025624
 H     46  45  44     1.082194529648   122.72144639   179.46906377
 H     47  42   2     1.091546151109   106.65128841   315.16475048
 H     47  42   2     1.088818625851   132.46019523    94.52397119
 H     47  42   2     1.089531091801    83.63838232   206.04504406
 H     48  43  41     1.080402239909   127.23657387   181.62955349
 H     50  42   2     1.083186502870   118.77001737    94.71359229

---------------------------
INTERNAL COORDINATES (A.U.)
---------------------------
 C      0   0   0     0.000000000000     0.00000000     0.00000000
 C      1   0   0    10.363654388210     0.00000000     0.00000000
 C      1   2   0     4.560524279165    48.28590672     0.00000000
 C      3   1   2     2.652384623367    87.92425849   133.35830123
 C      4   3   1     2.609117848526   120.12720261     0.13550859
 C      5   4   3     4.624311596780   152.55289323     1.62908024
 C      2   1   3     2.585360837309    16.00891278   343.56481791
 C      7   2   1     2.710026725231   108.05010202   140.08425910
 C      2   1   3     2.710100516721   119.95464695    29.13749056
 C      1   2   3     2.609525001047    33.70538040   318.62443510
 N      1   2   3     2.555179480023   121.27179241    58.32996782
 N      9   2   1     2.600503484979   106.58526707   347.27058683
 N     12   9   2     5.527566200405   168.53581413   171.12065651
 N     13  12   9     5.583221047236    91.55032014    11.12112580
 N     14  13  12     5.528150518591    88.43092389   359.84326247
 C      8   7   2     2.654668413270   127.24786865   181.11170171
 C     13  12   9     2.582376967257    81.72106996   188.00453233
 C     14  13  12    10.882574804710    80.56209567   166.76250791
 C     17  13  12     2.757130505230   111.08861209   183.82872609
 C     18  14  13     4.558465206823    27.27532823    36.33507194
 C     20  18  14     2.650705180609    87.95206320   148.94598259
 C     21  20  18     2.611803198586   120.14573887   359.70382047
 C     18  14  13     4.623235745386   144.15733107    82.80075377
 C     19  17  13     2.557953565794   106.29293361   359.75308708
 C     13  12   9     2.582903091751   172.21332906    33.46711076
 C     18  14  13     2.609636529225    15.08449437   309.23336894
 N     22  21  20     2.556370638369   120.73759875     0.27865223
 C     25  13  17     2.666210041769   125.60330303   182.37774668
 C     14  13  12     2.601476916169    80.24689249   177.85461986
 C     14  13  12    10.892550769017   164.51507311   312.20821879
 C     29  14  13     2.712892575415   106.58649366   178.76395472
 C     30  14  13     4.560507835333    27.10625047    82.12560436
 C     32  30  14     2.652673401891    87.90059683   149.76154742
 C     33  32  30     2.609133588376   120.14881443   359.74174632
 C     34  33  32     4.627519515267   152.49203239     2.45173620
 C     31  29  14     2.585449236669   108.16950133     0.70383075
 C     14  13  12     2.600716325456   169.26375223   353.09862627
 C     30  14  13     2.609536633043    14.68948582   353.70041132
 N     34  33  32     2.556154803934   120.85575621     0.19603406
 C     37  14  29     2.654530526499   126.01551127   180.90772073
 C     15  14  13     2.582293994346    81.61824056   183.09049352
 C      2   1   3     8.029564866989   141.98582326   158.65071060
 C     41  15  14     2.758391104639   111.05201287   175.08990246
 C     42   2   1     4.559821839776    41.78584867   198.37626692
 C     44  42   2     2.652129475853    87.95153797   233.97558675
 C     45  44  42     2.611027836043   120.11137308     0.19721020
 C     42   2   1     4.629866436820   135.97209175   108.69111602
 C     43  41  15     2.559561325344   106.26758155     0.30894352
 C     15  14  13     2.584127074516   171.87382904   332.35056460
 C     42   2   1     2.611386828803    32.59078432   247.23154611
 C      9   2   1     2.655043698059   126.98745415   168.27492436
 N     42   2   1     2.556355970587   113.57249190   136.42770521
 H      1   2   3     2.046931076175   110.64914522   200.32693153
 H      2   1   3     2.040730117440   113.94054246   198.74604533
 H      4   3   1     2.046424208693   121.06179136   179.50042975
 H      5   4   3     2.045260817712   122.79610624   179.44369580
 H      6   5   4     2.063643235965   104.47142072   100.05684922
 H      6   5   4     2.059537947673    84.69896791   209.53054194
 H      6   5   4     2.060246997076   133.86478445   322.33336903
 H      7   2   1     2.040541119952   126.66122480   320.32267289
 H     10   1   2     2.049029620023   118.77201382   282.18741245
 H     12   9   2     1.920524309565   125.29023241   180.00180175
 H     14  13  12     1.917952867083    44.97226959   359.42596618
 H     18  14  13     2.046330847636   128.03556573   234.20482432
 H     19  17  13     2.042592906181   126.41830519   178.11313280
 H     21  20  18     2.047649722989   121.05669627   180.67006309
 H     22  21  20     2.045596898814   122.73097286   180.59748951
 H     23  18  14     2.063779938267   103.92715769   234.93429879
 H     23  18  14     2.057669673245   134.19244188    12.25587044
 H     23  18  14     2.059486796529    84.85857450   125.45241208
 H     24  19  17     2.041046823986   127.28078426   178.44613241
 H     26  18  14     2.047344503340   118.76995697   244.94906660
 H     30  14  13     2.046012340948   127.99711412   279.66882698
 H     31  29  14     2.040450114918   125.22293469   180.92530585
 H     33  32  30     2.046930203877   121.01964473   180.74284758
 H     34  33  32     2.045617847496   122.70821597   180.59516895
 H     35  34  33     2.064814429233   105.73575241    97.19771933
 H     35  34  33     2.058786158072    84.05943581   206.43036958
 H     35  34  33     2.058418400901   133.08365142   318.50306270
 H     36  31  29     2.039845353366   126.61599965   178.98859863
 H     38  30  73     2.047975821711   118.77264435   359.90091293
 H     42   2   1     2.045020725966   119.31790784   353.05923567
 H     43  41  15     2.041436952892   126.36969097   182.06329380
 H     45  44  42     2.047097678177   121.10105945   179.58025624
 H     46  45  44     2.045051284662   122.72144639   179.46906377
 H     47  42   2     2.062723288131   106.65128841   315.16475048
 H     47  42   2     2.057569012371   132.46019523    94.52397119
 H     47  42   2     2.058915377895    83.63838232   206.04504406
 H     48  43  41     2.041664347903   127.23657387   181.62955349
 H     50  42   2     2.046925842384   118.77001737    94.71359229

---------------------
BASIS SET INFORMATION
---------------------
There are 3 groups of distinct atoms

 Group   1 Type C   : 17s4p1d contracted to 3s2p1d pattern {881/31/1}
 Group   2 Type N   : 17s4p1d contracted to 3s2p1d pattern {881/31/1}
 Group   3 Type H   : 4s1p contracted to 2s1p pattern {31/1}

Atom   0C    basis set group =>   1
Atom   1N    basis set group =>   2
Atom   2C    basis set group =>   1
Atom   3N    basis set group =>   2
Atom   4C    basis set group =>   1
Atom   5N    basis set group =>   2
Atom   6C    basis set group =>   1
Atom   7N    basis set group =>   2
Atom   8C    basis set group =>   1
Atom   9N    basis set group =>   2
Atom  10C    basis set group =>   1
Atom  11N    basis set group =>   2
Atom  12C    basis set group =>   1
Atom  13N    basis set group =>   2
Atom  14C    basis set group =>   1
Atom  15N    basis set group =>   2
Atom  16C    basis set group =>   1
Atom  17C    basis set group =>   1
Atom  18C    basis set group =>   1
Atom  19C    basis set group =>   1
Atom  20C    basis set group =>   1
Atom  21C    basis set group =>   1
Atom  22C    basis set group =>   1
Atom  23C    basis set group =>   1
Atom  24C    basis set group =>   1
Atom  25C    basis set group =>   1
Atom  26C    basis set group =>   1
Atom  27C    basis set group =>   1
Atom  28C    basis set group =>   1
Atom  29C    basis set group =>   1
Atom  30C    basis set group =>   1
Atom  31C    basis set group =>   1
Atom  32C    basis set group =>   1
Atom  33C    basis set group =>   1
Atom  34C    basis set group =>   1
Atom  35C    basis set group =>   1
Atom  36C    basis set group =>   1
Atom  37C    basis set group =>   1
Atom  38C    basis set group =>   1
Atom  39C    basis set group =>   1
Atom  40C    basis set group =>   1
Atom  41C    basis set group =>   1
Atom  42C    basis set group =>   1
Atom  43C    basis set group =>   1
Atom  44C    basis set group =>   1
Atom  45C    basis set group =>   1
Atom  46C    basis set group =>   1
Atom  47C    basis set group =>   1
Atom  48C    basis set group =>   1
Atom  49C    basis set group =>   1
Atom  50C    basis set group =>   1
Atom  51C    basis set group =>   1
Atom  52H    basis set group =>   3
Atom  53H    basis set group =>   3
Atom  54H    basis set group =>   3
Atom  55H    basis set group =>   3
Atom  56H    basis set group =>   3
Atom  57H    basis set group =>   3
Atom  58H    basis set group =>   3
Atom  59H    basis set group =>   3
Atom  60H    basis set group =>   3
Atom  61H    basis set group =>   3
Atom  62H    basis set group =>   3
Atom  63H    basis set group =>   3
Atom  64H    basis set group =>   3
Atom  65H    basis set group =>   3
Atom  66H    basis set group =>   3
Atom  67H    basis set group =>   3
Atom  68H    basis set group =>   3
Atom  69H    basis set group =>   3
Atom  70H    basis set group =>   3
Atom  71H    basis set group =>   3
Atom  72H    basis set group =>   3
Atom  73H    basis set group =>   3
Atom  74H    basis set group =>   3
Atom  75H    basis set group =>   3
Atom  76H    basis set group =>   3
Atom  77H    basis set group =>   3
Atom  78H    basis set group =>   3
Atom  79H    basis set group =>   3
Atom  80H    basis set group =>   3
Atom  81H    basis set group =>   3
Atom  82H    basis set group =>   3
Atom  83H    basis set group =>   3
Atom  84H    basis set group =>   3
Atom  85H    basis set group =>   3
Atom  86H    basis set group =>   3
Atom  87H    basis set group =>   3
Atom  88H    basis set group =>   3
Atom  89H    basis set group =>   3


           ************************************************************
           *        Program running with 16 parallel MPI-processes    *
           *              working on a common directory               *
           ************************************************************
------------------------------------------------------------------------------
                           ORCA GTO INTEGRAL CALCULATION
------------------------------------------------------------------------------
------------------------------------------------------------------------------
                   ___                                                        
                  /   \      - P O W E R E D   B Y -                         
                 /     \                                                     
                 |  |  |   _    _      __       _____    __    __             
                 |  |  |  | |  | |    /  \     |  _  \  |  |  /  |          
                  \  \/   | |  | |   /    \    | | | |  |  | /  /          
                 / \  \   | |__| |  /  /\  \   | |_| |  |  |/  /          
                |  |  |   |  __  | /  /__\  \  |    /   |      \           
                |  |  |   | |  | | |   __   |  |    \   |  |\   \          
                \     /   | |  | | |  |  |  |  | |\  \  |  | \   \       
                 \___/    |_|  |_| |__|  |__|  |_| \__\ |__|  \__/        
                                                                              
                      - O R C A' S   B I G   F R I E N D -                    
                                      &                                       
                       - I N T E G R A L  F E E D E R -                       
                                                                              
 v1 FN, 2020, v2 2021                                                         
------------------------------------------------------------------------------


Reading SHARK input file /scratch/allen/tmpyp4_amber_gaff2/conf1/conf1/Conf59.orca.SHARKINP.tmp ... ok
----------------------
SHARK INTEGRAL PACKAGE
----------------------

Number of atoms                             ...     90
Number of basis functions                   ...   1230
Number of shells                            ...    738
Maximum angular momentum                    ...      2
Integral batch strategy                     ... SHARK/LIBINT Hybrid
RI-J (if used) integral strategy            ... SPLIT-RIJ (Revised 2003 algorithm where possible)
Printlevel                                  ...      1
Contraction scheme used                     ... PARTIAL GENERAL contraction
Coulomb Range Separation                    ... NOT USED
Exchange Range Separation                   ... NOT USED
Finite Nucleus Model                        ... NOT USED
Auxiliary Coulomb fitting basis             ... NOT available
Auxiliary J/K fitting basis                 ... NOT available
Auxiliary Correlation fitting basis         ... NOT available
Auxiliary 'external' fitting basis          ... NOT available
Integral threshold                          ...     2.500000e-11
Primitive cut-off                           ...     2.500000e-12
Primitive pair pre-selection threshold      ...     2.500000e-12

Calculating pre-screening integrals         ... done (  0.1 sec) Dimension = 738
Calculating pre-screening integrals (ORCA)  ... done (  0.3 sec) Dimension = 426
Organizing shell pair data                  ... done (  0.8 sec)
Shell pair information
Total number of shell pairs                 ...    272691
Shell pairs after pre-screening             ...     71597
Total number of primitive shell pairs       ...    422091
Primitive shell pairs kept                  ...     92354
          la=0 lb=0:  29408 shell pairs
          la=1 lb=0:  25962 shell pairs
          la=1 lb=1:   4699 shell pairs
          la=2 lb=0:   7871 shell pairs
          la=2 lb=1:   3126 shell pairs
          la=2 lb=2:    531 shell pairs

Calculating one electron integrals          ... done (  0.3 sec)
Calculating Nuclear repulsion               ... done (  0.0 sec) ENN=   6225.328238803664 Eh

SHARK setup successfully completed in   2.2 seconds

Maximum memory used throughout the entire GTOINT-calculation: 98.9 MB


           ************************************************************
           *        Program running with 16 parallel MPI-processes    *
           *              working on a common directory               *
           ************************************************************
-------------------------------------------------------------------------------
                                 ORCA SCF
-------------------------------------------------------------------------------

------------
SCF SETTINGS
------------
Hamiltonian:
 Ab initio Hamiltonian  Method          .... Hartree-Fock(GTOs)


General Settings:
 Integral files         IntName         .... /scratch/allen/tmpyp4_amber_gaff2/conf1/conf1/Conf59.orca
 Hartree-Fock type      HFTyp           .... RHF
 Total Charge           Charge          ....    0
 Multiplicity           Mult            ....    1
 Number of Electrons    NEL             ....  358
 Basis Dimension        Dim             ....  918
 Nuclear Repulsion      ENuc            ....   6225.3282388037 Eh

Convergence Acceleration:
 DIIS                   CNVDIIS         .... on
   Start iteration      DIISMaxIt       ....    12
   Startup error        DIISStart       ....  0.200000
   # of expansion vecs  DIISMaxEq       ....     5
   Bias factor          DIISBfac        ....   1.050
   Max. coefficient     DIISMaxC        ....  10.000
 Trust-Rad. Augm. Hess. CNVTRAH         .... auto
   Auto Start mean grad. ratio tolernc. ....  1.125000
   Auto Start start iteration           ....    20
   Auto Start num. interpolation iter.  ....    10
   Max. Number of Micro iterations      ....    16
   Max. Number of Macro iterations      .... Maxiter - #DIIS iter
   Number of Davidson start vectors     ....     2
   Converg. threshold I  (grad. norm)   ....   1.000e-05
   Converg. threshold II (energy diff.) ....   1.000e-08
   Grad. Scal. Fac. for Micro threshold ....   0.100
   Minimum threshold for Micro iter.    ....   0.010
   NR start threshold (gradient norm)   ....   0.001
   Initial trust radius                 ....   0.400
   Minimum AH scaling param. (alpha)    ....   1.000
   Maximum AH scaling param. (alpha)    .... 1000.000
   Orbital update algorithm             .... Taylor
   White noise on init. David. guess    .... on
   Maximum white noise                  ....   0.010
   Quad. conv. algorithm                .... NR
 SOSCF                  CNVSOSCF        .... on
   Start iteration      SOSCFMaxIt      ....   150
   Startup grad/error   SOSCFStart      ....  0.003300
 Level Shifting         CNVShift        .... on
   Level shift para.    LevelShift      ....    0.2500
   Turn off err/grad.   ShiftErr        ....    0.0010
 Zerner damping         CNVZerner       .... off
 Static damping         CNVDamp         .... on
   Fraction old density DampFac         ....    0.7000
   Max. Damping (<1)    DampMax         ....    0.9800
   Min. Damping (>=0)   DampMin         ....    0.0000
   Turn off err/grad.   DampErr         ....    0.1000
 Fernandez-Rico         CNVRico         .... off

SCF Procedure:
 Maximum # iterations   MaxIter         ....   125
 SCF integral mode      SCFMode         .... Direct
   Integral package                     .... SHARK and LIBINT hybrid scheme
 Reset frequency        DirectResetFreq ....    20
 Integral Threshold     Thresh          ....  2.500e-11 Eh
 Primitive CutOff       TCut            ....  2.500e-12 Eh

Convergence Tolerance:
 Convergence Check Mode ConvCheckMode   .... Total+1el-Energy
 Convergence forced     ConvForced      .... 1
 Energy Change          TolE            ....  1.000e-08 Eh
 1-El. energy change                    ....  1.000e-05 Eh
 Orbital Gradient       TolG            ....  1.000e-05
 Orbital Rotation angle TolX            ....  1.000e-05
 DIIS Error             TolErr          ....  5.000e-07


Diagonalization of the overlap matrix:
Smallest eigenvalue                        ... 2.249e-04
Time for diagonalization                   ...    0.394 sec
Threshold for overlap eigenvalues          ... 1.000e-08
Number of eigenvalues below threshold      ... 0
Time for construction of square roots      ...    0.248 sec
Total time needed                          ...    0.647 sec

Time for model grid setup =    1.056 sec

------------------------------
INITIAL GUESS: MODEL POTENTIAL
------------------------------
Loading Hartree-Fock densities                     ... done
Calculating cut-offs                               ... done
Initializing the effective Hamiltonian             ... done
Setting up the integral package (SHARK)            ... done
Starting the Coulomb interaction                   ... done (   1.2 sec)
Reading the grid                                   ... done
Mapping shells                                     ... done
Starting the XC term evaluation                    ... done (   0.2 sec)
Transforming the Hamiltonian                       ... done (   0.2 sec)
Diagonalizing the Hamiltonian                      ... done (   0.3 sec)
Back transforming the eigenvectors                 ... done (   0.1 sec)
Now organizing SCF variables                       ... done
                      ------------------
                      INITIAL GUESS DONE (   3.1 sec)
                      ------------------
--------------
SCF ITERATIONS
--------------
ITER       Energy         Delta-E        Max-DP      RMS-DP      [F,P]     Damp
               ***  Starting incremental Fock matrix formation  ***
  0  -2121.6698139022   0.000000000000 0.06905443  0.00121204  0.2330687 0.7000
  1  -2122.3354724841  -0.665658581978 0.05239465  0.00098396  0.1441991 0.7000
                               ***Turning on DIIS***
  2  -2122.7489107492  -0.413438265008 0.11632586  0.00222807  0.0802640 0.0000
  3  -2117.7229378997   5.025972849440 0.03086427  0.00068630  0.0442740 0.0000
  4  -2123.4089939490  -5.686056049311 0.00879147  0.00022955  0.0069172 0.0000
  5  -2123.5895393860  -0.180545436990 0.00513816  0.00013630  0.0048887 0.0000
  6  -2123.5725879432   0.016951442820 0.00333823  0.00008887  0.0019497 0.0000
  7  -2123.6785392609  -0.105951317690 0.00280866  0.00007065  0.0014895 0.0000
  8  -2123.6988333485  -0.020294087652 0.00272269  0.00006687  0.0013903 0.0000
  9  -2123.6618479842   0.036985364351 0.00218941  0.00004563  0.0010942 0.0000
 10  -2123.6777877538  -0.015939769652 0.00453694  0.00009010  0.0008304 0.0000
                      *** Initiating the SOSCF procedure ***
                           *** Shutting down DIIS ***
                      *** Re-Reading the Fockian *** 
                      *** Removing any level shift *** 
ITER      Energy       Delta-E        Grad      Rot      Max-DP    RMS-DP
 11  -2123.55519986   0.1225878987  0.000358  0.000358  0.000296  0.000007
               *** Restarting incremental Fock matrix formation ***
 12  -2123.62253493  -0.0673350797  0.001024  0.006982  0.001090  0.000027
 13  -2123.62259878  -0.0000638452  0.001058  0.026401  0.003714  0.000081
 14  -2123.62266989  -0.0000711103  0.000444  0.002923  0.000514  0.000012
 15  -2123.62267970  -0.0000098137  0.000104  0.001182  0.000326  0.000005
 16  -2123.62268193  -0.0000022256  0.000090  0.001155  0.000362  0.000007
 17  -2123.62268332  -0.0000013897  0.000065  0.001201  0.000288  0.000005
 18  -2123.62268381  -0.0000004860  0.000038  0.000839  0.000274  0.000004
 19  -2123.62268421  -0.0000004019  0.000042  0.000582  0.000166  0.000002
 20  -2123.62268438  -0.0000001688  0.000018  0.000304  0.000064  0.000001
 21  -2123.62268442  -0.0000000480  0.000012  0.000322  0.000056  0.000001
 22  -2123.62268446  -0.0000000320  0.000013  0.000311  0.000050  0.000001
 23  -2123.62268448  -0.0000000268  0.000010  0.000171  0.000039  0.000001
 24  -2123.62268449  -0.0000000114  0.000004  0.000088  0.000024  0.000000
 25  -2123.62268450  -0.0000000091  0.000004  0.000039  0.000014  0.000000
                  ***Gradient check signals convergence***
              ***Rediagonalizing the Fockian in SOSCF/NRSCF***

               *****************************************************
               *                     SUCCESS                       *
               *           SCF CONVERGED AFTER  26 CYCLES          *
               *****************************************************


----------------
TOTAL SCF ENERGY
----------------

Total Energy       :        -2123.62268450 Eh          -57786.71106 eV

Components:
Nuclear Repulsion  :         6225.32823880 Eh          169399.79350 eV
Electronic Energy  :        -8348.95092331 Eh         -227186.50456 eV
One Electron Energy:       -15291.80538758 Eh         -416111.17928 eV
Two Electron Energy:         6942.85446427 Eh          188924.67472 eV

Virial components:
Potential Energy   :        -4245.63119660 Eh         -115529.49827 eV
Kinetic Energy     :         2122.00851209 Eh           57742.78720 eV
Virial Ratio       :            2.00076068


---------------
SCF CONVERGENCE
---------------

  Last Energy change         ...   -1.2387e-09  Tolerance :   1.0000e-08
  Last MAX-Density change    ...    1.1757e-05  Tolerance :   1.0000e-07
  Last RMS-Density change    ...    1.5438e-07  Tolerance :   5.0000e-09
  Last Orbital Gradient      ...    1.9219e-06  Tolerance :   1.0000e-05
  Last Orbital Rotation      ...    2.5289e-05  Tolerance :   1.0000e-05

             **** THE GBW FILE WAS UPDATED (/scratch/allen/tmpyp4_amber_gaff2/conf1/conf1/Conf59.orca.gbw) ****
             **** DENSITY /scratch/allen/tmpyp4_amber_gaff2/conf1/conf1/Conf59.orca.scfp WAS UPDATED ****
             **** ENERGY FILE WAS UPDATED (/scratch/allen/tmpyp4_amber_gaff2/conf1/conf1/Conf59.orca.en.tmp) ****
             **** THE GBW FILE WAS UPDATED (/scratch/allen/tmpyp4_amber_gaff2/conf1/conf1/Conf59.orca.gbw) ****
             **** DENSITY /scratch/allen/tmpyp4_amber_gaff2/conf1/conf1/Conf59.orca.scfp WAS UPDATED ****
----------------
ORBITAL ENERGIES
----------------

  NO   OCC          E(Eh)            E(eV) 
   0   2.0000     -15.638074      -425.5336 
   1   2.0000     -15.637626      -425.5214 
   2   2.0000     -15.629607      -425.3032 
   3   2.0000     -15.626625      -425.2221 
   4   2.0000     -15.518248      -422.2730 
   5   2.0000     -15.516576      -422.2275 
   6   2.0000     -15.443987      -420.2523 
   7   2.0000     -15.443881      -420.2494 
   8   2.0000     -11.301800      -307.5376 
   9   2.0000     -11.301749      -307.5362 
  10   2.0000     -11.296582      -307.3956 
  11   2.0000     -11.295262      -307.3597 
  12   2.0000     -11.294477      -307.3383 
  13   2.0000     -11.293727      -307.3179 
  14   2.0000     -11.292761      -307.2917 
  15   2.0000     -11.292243      -307.2776 
  16   2.0000     -11.286498      -307.1212 
  17   2.0000     -11.286373      -307.1178 
  18   2.0000     -11.285411      -307.0916 
  19   2.0000     -11.284191      -307.0584 
  20   2.0000     -11.242131      -305.9139 
  21   2.0000     -11.241352      -305.8927 
  22   2.0000     -11.233975      -305.6920 
  23   2.0000     -11.233575      -305.6811 
  24   2.0000     -11.233258      -305.6725 
  25   2.0000     -11.232782      -305.6595 
  26   2.0000     -11.232610      -305.6549 
  27   2.0000     -11.232385      -305.6487 
  28   2.0000     -11.227462      -305.5148 
  29   2.0000     -11.227274      -305.5097 
  30   2.0000     -11.225348      -305.4572 
  31   2.0000     -11.224728      -305.4404 
  32   2.0000     -11.199169      -304.7449 
  33   2.0000     -11.198997      -304.7402 
  34   2.0000     -11.195255      -304.6384 
  35   2.0000     -11.194680      -304.6227 
  36   2.0000     -11.171897      -304.0028 
  37   2.0000     -11.171410      -303.9895 
  38   2.0000     -11.171299      -303.9865 
  39   2.0000     -11.171161      -303.9827 
  40   2.0000     -11.170631      -303.9683 
  41   2.0000     -11.169990      -303.9509 
  42   2.0000     -11.167727      -303.8893 
  43   2.0000     -11.167442      -303.8816 
  44   2.0000     -11.158624      -303.6416 
  45   2.0000     -11.157254      -303.6043 
  46   2.0000     -11.153701      -303.5076 
  47   2.0000     -11.152196      -303.4667 
  48   2.0000     -11.143197      -303.2218 
  49   2.0000     -11.142893      -303.2135 
  50   2.0000     -11.141512      -303.1760 
  51   2.0000     -11.140367      -303.1448 
  52   2.0000      -1.324667       -36.0460 
  53   2.0000      -1.324387       -36.0384 
  54   2.0000      -1.317360       -35.8472 
  55   2.0000      -1.315517       -35.7970 
  56   2.0000      -1.216856       -33.1123 
  57   2.0000      -1.213371       -33.0175 
  58   2.0000      -1.161635       -31.6097 
  59   2.0000      -1.157197       -31.4889 
  60   2.0000      -1.114467       -30.3262 
  61   2.0000      -1.111756       -30.2524 
  62   2.0000      -1.106392       -30.1065 
  63   2.0000      -1.104277       -30.0489 
  64   2.0000      -1.048516       -28.5316 
  65   2.0000      -1.048504       -28.5312 
  66   2.0000      -1.041929       -28.3523 
  67   2.0000      -1.040573       -28.3154 
  68   2.0000      -1.026221       -27.9249 
  69   2.0000      -1.009831       -27.4789 
  70   2.0000      -1.008865       -27.4526 
  71   2.0000      -0.998841       -27.1798 
  72   2.0000      -0.980795       -26.6888 
  73   2.0000      -0.976681       -26.5768 
  74   2.0000      -0.967834       -26.3361 
  75   2.0000      -0.961366       -26.1601 
  76   2.0000      -0.952476       -25.9182 
  77   2.0000      -0.942636       -25.6504 
  78   2.0000      -0.941091       -25.6084 
  79   2.0000      -0.923603       -25.1325 
  80   2.0000      -0.892882       -24.2966 
  81   2.0000      -0.876297       -23.8453 
  82   2.0000      -0.874989       -23.8097 
  83   2.0000      -0.869710       -23.6660 
  84   2.0000      -0.866649       -23.5827 
  85   2.0000      -0.856807       -23.3149 
  86   2.0000      -0.846972       -23.0473 
  87   2.0000      -0.845691       -23.0124 
  88   2.0000      -0.821877       -22.3644 
  89   2.0000      -0.798483       -21.7278 
  90   2.0000      -0.798061       -21.7163 
  91   2.0000      -0.739189       -20.1144 
  92   2.0000      -0.728473       -19.8228 
  93   2.0000      -0.728195       -19.8152 
  94   2.0000      -0.721541       -19.6341 
  95   2.0000      -0.719789       -19.5864 
  96   2.0000      -0.712063       -19.3762 
  97   2.0000      -0.710794       -19.3417 
  98   2.0000      -0.698469       -19.0063 
  99   2.0000      -0.691757       -18.8237 
 100   2.0000      -0.683249       -18.5922 
 101   2.0000      -0.680109       -18.5067 
 102   2.0000      -0.678515       -18.4633 
 103   2.0000      -0.674575       -18.3561 
 104   2.0000      -0.669028       -18.2052 
 105   2.0000      -0.667269       -18.1573 
 106   2.0000      -0.662982       -18.0406 
 107   2.0000      -0.657375       -17.8881 
 108   2.0000      -0.657129       -17.8814 
 109   2.0000      -0.653308       -17.7774 
 110   2.0000      -0.652635       -17.7591 
 111   2.0000      -0.651939       -17.7401 
 112   2.0000      -0.649065       -17.6620 
 113   2.0000      -0.647360       -17.6156 
 114   2.0000      -0.634731       -17.2719 
 115   2.0000      -0.623901       -16.9772 
 116   2.0000      -0.615489       -16.7483 
 117   2.0000      -0.615280       -16.7426 
 118   2.0000      -0.611283       -16.6339 
 119   2.0000      -0.609216       -16.5776 
 120   2.0000      -0.607850       -16.5405 
 121   2.0000      -0.606905       -16.5147 
 122   2.0000      -0.603282       -16.4161 
 123   2.0000      -0.594412       -16.1748 
 124   2.0000      -0.584508       -15.9053 
 125   2.0000      -0.583943       -15.8899 
 126   2.0000      -0.578955       -15.7542 
 127   2.0000      -0.577058       -15.7026 
 128   2.0000      -0.569903       -15.5079 
 129   2.0000      -0.562796       -15.3144 
 130   2.0000      -0.553674       -15.0662 
 131   2.0000      -0.541408       -14.7325 
 132   2.0000      -0.539833       -14.6896 
 133   2.0000      -0.535495       -14.5716 
 134   2.0000      -0.534791       -14.5524 
 135   2.0000      -0.531397       -14.4600 
 136   2.0000      -0.524664       -14.2768 
 137   2.0000      -0.523799       -14.2533 
 138   2.0000      -0.515988       -14.0407 
 139   2.0000      -0.515273       -14.0213 
 140   2.0000      -0.511246       -13.9117 
 141   2.0000      -0.506750       -13.7894 
 142   2.0000      -0.503358       -13.6971 
 143   2.0000      -0.502650       -13.6778 
 144   2.0000      -0.498932       -13.5766 
 145   2.0000      -0.498299       -13.5594 
 146   2.0000      -0.497198       -13.5294 
 147   2.0000      -0.493897       -13.4396 
 148   2.0000      -0.491594       -13.3769 
 149   2.0000      -0.469025       -12.7628 
 150   2.0000      -0.460139       -12.5210 
 151   2.0000      -0.451258       -12.2793 
 152   2.0000      -0.448136       -12.1944 
 153   2.0000      -0.446335       -12.1454 
 154   2.0000      -0.444905       -12.1065 
 155   2.0000      -0.439950       -11.9716 
 156   2.0000      -0.435162       -11.8413 
 157   2.0000      -0.432221       -11.7613 
 158   2.0000      -0.391504       -10.6534 
 159   2.0000      -0.381493       -10.3809 
 160   2.0000      -0.377538       -10.2733 
 161   2.0000      -0.374400       -10.1880 
 162   2.0000      -0.359167        -9.7734 
 163   2.0000      -0.358969        -9.7681 
 164   2.0000      -0.353512        -9.6196 
 165   2.0000      -0.351590        -9.5672 
 166   2.0000      -0.337204        -9.1758 
 167   2.0000      -0.331995        -9.0340 
 168   2.0000      -0.329367        -8.9625 
 169   2.0000      -0.300357        -8.1731 
 170   2.0000      -0.293967        -7.9992 
 171   2.0000      -0.290036        -7.8923 
 172   2.0000      -0.287564        -7.8250 
 173   2.0000      -0.255185        -6.9439 
 174   2.0000      -0.248429        -6.7601 
 175   2.0000      -0.187985        -5.1153 
 176   2.0000      -0.177864        -4.8399 
 177   2.0000      -0.066314        -1.8045 
 178   2.0000      -0.054141        -1.4733 
 179   0.0000       0.031184         0.8486 
 180   0.0000       0.070882         1.9288 
 181   0.0000       0.092756         2.5240 
 182   0.0000       0.096595         2.6285 
 183   0.0000       0.134923         3.6714 
 184   0.0000       0.135314         3.6821 
 185   0.0000       0.141095         3.8394 
 186   0.0000       0.143128         3.8947 
 187   0.0000       0.160709         4.3731 
 188   0.0000       0.163082         4.4377 
 189   0.0000       0.163116         4.4386 
 190   0.0000       0.167343         4.5536 
 191   0.0000       0.168438         4.5834 
 192   0.0000       0.202655         5.5145 
 193   0.0000       0.203090         5.5264 
 194   0.0000       0.206234         5.6119 
 195   0.0000       0.206543         5.6203 
 196   0.0000       0.207136         5.6365 
 197   0.0000       0.208357         5.6697 
 198   0.0000       0.210575         5.7300 
 199   0.0000       0.211867         5.7652 
 200   0.0000       0.236524         6.4361 
 201   0.0000       0.238511         6.4902 
 202   0.0000       0.241386         6.5684 
 203   0.0000       0.242906         6.6098 
 204   0.0000       0.254813         6.9338 
 205   0.0000       0.255059         6.9405 
 206   0.0000       0.257708         7.0126 
 207   0.0000       0.259466         7.0604 
 208   0.0000       0.260118         7.0782 
 209   0.0000       0.264561         7.1991 
 210   0.0000       0.267862         7.2889 
 211   0.0000       0.270159         7.3514 
 212   0.0000       0.274338         7.4651 
 213   0.0000       0.276285         7.5181 
 214   0.0000       0.277717         7.5571 
 215   0.0000       0.279453         7.6043 
 216   0.0000       0.279872         7.6157 
 217   0.0000       0.283207         7.7065 
 218   0.0000       0.286646         7.8000 
 219   0.0000       0.289799         7.8858 
 220   0.0000       0.291995         7.9456 
 221   0.0000       0.292899         7.9702 
 222   0.0000       0.293785         7.9943 
 223   0.0000       0.295553         8.0424 
 224   0.0000       0.298792         8.1305 
 225   0.0000       0.300571         8.1789 
 226   0.0000       0.301074         8.1926 
 227   0.0000       0.302980         8.2445 
 228   0.0000       0.307629         8.3710 
 229   0.0000       0.310585         8.4514 
 230   0.0000       0.314025         8.5450 
 231   0.0000       0.318230         8.6595 
 232   0.0000       0.326058         8.8725 
 233   0.0000       0.327764         8.9189 
 234   0.0000       0.332037         9.0352 
 235   0.0000       0.336647         9.1606 
 236   0.0000       0.356537         9.7019 
 237   0.0000       0.388450        10.5703 
 238   0.0000       0.394331        10.7303 
 239   0.0000       0.401904        10.9364 
 240   0.0000       0.406016        11.0482 
 241   0.0000       0.409361        11.1393 
 242   0.0000       0.421063        11.4577 
 243   0.0000       0.425483        11.5780 
 244   0.0000       0.431752        11.7486 
 245   0.0000       0.433424        11.7941 
 246   0.0000       0.438429        11.9303 
 247   0.0000       0.438501        11.9322 
 248   0.0000       0.439385        11.9563 
 249   0.0000       0.443570        12.0701 
 250   0.0000       0.444117        12.0850 
 251   0.0000       0.445173        12.1138 
 252   0.0000       0.455577        12.3969 
 253   0.0000       0.469524        12.7764 
 254   0.0000       0.472301        12.8520 
 255   0.0000       0.474382        12.9086 
 256   0.0000       0.480102        13.0642 
 257   0.0000       0.486626        13.2418 
 258   0.0000       0.489510        13.3202 
 259   0.0000       0.498211        13.5570 
 260   0.0000       0.501947        13.6587 
 261   0.0000       0.503165        13.6918 
 262   0.0000       0.506163        13.7734 
 263   0.0000       0.510732        13.8977 
 264   0.0000       0.511800        13.9268 
 265   0.0000       0.514856        14.0099 
 266   0.0000       0.516200        14.0465 
 267   0.0000       0.522102        14.2071 
 268   0.0000       0.536314        14.5938 
 269   0.0000       0.538556        14.6549 
 270   0.0000       0.539992        14.6939 
 271   0.0000       0.545931        14.8555 
 272   0.0000       0.548980        14.9385 
 273   0.0000       0.553526        15.0622 
 274   0.0000       0.559956        15.2372 
 275   0.0000       0.562492        15.3062 
 276   0.0000       0.573045        15.5933 
 277   0.0000       0.574942        15.6450 
 278   0.0000       0.583550        15.8792 
 279   0.0000       0.585941        15.9443 
 280   0.0000       0.590514        16.0687 
 281   0.0000       0.592748        16.1295 
 282   0.0000       0.593932        16.1617 
 283   0.0000       0.595795        16.2124 
 284   0.0000       0.599985        16.3264 
 285   0.0000       0.603335        16.4176 
 286   0.0000       0.606039        16.4912 
 287   0.0000       0.607226        16.5235 
 288   0.0000       0.609983        16.5985 
 289   0.0000       0.613875        16.7044 
 290   0.0000       0.615243        16.7416 
 291   0.0000       0.627803        17.0834 
 292   0.0000       0.640403        17.4263 
 293   0.0000       0.641095        17.4451 
 294   0.0000       0.641960        17.4686 
 295   0.0000       0.651129        17.7181 
 296   0.0000       0.657895        17.9022 
 297   0.0000       0.660849        17.9826 
 298   0.0000       0.661699        18.0057 
 299   0.0000       0.662040        18.0150 
 300   0.0000       0.671178        18.2637 
 301   0.0000       0.672479        18.2991 
 302   0.0000       0.676584        18.4108 
 303   0.0000       0.679708        18.4958 
 304   0.0000       0.682873        18.5819 
 305   0.0000       0.684688        18.6313 
 306   0.0000       0.690491        18.7892 
 307   0.0000       0.697521        18.9805 
 308   0.0000       0.698731        19.0134 
 309   0.0000       0.703120        19.1329 
 310   0.0000       0.703621        19.1465 
 311   0.0000       0.705735        19.2040 
 312   0.0000       0.707295        19.2465 
 313   0.0000       0.709652        19.3106 
 314   0.0000       0.710637        19.3374 
 315   0.0000       0.715368        19.4662 
 316   0.0000       0.717274        19.5180 
 317   0.0000       0.718265        19.5450 
 318   0.0000       0.719462        19.5776 
 319   0.0000       0.720564        19.6075 
 320   0.0000       0.722466        19.6593 
 321   0.0000       0.727130        19.7862 
 322   0.0000       0.730015        19.8647 
 323   0.0000       0.735359        20.0101 
 324   0.0000       0.739945        20.1349 
 325   0.0000       0.741965        20.1899 
 326   0.0000       0.746024        20.3003 
 327   0.0000       0.746752        20.3201 
 328   0.0000       0.748249        20.3609 
 329   0.0000       0.749591        20.3974 
 330   0.0000       0.752875        20.4868 
 331   0.0000       0.753886        20.5143 
 332   0.0000       0.759218        20.6594 
 333   0.0000       0.762067        20.7369 
 334   0.0000       0.763466        20.7750 
 335   0.0000       0.769091        20.9280 
 336   0.0000       0.773376        21.0446 
 337   0.0000       0.776060        21.1177 
 338   0.0000       0.785231        21.3672 
 339   0.0000       0.789036        21.4708 
 340   0.0000       0.791417        21.5355 
 341   0.0000       0.793291        21.5865 
 342   0.0000       0.798154        21.7189 
 343   0.0000       0.799827        21.7644 
 344   0.0000       0.804111        21.8810 
 345   0.0000       0.805977        21.9317 
 346   0.0000       0.807291        21.9675 
 347   0.0000       0.813204        22.1284 
 348   0.0000       0.814882        22.1741 
 349   0.0000       0.816257        22.2115 
 350   0.0000       0.821014        22.3409 
 351   0.0000       0.822363        22.3776 
 352   0.0000       0.825952        22.4753 
 353   0.0000       0.830345        22.5948 
 354   0.0000       0.832016        22.6403 
 355   0.0000       0.832520        22.6540 
 356   0.0000       0.834295        22.7023 
 357   0.0000       0.836103        22.7515 
 358   0.0000       0.837420        22.7874 
 359   0.0000       0.840229        22.8638 
 360   0.0000       0.840729        22.8774 
 361   0.0000       0.841802        22.9066 
 362   0.0000       0.843158        22.9435 
 363   0.0000       0.844741        22.9866 
 364   0.0000       0.846013        23.0212 
 365   0.0000       0.848473        23.0881 
 366   0.0000       0.850175        23.1344 
 367   0.0000       0.851094        23.1594 
 368   0.0000       0.858199        23.3528 
 369   0.0000       0.859527        23.3889 
 370   0.0000       0.867215        23.5981 
 371   0.0000       0.867782        23.6135 
 372   0.0000       0.869573        23.6623 
 373   0.0000       0.878128        23.8951 
 374   0.0000       0.879204        23.9243 
 375   0.0000       0.881627        23.9903 
 376   0.0000       0.883315        24.0362 
 377   0.0000       0.889304        24.1992 
 378   0.0000       0.892700        24.2916 
 379   0.0000       0.896467        24.3941 
 380   0.0000       0.898433        24.4476 
 381   0.0000       0.900158        24.4945 
 382   0.0000       0.901777        24.5386 
 383   0.0000       0.904016        24.5995 
 384   0.0000       0.904162        24.6035 
 385   0.0000       0.907575        24.6964 
 386   0.0000       0.909178        24.7400 
 387   0.0000       0.909693        24.7540 
 388   0.0000       0.913069        24.8459 
 389   0.0000       0.914135        24.8749 
 390   0.0000       0.916617        24.9424 
 391   0.0000       0.919230        25.0135 
 392   0.0000       0.921331        25.0707 
 393   0.0000       0.924530        25.1578 
 394   0.0000       0.928681        25.2707 
 395   0.0000       0.933505        25.4020 
 396   0.0000       0.934799        25.4372 
 397   0.0000       0.937461        25.5096 
 398   0.0000       0.938068        25.5261 
 399   0.0000       0.939152        25.5556 
 400   0.0000       0.944174        25.6923 
 401   0.0000       0.945786        25.7361 
 402   0.0000       0.949164        25.8281 
 403   0.0000       0.951350        25.8875 
 404   0.0000       0.952122        25.9086 
 405   0.0000       0.955540        26.0016 
 406   0.0000       0.958353        26.0781 
 407   0.0000       0.966403        26.2972 
 408   0.0000       0.968465        26.3533 
 409   0.0000       0.970063        26.3968 
 410   0.0000       0.975805        26.5530 
 411   0.0000       0.978250        26.6195 
 412   0.0000       0.982837        26.7444 
 413   0.0000       0.987228        26.8638 
 414   0.0000       0.989718        26.9316 
 415   0.0000       0.990610        26.9559 
 416   0.0000       0.993143        27.0248 
 417   0.0000       1.003520        27.3072 
 418   0.0000       1.007504        27.4156 
 419   0.0000       1.013485        27.5783 
 420   0.0000       1.022515        27.8241 
 421   0.0000       1.030628        28.0448 
 422   0.0000       1.032994        28.1092 
 423   0.0000       1.036832        28.2136 
 424   0.0000       1.040979        28.3265 
 425   0.0000       1.046287        28.4709 
 426   0.0000       1.051910        28.6239 
 427   0.0000       1.066455        29.0197 
 428   0.0000       1.071605        29.1598 
 429   0.0000       1.071745        29.1637 
 430   0.0000       1.076214        29.2853 
 431   0.0000       1.079807        29.3830 
 432   0.0000       1.084703        29.5163 
 433   0.0000       1.089380        29.6435 
 434   0.0000       1.094479        29.7823 
 435   0.0000       1.099682        29.9239 
 436   0.0000       1.109762        30.1982 
 437   0.0000       1.112322        30.2678 
 438   0.0000       1.116042        30.3690 
 439   0.0000       1.117886        30.4192 
 440   0.0000       1.121981        30.5306 
 441   0.0000       1.124273        30.5930 
 442   0.0000       1.131142        30.7799 
 443   0.0000       1.132146        30.8073 
 444   0.0000       1.134316        30.8663 
 445   0.0000       1.135396        30.8957 
 446   0.0000       1.136990        30.9391 
 447   0.0000       1.143083        31.1049 
 448   0.0000       1.144309        31.1382 
 449   0.0000       1.145615        31.1738 
 450   0.0000       1.147017        31.2119 
 451   0.0000       1.150740        31.3132 
 452   0.0000       1.152853        31.3707 
 453   0.0000       1.159230        31.5443 
 454   0.0000       1.160428        31.5768 
 455   0.0000       1.167113        31.7587 
 456   0.0000       1.174723        31.9658 
 457   0.0000       1.177324        32.0366 
 458   0.0000       1.179616        32.0990 
 459   0.0000       1.184964        32.2445 
 460   0.0000       1.189517        32.3684 
 461   0.0000       1.192390        32.4466 
 462   0.0000       1.202954        32.7340 
 463   0.0000       1.205457        32.8021 
 464   0.0000       1.207108        32.8471 
 465   0.0000       1.211014        32.9534 
 466   0.0000       1.213241        33.0140 
 467   0.0000       1.217044        33.1175 
 468   0.0000       1.223589        33.2956 
 469   0.0000       1.227538        33.4030 
 470   0.0000       1.234095        33.5814 
 471   0.0000       1.236773        33.6543 
 472   0.0000       1.238763        33.7085 
 473   0.0000       1.241140        33.7731 
 474   0.0000       1.243705        33.8429 
 475   0.0000       1.245490        33.8915 
 476   0.0000       1.247676        33.9510 
 477   0.0000       1.250685        34.0329 
 478   0.0000       1.251865        34.0650 
 479   0.0000       1.254829        34.1456 
 480   0.0000       1.258024        34.2326 
 481   0.0000       1.266457        34.4620 
 482   0.0000       1.268707        34.5233 
 483   0.0000       1.271825        34.6081 
 484   0.0000       1.274137        34.6710 
 485   0.0000       1.279581        34.8192 
 486   0.0000       1.283257        34.9192 
 487   0.0000       1.285387        34.9772 
 488   0.0000       1.287505        35.0348 
 489   0.0000       1.290281        35.1103 
 490   0.0000       1.291553        35.1449 
 491   0.0000       1.293160        35.1887 
 492   0.0000       1.302536        35.4438 
 493   0.0000       1.308510        35.6064 
 494   0.0000       1.313416        35.7399 
 495   0.0000       1.315857        35.8063 
 496   0.0000       1.319997        35.9189 
 497   0.0000       1.322465        35.9861 
 498   0.0000       1.323851        36.0238 
 499   0.0000       1.328926        36.1619 
 500   0.0000       1.335769        36.3481 
 501   0.0000       1.338242        36.4154 
 502   0.0000       1.343226        36.5510 
 503   0.0000       1.345288        36.6072 
 504   0.0000       1.348458        36.6934 
 505   0.0000       1.351073        36.7646 
 506   0.0000       1.353539        36.8317 
 507   0.0000       1.356772        36.9196 
 508   0.0000       1.360176        37.0123 
 509   0.0000       1.361563        37.0500 
 510   0.0000       1.364713        37.1357 
 511   0.0000       1.368620        37.2420 
 512   0.0000       1.369641        37.2698 
[...]
      pz      :     0.021964  p :     0.079553
      px      :     0.043278
      py      :     0.014311
 77 H s       :     0.889360  s :     0.889360
      pz      :     0.047603  p :     0.078865
      px      :     0.015012
      py      :     0.016251
 78 H s       :     0.889732  s :     0.889732
      pz      :     0.025692  p :     0.078807
      px      :     0.020564
      py      :     0.032551
 79 H s       :     0.909124  s :     0.909124
      pz      :     0.022142  p :     0.086724
      px      :     0.021773
      py      :     0.042809
 80 H s       :     0.871085  s :     0.871085
      pz      :     0.038842  p :     0.084067
      px      :     0.029899
      py      :     0.015326
 81 H s       :     0.887182  s :     0.887182
      pz      :     0.037748  p :     0.083842
      px      :     0.016133
      py      :     0.029961
 82 H s       :     0.914925  s :     0.914925
      pz      :     0.022105  p :     0.086880
      px      :     0.031355
      py      :     0.033420
 83 H s       :     0.872381  s :     0.872381
      pz      :     0.039278  p :     0.083988
      px      :     0.015247
      py      :     0.029462
 84 H s       :     0.886937  s :     0.886937
      pz      :     0.035811  p :     0.083763
      px      :     0.031742
      py      :     0.016210
 85 H s       :     0.893565  s :     0.893565
      pz      :     0.022506  p :     0.079741
      px      :     0.014084
      py      :     0.043151
 86 H s       :     0.890585  s :     0.890585
      pz      :     0.024730  p :     0.078878
      px      :     0.033006
      py      :     0.021141
 87 H s       :     0.890120  s :     0.890120
      pz      :     0.047964  p :     0.078710
      px      :     0.015612
      py      :     0.015134
 88 H s       :     0.913906  s :     0.913906
      pz      :     0.022011  p :     0.086922
      px      :     0.042534
      py      :     0.022377
 89 H s       :     0.872494  s :     0.872494
      pz      :     0.037900  p :     0.083907
      px      :     0.030498
      py      :     0.015509


                      *****************************
                      * MAYER POPULATION ANALYSIS *
                      *****************************

  NA   - Mulliken gross atomic population
  ZA   - Total nuclear charge
  QA   - Mulliken gross atomic charge
  VA   - Mayer's total valence
  BVA  - Mayer's bonded valence
  FA   - Mayer's free valence

  ATOM       NA         ZA         QA         VA         BVA        FA
  0 C      5.7915     6.0000     0.2085     3.8281     3.8281    -0.0000
  1 N      7.4425     7.0000    -0.4425     3.3685     3.3685     0.0000
  2 C      6.0638     6.0000    -0.0638     3.9182     3.9182    -0.0000
  3 N      7.3374     7.0000    -0.3374     3.4450     3.4450    -0.0000
  4 C      6.0635     6.0000    -0.0635     3.9820     3.9820    -0.0000
  5 N      7.5636     7.0000    -0.5636     3.0845     3.0845    -0.0000
  6 C      6.0686     6.0000    -0.0686     3.9951     3.9951    -0.0000
  7 N      7.3380     7.0000    -0.3380     3.4413     3.4413    -0.0000
  8 C      5.7931     6.0000     0.2069     3.8292     3.8292    -0.0000
  9 N      7.5633     7.0000    -0.5633     3.0834     3.0834    -0.0000
 10 C      5.8854     6.0000     0.1146     3.8948     3.8948     0.0000
 11 N      7.4375     7.0000    -0.4375     3.3834     3.3834     0.0000
 12 C      6.0724     6.0000    -0.0724     3.9175     3.9175    -0.0000
 13 N      7.4392     7.0000    -0.4392     3.3817     3.3817     0.0000
 14 C      5.7567     6.0000     0.2433     3.7885     3.7885     0.0000
 15 N      7.4406     7.0000    -0.4406     3.3724     3.3724    -0.0000
 16 C      5.7664     6.0000     0.2336     3.7916     3.7916    -0.0000
 17 C      6.0737     6.0000    -0.0737     3.9986     3.9986    -0.0000
 18 C      6.2150     6.0000    -0.2150     3.7549     3.7549    -0.0000
 19 C      5.7587     6.0000     0.2413     3.8680     3.8680     0.0000
 20 C      5.7922     6.0000     0.2078     3.8255     3.8255     0.0000
 21 C      6.0857     6.0000    -0.0857     3.9073     3.9073     0.0000
 22 C      6.0873     6.0000    -0.0873     3.9839     3.9839    -0.0000
 23 C      6.0484     6.0000    -0.0484     3.9903     3.9903     0.0000
 24 C      5.7951     6.0000     0.2049     3.8234     3.8234     0.0000
 25 C      5.8861     6.0000     0.1139     3.8901     3.8901     0.0000
 26 C      6.0717     6.0000    -0.0717     3.9074     3.9074     0.0000
 27 C      5.7770     6.0000     0.2230     3.8828     3.8828     0.0000
 28 C      6.0530     6.0000    -0.0530     3.9878     3.9878    -0.0000
 29 C      6.1856     6.0000    -0.1856     3.7353     3.7353    -0.0000
 30 C      5.7639     6.0000     0.2361     3.7938     3.7938    -0.0000
 31 C      5.7884     6.0000     0.2116     3.8263     3.8263     0.0000
 32 C      6.0654     6.0000    -0.0654     3.9177     3.9177    -0.0000
 33 C      6.0799     6.0000    -0.0799     3.9837     3.9837     0.0000
 34 C      6.0507     6.0000    -0.0507     3.9913     3.9913     0.0000
 35 C      5.7938     6.0000     0.2062     3.8246     3.8246     0.0000
 36 C      5.8862     6.0000     0.1138     3.8906     3.8906     0.0000
 37 C      6.0668     6.0000    -0.0668     3.9174     3.9174    -0.0000
 38 C      5.7638     6.0000     0.2362     3.7984     3.7984    -0.0000
 39 C      6.0607     6.0000    -0.0607     3.9906     3.9906     0.0000
 40 C      6.1896     6.0000    -0.1896     3.7400     3.7400    -0.0000
 41 C      5.7780     6.0000     0.2220     3.8818     3.8818    -0.0000
 42 C      5.7966     6.0000     0.2034     3.8275     3.8275    -0.0000
 43 C      6.0734     6.0000    -0.0734     3.9031     3.9031     0.0000
 44 C      6.0887     6.0000    -0.0887     3.9849     3.9849    -0.0000
 45 C      6.0527     6.0000    -0.0527     3.9930     3.9930    -0.0000
 46 C      5.7962     6.0000     0.2038     3.8255     3.8255    -0.0000
 47 C      5.8845     6.0000     0.1155     3.8934     3.8934     0.0000
 48 C      6.0736     6.0000    -0.0736     3.9044     3.9044     0.0000
 49 C      5.7731     6.0000     0.2269     3.8839     3.8839     0.0000
 50 C      6.0528     6.0000    -0.0528     3.9902     3.9902    -0.0000
 51 C      6.1888     6.0000    -0.1888     3.7367     3.7367    -0.0000
 52 H      0.9464     1.0000     0.0536     0.9850     0.9850     0.0000
 53 H      1.0140     1.0000    -0.0140     0.9989     0.9989    -0.0000
 54 H      0.9501     1.0000     0.0499     1.0092     1.0092    -0.0000
 55 H      0.9475     1.0000     0.0525     0.9860     0.9860     0.0000
 56 H      0.9408     1.0000     0.0592     0.9712     0.9712    -0.0000
 57 H      0.9433     1.0000     0.0567     0.9839     0.9839    -0.0000
 58 H      0.9446     1.0000     0.0554     0.9853     0.9853    -0.0000
 59 H      1.0114     1.0000    -0.0114     0.9995     0.9995    -0.0000
 60 H      0.9536     1.0000     0.0464     1.0082     1.0082    -0.0000
 61 H      0.8270     1.0000     0.1730     1.0425     1.0425     0.0000
 62 H      0.8272     1.0000     0.1728     1.0434     1.0434     0.0000
 63 H      0.9437     1.0000     0.0563     0.9854     0.9854     0.0000
 64 H      1.0182     1.0000    -0.0182     0.9963     0.9963     0.0000
 65 H      0.9528     1.0000     0.0472     1.0089     1.0089     0.0000
 66 H      0.9425     1.0000     0.0575     0.9850     0.9850    -0.0000
 67 H      0.9375     1.0000     0.0625     0.9719     0.9719     0.0000
 68 H      0.9419     1.0000     0.0581     0.9867     0.9867     0.0000
 69 H      0.9414     1.0000     0.0586     0.9830     0.9830    -0.0000
 70 H      1.0246     1.0000    -0.0246     0.9944     0.9944    -0.0000
 71 H      0.9526     1.0000     0.0474     1.0066     1.0066    -0.0000
 72 H      0.9429     1.0000     0.0571     0.9849     0.9849     0.0000
 73 H      1.0140     1.0000    -0.0140     0.9988     0.9988     0.0000
 74 H      0.9527     1.0000     0.0473     1.0098     1.0098     0.0000
 75 H      0.9438     1.0000     0.0562     0.9854     0.9854     0.0000
 76 H      0.9374     1.0000     0.0626     0.9716     0.9716     0.0000
 77 H      0.9414     1.0000     0.0586     0.9851     0.9851    -0.0000
 78 H      0.9421     1.0000     0.0579     0.9847     0.9847     0.0000
 79 H      1.0143     1.0000    -0.0143     0.9993     0.9993     0.0000
 80 H      0.9522     1.0000     0.0478     1.0071     1.0071     0.0000
 81 H      0.9464     1.0000     0.0536     0.9854     0.9854    -0.0000
 82 H      1.0233     1.0000    -0.0233     0.9943     0.9943     0.0000
 83 H      0.9566     1.0000     0.0434     1.0092     1.0092    -0.0000
 84 H      0.9465     1.0000     0.0535     0.9855     0.9855     0.0000
 85 H      0.9407     1.0000     0.0593     0.9716     0.9716    -0.0000
 86 H      0.9435     1.0000     0.0565     0.9840     0.9840    -0.0000
 87 H      0.9433     1.0000     0.0567     0.9855     0.9855     0.0000
 88 H      1.0212     1.0000    -0.0212     0.9945     0.9945     0.0000
 89 H      0.9558     1.0000     0.0442     1.0071     1.0071     0.0000

  Mayer bond orders larger than 0.100000
B(  0-C ,  1-N ) :   1.1155 B(  0-C , 17-C ) :   1.6416 B(  0-C , 52-H ) :   0.9694 
B(  1-N ,  8-C ) :   1.1118 B(  1-N , 10-C ) :   0.9632 B(  2-C , 12-C ) :   1.5334 
B(  2-C , 16-C ) :   1.3272 B(  2-C , 53-H ) :   0.9776 B(  3-N , 14-C ) :   1.2043 
B(  3-N , 16-C ) :   1.1954 B(  3-N , 61-H ) :   0.8982 B(  4-C ,  6-C ) :   1.2576 
B(  4-C , 17-C ) :   1.2610 B(  4-C , 18-C ) :   1.2893 B(  5-N , 19-C ) :   1.4222 
B(  5-N , 27-C ) :   1.4024 B(  6-C ,  8-C ) :   1.6443 B(  6-C , 54-H ) :   0.9701 
B(  7-N , 30-C ) :   1.1940 B(  7-N , 38-C ) :   1.2006 B(  7-N , 62-H ) :   0.8983 
B(  8-C , 55-H ) :   0.9696 B(  9-N , 41-C ) :   1.4089 B(  9-N , 49-C ) :   1.4143 
B( 10-C , 56-H ) :   0.9764 B( 10-C , 57-H ) :   0.9818 B( 10-C , 58-H ) :   0.9836 
B( 11-N , 20-C ) :   1.1248 B( 11-N , 24-C ) :   1.1217 B( 11-N , 25-C ) :   0.9584 
B( 12-C , 14-C ) :   1.3279 B( 12-C , 59-H ) :   0.9764 B( 13-N , 31-C ) :   1.1256 
B( 13-N , 35-C ) :   1.1199 B( 13-N , 36-C ) :   0.9587 B( 14-C , 18-C ) :   1.1867 
B( 15-N , 42-C ) :   1.1160 B( 15-N , 46-C ) :   1.1150 B( 15-N , 47-C ) :   0.9620 
B( 16-C , 51-C ) :   1.1967 B( 17-C , 60-H ) :   0.9709 B( 18-C , 19-C ) :   1.2050 
B( 19-C , 21-C ) :   1.2120 B( 20-C , 28-C ) :   1.6236 B( 20-C , 63-H ) :   0.9703 
B( 21-C , 26-C ) :   1.6414 B( 21-C , 64-H ) :   0.9712 B( 22-C , 23-C ) :   1.2837 
B( 22-C , 28-C ) :   1.2737 B( 22-C , 29-C ) :   1.2291 B( 23-C , 24-C ) :   1.6187 
B( 23-C , 65-H ) :   0.9709 B( 24-C , 66-H ) :   0.9691 B( 25-C , 67-H ) :   0.9762 
B( 25-C , 68-H ) :   0.9829 B( 25-C , 69-H ) :   0.9821 B( 26-C , 27-C ) :   1.2118 
B( 26-C , 70-H ) :   0.9731 B( 27-C , 29-C ) :   1.2307 B( 28-C , 71-H ) :   0.9715 
B( 29-C , 30-C ) :   1.2108 B( 30-C , 32-C ) :   1.3126 B( 31-C , 39-C ) :   1.6283 
B( 31-C , 72-H ) :   0.9695 B( 32-C , 37-C ) :   1.5455 B( 32-C , 73-H ) :   0.9779 
B( 33-C , 34-C ) :   1.2763 B( 33-C , 39-C ) :   1.2703 B( 33-C , 40-C ) :   1.2463 
B( 34-C , 35-C ) :   1.6256 B( 34-C , 74-H ) :   0.9704 B( 35-C , 75-H ) :   0.9695 
B( 36-C , 76-H ) :   0.9763 B( 36-C , 77-H ) :   0.9821 B( 36-C , 78-H ) :   0.9830 
B( 37-C , 38-C ) :   1.3142 B( 37-C , 79-H ) :   0.9777 B( 38-C , 40-C ) :   1.2076 
B( 39-C , 80-H ) :   0.9714 B( 40-C , 41-C ) :   1.2206 B( 41-C , 43-C ) :   1.2110 
B( 42-C , 50-C ) :   1.6329 B( 42-C , 81-H ) :   0.9696 B( 43-C , 48-C ) :   1.6408 
B( 43-C , 82-H ) :   0.9737 B( 44-C , 45-C ) :   1.2713 B( 44-C , 50-C ) :   1.2675 
B( 44-C , 51-C ) :   1.2536 B( 45-C , 46-C ) :   1.6318 B( 45-C , 83-H ) :   0.9712 
B( 46-C , 84-H ) :   0.9702 B( 47-C , 85-H ) :   0.9761 B( 47-C , 86-H ) :   0.9828 
B( 47-C , 87-H ) :   0.9826 B( 48-C , 49-C ) :   1.2108 B( 48-C , 88-H ) :   0.9739 
B( 49-C , 51-C ) :   1.2233 B( 50-C , 89-H ) :   0.9713 

-------
TIMINGS
-------

Total SCF time: 0 days 0 hours 28 min 43 sec 

Total time                  ....    1723.207 sec
Sum of individual times     ....    1718.640 sec  ( 99.7%)

Fock matrix formation       ....    1696.660 sec  ( 98.5%)
Diagonalization             ....       6.767 sec  (  0.4%)
Density matrix formation    ....       0.644 sec  (  0.0%)
Population analysis         ....       0.530 sec  (  0.0%)
Initial guess               ....       2.057 sec  (  0.1%)
Orbital Transformation      ....       0.000 sec  (  0.0%)
Orbital Orthonormalization  ....       0.000 sec  (  0.0%)
DIIS solution               ....       3.499 sec  (  0.2%)
SOSCF solution              ....       7.425 sec  (  0.4%)

Maximum memory used throughout the entire SCF-calculation: 302.6 MB


           ************************************************************
           *        Program running with 16 parallel MPI-processes    *
           *              working on a common directory               *
           ************************************************************

------------------------------------------------------------------------------
                                ORCA  MP2 
------------------------------------------------------------------------------

Freezing NCore=104 chemical core electrons

----------
MP2 ENERGY (disk based algorithm)
----------

Dimension of the basis                    ...  918
Memory devoted to MP2                     ... 2000 MB   
Data format for buffers                   ... DOUBLE
Compression type for matrix containers    ... UNCOMPRESSED

-------------------------------
PARTIAL EXCHANGE TRANSFORMATION
-------------------------------

Transformation type                        ... one-operator
Generation of integrals (i,mue|j,nue)      ... ON
Generation of integrals (mue,kappa|nue,tau)... OFF
Generation of integrals (i,mue|a,nue)      ... OFF
Dimension of the basis                     ...  918
Number of internal MOs                     ...  127 (  52- 178)
Pair cutoff                                ... 2.500e-12 Eh
Number of AO pairs in the trafo            ... 421821
Total Number of distinct AO pairs          ... 421821
Memory devoted for trafo                   ... 2000.0 MB 
Max. Number of MO pairs treated together   ...  311      
Number Format for Storage                  ... Double (8 Byte)
Integral package used                      ... LIBINT

Starting integral evaluation:
    ... done with AO integral generation
Closing buffer AOK     (38.53 GB; CompressionRatio= 1.32)
Collecting buffer AOK 
Number of MO pairs included in the trafo   ... 8128
------------------------
SORTING OF (i,mue|j,nue)
------------------------

IBATCH = 1 of  2
IBATCH = 2 of  2
Closing buffer KAO     (51.03 GB; CompressionRatio= 1.00)
Collecting buffer KAO 
N(AO-Batches) Done                         ...  84525658 
N(AO-Batches) Skipped                      ...  83221830 
N(IJ)-pairs Skipped                        ...         0 
TOTAL TIME for half transformation         ...  3193.276 sec
AO-integral generation                     ...   211.132 sec
Half transformation                        ...   374.069 sec
K-integral sorting                         ...  2426.479 sec
Process 10:   Internal MO 132
Process  4:   Internal MO  84
Process  7:   Internal MO 108

Finished integral transformation - now doing MP2 part

OPERATOR COMBINATION   0   0: ij=( 52..178, 52..178)
Process 13:   Internal MO 156
Process  1:   Internal MO  60
Process  0:   Internal MO  54
Process  0:   Internal MO  57
Process  2:   Internal MO  69
Process  1:   Internal MO  63
Process  5:   Internal MO  93
Process  3:   Internal MO  78
Process  8:   Internal MO 117
Process  1:   Internal MO  66
Process  2:   Internal MO  72
Process  6:   Internal MO 102
Process 11:   Internal MO 141
Process  4:   Internal MO  87
Process 14:   Internal MO 165
Process  3:   Internal MO  81
Process  2:   Internal MO  75
Process  9:   Internal MO 126
Process  5:   Internal MO  96
Process  7:   Internal MO 111
Process 12:   Internal MO 150
Process  4:   Internal MO  90
Process 15:   Internal MO 174
Process 10:   Internal MO 135
Process  6:   Internal MO 105
Process  8:   Internal MO 120
Process 13:   Internal MO 159
Process  5:   Internal MO  99
Process  7:   Internal MO 114
Process 11:   Internal MO 144
Process  9:   Internal MO 129
Process 14:   Internal MO 168
Process  8:   Internal MO 123
Process 12:   Internal MO 153
Process 10:   Internal MO 138
Process 15:   Internal MO 177
Process 13:   Internal MO 162
Process 11:   Internal MO 147
Process 14:   Internal MO 171
-----------------------------------------------
 MP2 CORRELATION ENERGY   :     -7.290482638 Eh
-----------------------------------------------


-------
TIMINGS
-------
Total time                : 3739.954 sec
Integral trafo            : 3195.292 sec ( 85.4%)
K(i,j)                    :    6.483 sec (  0.2%)
T(i,j)                    :    0.100 sec (  0.0%)

---------------------------------------
MP2 TOTAL ENERGY:    -2130.913167143 Eh
---------------------------------------

Maximum memory used throughout the entire MP2-calculation: 2275.2 MB

-------------------------   --------------------
FINAL SINGLE POINT ENERGY     -2130.913167142972
-------------------------   --------------------


                            ***************************************
                            *     ORCA property calculations      *
                            ***************************************


  WARNING: The energy has been calculated at the MP2 level but the densities
           used in the property calculations are still SCF densities
           MP2 response densities have not been calculated 
           use %mp2 Density relaxed end
           or  %mp2 Density unrelaxed end

                                    ---------------------
                                    Active property flags
                                    ---------------------
   (+) Dipole Moment


------------------------------------------------------------------------------
                       ORCA ELECTRIC PROPERTIES CALCULATION
------------------------------------------------------------------------------

Dipole Moment Calculation                       ... on
Quadrupole Moment Calculation                   ... off
Polarizability Calculation                      ... off
GBWName                                         ... /scratch/allen/tmpyp4_amber_gaff2/conf1/conf1/Conf59.orca.gbw
Electron density                                ... /scratch/allen/tmpyp4_amber_gaff2/conf1/conf1/Conf59.orca.scfp
The origin for moment calculation is the CENTER OF MASS  = ( 0.000420, -0.003876  0.004000)

-------------
DIPOLE MOMENT
-------------
                                X             Y             Z
Electronic contribution:      0.01112      -0.84425      -0.13812
Nuclear contribution   :     -0.04629       0.15373       0.17227
                        -----------------------------------------
Total Dipole Moment    :     -0.03517      -0.69052       0.03415
                        -----------------------------------------
Magnitude (a.u.)       :      0.69226
Magnitude (Debye)      :      1.75958



--------------------
Rotational spectrum 
--------------------
 
Rotational constants in cm-1:     0.001499     0.001474     0.000762 
Rotational constants in MHz :    44.948142    44.191218    22.842348 

 Dipole components along the rotational axes: 
x,y,z [a.u.] :     0.189452     0.665014     0.032994 
x,y,z [Debye]:     0.481548     1.690330     0.083863 

 

Timings for individual modules:

Sum of individual times         ...     5491.911 sec (=  91.532 min)
GTO integral calculation        ...        3.287 sec (=   0.055 min)   0.1 %
SCF iterations                  ...     1724.297 sec (=  28.738 min)  31.4 %
MP2 module                      ...     3764.326 sec (=  62.739 min)  68.5 %
                             ****ORCA TERMINATED NORMALLY****
TOTAL RUN TIME: 0 days 1 hours 31 minutes 35 seconds 178 msec
# of primitive gaussian functions

