
                                 *****************
                                 * O   R   C   A *
                                 *****************

                                            #,                                       
                                            ###                                      
                                            ####                                     
                                            #####                                    
                                            ######                                   
                                           ########,                                 
                                     ,,################,,,,,                         
                               ,,#################################,,                 
                          ,,##########################################,,             
                       ,#########################################, ''#####,          
                    ,#############################################,,   '####,        
                  ,##################################################,,,,####,       
                ,###########''''           ''''###############################       
              ,#####''   ,,,,##########,,,,          '''####'''          '####       
            ,##' ,,,,###########################,,,                        '##       
           ' ,,###''''                  '''############,,,                           
         ,,##''                                '''############,,,,        ,,,,,,###''
      ,#''                                            '''#######################'''  
     '                                                          ''''####''''         
             ,#######,   #######,   ,#######,      ##                                
            ,#'     '#,  ##    ##  ,#'     '#,    #''#        ######   ,####,        
            ##       ##  ##   ,#'  ##            #'  '#       #        #'  '#        
            ##       ##  #######   ##           ,######,      #####,   #    #        
            '#,     ,#'  ##    ##  '#,     ,#' ,#      #,         ##   #,  ,#        
             '#######'   ##     ##  '#######'  #'      '#     #####' # '####'        



                  #######################################################
                  #                        -***-                        #
                  #          Department of theory and spectroscopy      #
                  #    Directorship and core code : Frank Neese         #
                  #        Max Planck Institute fuer Kohlenforschung    #
                  #                Kaiser Wilhelm Platz 1               #
                  #                 D-45470 Muelheim/Ruhr               #
                  #                      Germany                        #
                  #                                                     #
                  #                  All rights reserved                #
                  #                        -***-                        #
                  #######################################################


                         Program Version 5.0.4 -  RELEASE  -


 With contributions from (in alphabetic order):
   Daniel Aravena         : Magnetic Suceptibility
   Michael Atanasov       : Ab Initio Ligand Field Theory (pilot matlab implementation)
   Alexander A. Auer      : GIAO ZORA, VPT2 properties, NMR spectrum
   Ute Becker             : Parallelization
   Giovanni Bistoni       : ED, misc. LED, open-shell LED, HFLD
   Martin Brehm           : Molecular dynamics
   Dmytro Bykov           : SCF Hessian
   Vijay G. Chilkuri      : MRCI spin determinant printing, contributions to CSF-ICE
   Dipayan Datta          : RHF DLPNO-CCSD density
   Achintya Kumar Dutta   : EOM-CC, STEOM-CC
   Dmitry Ganyushin       : Spin-Orbit,Spin-Spin,Magnetic field MRCI
   Miquel Garcia          : C-PCM and meta-GGA Hessian, CC/C-PCM, Gaussian charge scheme
   Yang Guo               : DLPNO-NEVPT2, F12-NEVPT2, CIM, IAO-localization
   Andreas Hansen         : Spin unrestricted coupled pair/coupled cluster methods
   Benjamin Helmich-Paris : MC-RPA, TRAH-SCF, COSX integrals
   Lee Huntington         : MR-EOM, pCC
   Robert Izsak           : Overlap fitted RIJCOSX, COSX-SCS-MP3, EOM
   Marcus Kettner         : VPT2
   Christian Kollmar      : KDIIS, OOCD, Brueckner-CCSD(T), CCSD density, CASPT2, CASPT2-K
   Simone Kossmann        : Meta GGA functionals, TD-DFT gradient, OOMP2, MP2 Hessian
   Martin Krupicka        : Initial AUTO-CI
   Lucas Lang             : DCDCAS
   Marvin Lechner         : AUTO-CI (C++ implementation), FIC-MRCC
   Dagmar Lenk            : GEPOL surface, SMD
   Dimitrios Liakos       : Extrapolation schemes; Compound Job, initial MDCI parallelization
   Dimitrios Manganas     : Further ROCIS development; embedding schemes
   Dimitrios Pantazis     : SARC Basis sets
   Anastasios Papadopoulos: AUTO-CI, single reference methods and gradients
   Taras Petrenko         : DFT Hessian,TD-DFT gradient, ASA, ECA, R-Raman, ABS, FL, XAS/XES, NRVS
   Peter Pinski           : DLPNO-MP2, DLPNO-MP2 Gradient
   Christoph Reimann      : Effective Core Potentials
   Marius Retegan         : Local ZFS, SOC
   Christoph Riplinger    : Optimizer, TS searches, QM/MM, DLPNO-CCSD(T), (RO)-DLPNO pert. Triples
   Tobias Risthaus        : Range-separated hybrids, TD-DFT gradient, RPA, STAB
   Michael Roemelt        : Original ROCIS implementation
   Masaaki Saitow         : Open-shell DLPNO-CCSD energy and density
   Barbara Sandhoefer     : DKH picture change effects
   Avijit Sen             : IP-ROCIS
   Kantharuban Sivalingam : CASSCF convergence, NEVPT2, FIC-MRCI
   Bernardo de Souza      : ESD, SOC TD-DFT
   Georgi Stoychev        : AutoAux, RI-MP2 NMR, DLPNO-MP2 response
   Willem Van den Heuvel  : Paramagnetic NMR
   Boris Wezisla          : Elementary symmetry handling
   Frank Wennmohs         : Technical directorship


 We gratefully acknowledge several colleagues who have allowed us to
 interface, adapt or use parts of their codes:
   Stefan Grimme, W. Hujo, H. Kruse, P. Pracht,  : VdW corrections, initial TS optimization,
                  C. Bannwarth, S. Ehlert          DFT functionals, gCP, sTDA/sTD-DF
   Ed Valeev, F. Pavosevic, A. Kumar             : LibInt (2-el integral package), F12 methods
   Garnet Chan, S. Sharma, J. Yang, R. Olivares  : DMRG
   Ulf Ekstrom                                   : XCFun DFT Library
   Mihaly Kallay                                 : mrcc  (arbitrary order and MRCC methods)
   Jiri Pittner, Ondrej Demel                    : Mk-CCSD
   Frank Weinhold                                : gennbo (NPA and NBO analysis)
   Christopher J. Cramer and Donald G. Truhlar   : smd solvation model
   Lars Goerigk                                  : TD-DFT with DH, B97 family of functionals
   V. Asgeirsson, H. Jonsson                     : NEB implementation
   FAccTs GmbH                                   : IRC, NEB, NEB-TS, DLPNO-Multilevel, CI-OPT
                                                   MM, QMMM, 2- and 3-layer-ONIOM, Crystal-QMMM,
                                                   LR-CPCM, SF, NACMEs, symmetry and pop. for TD-DFT,
                                                   nearIR, NL-DFT gradient (VV10), updates on ESD,
                                                   ML-optimized integration grids
   S Lehtola, MJT Oliveira, MAL Marques          : LibXC Library
   Liviu Ungur et al                             : ANISO software


 Your calculation uses the libint2 library for the computation of 2-el integrals
 For citations please refer to: http://libint.valeyev.net

 Your ORCA version has been built with support for libXC version: 5.1.0
 For citations please refer to: https://tddft.org/programs/libxc/

 This ORCA versions uses:
   CBLAS   interface :  Fast vector & matrix operations
   LAPACKE interface :  Fast linear algebra routines
   SCALAPACK package :  Parallel linear algebra routines
   Shared memory     :  Shared parallel matrices
   BLAS/LAPACK       :  OpenBLAS 0.3.15  USE64BITINT DYNAMIC_ARCH NO_AFFINITY Sandybridge SINGLE_THREADED
        Core in use  :  Sandybridge
   Copyright (c) 2011-2014, The OpenBLAS Project


================================================================================

----- Orbital basis set information -----
Your calculation utilizes the basis: cc-pVDZ 
       H, B-Ne : Obtained from the ccRepo (grant-hill.group.shef.ac.uk/ccrepo) Feb. 2017
                 T. H. Dunning, Jr., J. Chem. Phys. 90, 1007 (1989)
            He : Obtained from the ccRepo (grant-hill.group.shef.ac.uk/ccrepo) Feb. 2017
                 D. E. Woon, T. H. Dunning, Jr., J. Chem. Phys. 100, 2975 (1994)
  Li-Be, Na-Mg : Obtained from the ccRepo (grant-hill.group.shef.ac.uk/ccrepo) Feb. 2017
                 B. P. Prascher, D. E. Woon, K. A. Peterson, T. H. Dunning, Jr., A. K. Wilson, Theor. Chem. Acc. 128, 69 (2011)
         Al-Ar : Obtained from the ccRepo (grant-hill.group.shef.ac.uk/ccrepo) Feb. 2017
                 D. E. Woon, T. H. Dunning, Jr., J. Chem. Phys. 98, 1358 (1993)
            Ca : Obtained from the Peterson Research Group Website (tyr0.chem.wsu.edu/~kipeters) Feb. 2017
                 J. Koput, K. A. Peterson, J. Phys. Chem. 106, 9595 (2002)
         Sc-Zn : Obtained from the ccRepo (grant-hill.group.shef.ac.uk/ccrepo) Feb. 2017
                 N. B. Balabanov, K. A. Peterson, J. Chem. Phys. 123, 064107 (2005)
                 N. B. Balabanov, K. A. Peterson, J. Chem. Phys. 125, 074110 (2006)
         Ga-Kr : Obtained from the ccRepo (grant-hill.group.shef.ac.uk/ccrepo) Feb. 2017
                 A. K. Wilson, D. E. Woon, K. A. Peterson, T. H. Dunning, Jr., J. Chem. Phys. 110, 7667 (1999)

================================================================================
                                        WARNINGS
                       Please study these warnings very carefully!
================================================================================


WARNING: No MP2 level density has been requested!
         To caclulate MP2 level properties use
         %mp2 Density relaxed end
         or
         %mp2 Density unrelaxed end

WARNING: Post HF methods need fully converged wavefunctions
  ===> : Setting SCFConvForced true
         You can overwrite this default with %scf ConvForced false 


INFO   : the flag for use of the SHARK integral package has been found!

================================================================================
                                       INPUT FILE
================================================================================
NAME = /scratch/allen/tmpyp4_amber_gaff2/2.Mdgx/conf11/conf11/Conf225.orca
|  1> ! PAL2
|  2> ! mp2 cc-pvdz TightSCF  NoKeepInts
|  3> 
|  4> %scf
|  5>   MaxCore 2000
|  6> end
|  7> %mp2
|  8>   MaxCore 2000
|  9> end
| 10> * xyz 0 1
| 11>    C       -4.69700         5.34200         0.86900
| 12>    C        1.47400         4.04100         0.05700
| 13>    C       -2.80200         4.09300         0.04900
| 14>    C       -2.49200         5.19500        -0.76300
| 15>    C       -3.28500         6.32500        -0.73100
| 16>    C       -5.17800         7.62600         0.11300
| 17>    C        0.13200         4.30700         0.06100
| 18>    C       -0.56900         3.05600         0.04700
| 19>    C        1.64900         2.61800         0.02300
| 20>    C       -3.93100         4.19300         0.87700
| 21>    N       -4.37100         6.38600         0.07400
| 22>    N        0.38800         2.06700         0.02500
| 23>    N       -2.01000         0.39500        -0.07500
| 24>    N       -0.38800        -2.07400        -0.02700
| 25>    N        2.01000        -0.40100         0.06500
| 26>    C       -1.96000         2.86100         0.02400
| 27>    C       -2.62300         1.61500        -0.01800
| 28>    C       -5.57300        -4.32900         1.06600
| 29>    C       -4.07300         1.47100         0.05600
| 30>    C       -4.10600        -2.75600        -0.02600
| 31>    C       -4.99500        -2.75700        -1.11100
| 32>    C       -6.13200        -3.54200        -1.07600
| 33>    C       -7.65100        -5.11300         0.04000
| 34>    C       -4.32400         0.14100         0.03700
| 35>    C       -3.02500        -0.52000        -0.04800
| 36>    C       -4.42200        -3.56600         1.07500
| 37>    N       -6.40700        -4.31300         0.00100
| 38>    C       -2.86700        -1.92200        -0.04000
| 39>    C       -1.65000        -2.62400        -0.02700
| 40>    C        3.56800        -6.14200        -1.04000
| 41>    C       -1.47600        -4.04900        -0.03400
| 42>    C        2.80300        -4.09900        -0.00800
| 43>    C        3.65700        -4.38400         1.06900
| 44>    C        4.42700        -5.53000         1.05900
| 45>    C        5.24500        -7.58800         0.01400
| 46>    C       -0.13400        -4.31500        -0.02200
| 47>    C        0.56800        -3.06400        -0.02700
| 48>    C        2.77500        -5.01200        -1.07400
| 49>    N        4.37600        -6.39100         0.01700
| 50>    C        1.95900        -2.86900        -0.00900
| 51>    C        2.62100        -1.62200         0.00900
| 52>    C        5.54300         4.33900        -1.13000
| 53>    C        4.07000        -1.47900        -0.09400
| 54>    C        4.10400         2.75100        -0.02100
| 55>    C        5.02700         2.72900         1.03600
| 56>    C        6.16600         3.50900         0.97800
| 57>    C        7.61900         5.15300        -0.11500
| 58>    C        4.32100        -0.14800        -0.09200
| 59>    C        3.02500         0.51400         0.01500
| 60>    C        4.38700         3.58200        -1.11500
| 61>    C        2.86600         1.91600         0.01300
| 62>    N        6.41300         4.29600        -0.09500
| 63>    H       -5.58300         5.45800         1.48200
| 64>    H        2.27400         4.76600         0.08100
| 65>    H       -1.62800         5.18200        -1.41600
| 66>    H       -3.08100         7.20200        -1.33200
| 67>    H       -4.73500         8.31700         0.83400
| 68>    H       -5.18400         8.07300        -0.88100
| 69>    H       -6.19400         7.37300         0.41400
| 70>    H       -0.33200         5.28200         0.06900
| 71>    H       -4.23100         3.37000         1.51600
| 72>    H        0.18200         1.07200         0.00500
| 73>    H       -0.18300        -1.08000        -0.02100
| 74>    H       -5.86400        -4.96200         1.89500
| 75>    H       -4.79400         2.27200         0.13900
| 76>    H       -4.80000        -2.16000        -1.99400
| 77>    H       -6.84100        -3.58200        -1.89300
| 78>    H       -8.42800        -4.53600         0.54600
| 79>    H       -7.95600        -5.33700        -0.98100
| 80>    H       -7.45600        -6.03700         0.58400
| 81>    H       -5.28700        -0.34400         0.10000
| 82>    H       -3.78000        -3.60100         1.94700
| 83>    H        3.58700        -6.86800        -1.84300
| 84>    H       -2.27600        -4.77400        -0.05000
| 85>    H        3.71400        -3.72400         1.92600
| 86>    H        5.09200        -5.79500         1.87100
| 87>    H        6.20500        -7.32900        -0.43900
| 88>    H        5.39300        -7.91700         1.04200
| 89>    H        4.75900        -8.37300        -0.56400
| 90>    H        0.32900        -5.29000        -0.00800
| 91>    H        2.14600        -4.84200        -1.94000
| 92>    H        5.80800         4.98600        -1.95600
| 93>    H        4.78800        -2.28100        -0.18500
| 94>    H        4.86000         2.11400         1.91200
| 95>    H        6.90100         3.53100         1.77200
| 96>    H        7.38300         6.10900         0.35600
| 97>    H        8.41400         4.65200         0.43500
| 98>    H        7.92100         5.31000        -1.15000
| 99>    H        5.28300         0.33600        -0.17900
|100>    H        3.72000         3.63200        -1.96700
|101> *
|102> 
|103>                          ****END OF INPUT****
================================================================================

                       ****************************
                       * Single Point Calculation *
                       ****************************

---------------------------------
CARTESIAN COORDINATES (ANGSTROEM)
---------------------------------
  C     -4.697000    5.342000    0.869000
  C      1.474000    4.041000    0.057000
  C     -2.802000    4.093000    0.049000
  C     -2.492000    5.195000   -0.763000
  C     -3.285000    6.325000   -0.731000
  C     -5.178000    7.626000    0.113000
  C      0.132000    4.307000    0.061000
  C     -0.569000    3.056000    0.047000
  C      1.649000    2.618000    0.023000
  C     -3.931000    4.193000    0.877000
  N     -4.371000    6.386000    0.074000
  N      0.388000    2.067000    0.025000
  N     -2.010000    0.395000   -0.075000
  N     -0.388000   -2.074000   -0.027000
  N      2.010000   -0.401000    0.065000
  C     -1.960000    2.861000    0.024000
  C     -2.623000    1.615000   -0.018000
  C     -5.573000   -4.329000    1.066000
  C     -4.073000    1.471000    0.056000
  C     -4.106000   -2.756000   -0.026000
  C     -4.995000   -2.757000   -1.111000
  C     -6.132000   -3.542000   -1.076000
  C     -7.651000   -5.113000    0.040000
  C     -4.324000    0.141000    0.037000
  C     -3.025000   -0.520000   -0.048000
  C     -4.422000   -3.566000    1.075000
  N     -6.407000   -4.313000    0.001000
  C     -2.867000   -1.922000   -0.040000
  C     -1.650000   -2.624000   -0.027000
  C      3.568000   -6.142000   -1.040000
  C     -1.476000   -4.049000   -0.034000
  C      2.803000   -4.099000   -0.008000
  C      3.657000   -4.384000    1.069000
  C      4.427000   -5.530000    1.059000
  C      5.245000   -7.588000    0.014000
  C     -0.134000   -4.315000   -0.022000
  C      0.568000   -3.064000   -0.027000
  C      2.775000   -5.012000   -1.074000
  N      4.376000   -6.391000    0.017000
  C      1.959000   -2.869000   -0.009000
  C      2.621000   -1.622000    0.009000
  C      5.543000    4.339000   -1.130000
  C      4.070000   -1.479000   -0.094000
  C      4.104000    2.751000   -0.021000
  C      5.027000    2.729000    1.036000
  C      6.166000    3.509000    0.978000
  C      7.619000    5.153000   -0.115000
  C      4.321000   -0.148000   -0.092000
  C      3.025000    0.514000    0.015000
  C      4.387000    3.582000   -1.115000
  C      2.866000    1.916000    0.013000
  N      6.413000    4.296000   -0.095000
  H     -5.583000    5.458000    1.482000
  H      2.274000    4.766000    0.081000
  H     -1.628000    5.182000   -1.416000
  H     -3.081000    7.202000   -1.332000
  H     -4.735000    8.317000    0.834000
  H     -5.184000    8.073000   -0.881000
  H     -6.194000    7.373000    0.414000
  H     -0.332000    5.282000    0.069000
  H     -4.231000    3.370000    1.516000
  H      0.182000    1.072000    0.005000
  H     -0.183000   -1.080000   -0.021000
  H     -5.864000   -4.962000    1.895000
  H     -4.794000    2.272000    0.139000
  H     -4.800000   -2.160000   -1.994000
  H     -6.841000   -3.582000   -1.893000
  H     -8.428000   -4.536000    0.546000
  H     -7.956000   -5.337000   -0.981000
  H     -7.456000   -6.037000    0.584000
  H     -5.287000   -0.344000    0.100000
  H     -3.780000   -3.601000    1.947000
  H      3.587000   -6.868000   -1.843000
  H     -2.276000   -4.774000   -0.050000
  H      3.714000   -3.724000    1.926000
  H      5.092000   -5.795000    1.871000
  H      6.205000   -7.329000   -0.439000
  H      5.393000   -7.917000    1.042000
  H      4.759000   -8.373000   -0.564000
  H      0.329000   -5.290000   -0.008000
  H      2.146000   -4.842000   -1.940000
  H      5.808000    4.986000   -1.956000
  H      4.788000   -2.281000   -0.185000
  H      4.860000    2.114000    1.912000
  H      6.901000    3.531000    1.772000
  H      7.383000    6.109000    0.356000
  H      8.414000    4.652000    0.435000
  H      7.921000    5.310000   -1.150000
  H      5.283000    0.336000   -0.179000
  H      3.720000    3.632000   -1.967000

----------------------------
CARTESIAN COORDINATES (A.U.)
----------------------------
  NO LB      ZA    FRAG     MASS         X           Y           Z
   0 C     6.0000    0    12.011   -8.876044   10.094917    1.642172
   1 C     6.0000    0    12.011    2.785456    7.636383    0.107714
   2 C     6.0000    0    12.011   -5.295013    7.734649    0.092597
   3 C     6.0000    0    12.011   -4.709198    9.817127   -1.441861
   4 C     6.0000    0    12.011   -6.207750   11.952518   -1.381390
   5 C     6.0000    0    12.011   -9.785002   14.411051    0.213539
   6 C     6.0000    0    12.011    0.249444    8.139050    0.115273
   7 C     6.0000    0    12.011   -1.075254    5.775003    0.088817
   8 C     6.0000    0    12.011    3.116158    4.947303    0.043464
   9 C     6.0000    0    12.011   -7.428513    7.923622    1.657290
  10 N     7.0000    0    14.007   -8.259993   12.067791    0.139840
  11 N     7.0000    0    14.007    0.733214    3.906064    0.047243
  12 N     7.0000    0    14.007   -3.798350    0.746442   -0.141729
  13 N     7.0000    0    14.007   -0.733214   -3.919292   -0.051023
  14 N     7.0000    0    14.007    3.798350   -0.757780    0.122832
  15 C     6.0000    0    12.011   -3.703863    5.406506    0.045353
  16 C     6.0000    0    12.011   -4.956752    3.051908   -0.034015
  17 C     6.0000    0    12.011  -10.531444   -8.180624    2.014448
  18 C     6.0000    0    12.011   -7.696855    2.779787    0.105825
  19 C     6.0000    0    12.011   -7.759216   -5.208085   -0.049133
  20 C     6.0000    0    12.011   -9.439182   -5.209975   -2.099486
  21 C     6.0000    0    12.011  -11.587801   -6.693410   -2.033345
  22 C     6.0000    0    12.011  -14.458295   -9.662170    0.075589
  23 C     6.0000    0    12.011   -8.171176    0.266451    0.069920
  24 C     6.0000    0    12.011   -5.716422   -0.982658   -0.090707
  25 C     6.0000    0    12.011   -8.356369   -6.738763    2.031456
  26 N     7.0000    0    14.007  -12.107475   -8.150389    0.001890
  27 C     6.0000    0    12.011   -5.417845   -3.632054   -0.075589
  28 C     6.0000    0    12.011   -3.118048   -4.958641   -0.051023
  29 C     6.0000    0    12.011    6.742543  -11.606698   -1.965315
  30 C     6.0000    0    12.011   -2.789236   -7.651501   -0.064251
  31 C     6.0000    0    12.011    5.296902   -7.745987   -0.015118
  32 C     6.0000    0    12.011    6.910728   -8.284559    2.020117
  33 C     6.0000    0    12.011    8.365818  -10.450186    2.001220
  34 C     6.0000    0    12.011    9.911614  -14.339242    0.026456
  35 C     6.0000    0    12.011   -0.253223   -8.154168   -0.041574
  36 C     6.0000    0    12.011    1.073364   -5.790121   -0.051023
  37 C     6.0000    0    12.011    5.243990   -9.471307   -2.029566
  38 N     7.0000    0    14.007    8.269442  -12.077240    0.032125
  39 C     6.0000    0    12.011    3.701973   -5.421624   -0.017008
  40 C     6.0000    0    12.011    4.952972   -3.065136    0.017008
  41 C     6.0000    0    12.011   10.474752    8.199522   -2.135391
  42 C     6.0000    0    12.011    7.691185   -2.794905   -0.177634
  43 C     6.0000    0    12.011    7.755436    5.198637   -0.039684
  44 C     6.0000    0    12.011    9.499653    5.157063    1.957756
  45 C     6.0000    0    12.011   11.652051    6.631049    1.848152
  46 C     6.0000    0    12.011   14.397823    9.737759   -0.217319
  47 C     6.0000    0    12.011    8.165507   -0.279679   -0.173855
  48 C     6.0000    0    12.011    5.716422    0.971319    0.028346
  49 C     6.0000    0    12.011    8.290229    6.768999   -2.107045
  50 C     6.0000    0    12.011    5.415955    3.620715    0.024566
  51 N     7.0000    0    14.007   12.118814    8.118263   -0.179524
  52 H     1.0000    0     1.008  -10.550341   10.314125    2.800574
  53 H     1.0000    0     1.008    4.297237    9.006435    0.153068
  54 H     1.0000    0     1.008   -3.076474    9.792561   -2.675852
  55 H     1.0000    0     1.008   -5.822246   13.609808   -2.517115
  56 H     1.0000    0     1.008   -8.947853   15.716852    1.576032
  57 H     1.0000    0     1.008   -9.796340   15.255759   -1.664849
  58 H     1.0000    0     1.008  -11.704964   13.932951    0.782347
  59 H     1.0000    0     1.008   -0.627389    9.981533    0.130391
  60 H     1.0000    0     1.008   -7.995431    6.368377    2.864825
  61 H     1.0000    0     1.008    0.343930    2.025786    0.009449
  62 H     1.0000    0     1.008   -0.345820   -2.040904   -0.039684
  63 H     1.0000    0     1.008  -11.081354   -9.376821    3.581031
  64 H     1.0000    0     1.008   -9.059347    4.293458    0.262672
  65 H     1.0000    0     1.008   -9.070685   -4.081808   -3.768114
  66 H     1.0000    0     1.008  -12.927616   -6.768999   -3.577252
  67 H     1.0000    0     1.008  -15.926612   -8.571798    1.031790
  68 H     1.0000    0     1.008  -15.034661  -10.085468   -1.853821
  69 H     1.0000    0     1.008  -14.089798  -11.408277    1.103600
  70 H     1.0000    0     1.008   -9.990982   -0.650066    0.188973
  71 H     1.0000    0     1.008   -7.143165   -6.804904    3.679297
  72 H     1.0000    0     1.008    6.778448  -12.978639   -3.482765
  73 H     1.0000    0     1.008   -4.301017   -9.021553   -0.094486
  74 H     1.0000    0     1.008    7.018443   -7.037340    3.639613
  75 H     1.0000    0     1.008    9.622485  -10.950963    3.535678
  76 H     1.0000    0     1.008   11.725751  -13.849803   -0.829590
  77 H     1.0000    0     1.008   10.191293  -14.960962    1.969095
  78 H     1.0000    0     1.008    8.993207  -15.822677   -1.065806
  79 H     1.0000    0     1.008    0.621720   -9.996651   -0.015118
  80 H     1.0000    0     1.008    4.055352   -9.150054   -3.666069
  81 H     1.0000    0     1.008   10.975529    9.422175   -3.696304
  82 H     1.0000    0     1.008    9.048009   -4.310465   -0.349599
  83 H     1.0000    0     1.008    9.184069    3.994881    3.613156
  84 H     1.0000    0     1.008   13.041000    6.672623    3.348595
  85 H     1.0000    0     1.008   13.951848   11.544337    0.672743
  86 H     1.0000    0     1.008   15.900156    8.791006    0.822031
  87 H     1.0000    0     1.008   14.968521   10.034446   -2.173185
  88 H     1.0000    0     1.008    9.983423    0.634948   -0.338261
  89 H     1.0000    0     1.008    7.029781    6.863485   -3.717091

--------------------------------
INTERNAL COORDINATES (ANGSTROEM)
--------------------------------
 C      0   0   0     0.000000000000     0.00000000     0.00000000
 C      1   0   0     6.358709460260     0.00000000     0.00000000
 C      1   2   0     2.413177573242    24.30336936     0.00000000
 C      3   1   2     1.403512735959    87.91695359   293.00112737
 C      4   3   1     1.380859514940   120.15096812     0.14046597
 C      5   4   3     2.447117896629   152.53547887     1.64653996
 C      2   1   3     1.368114030335     7.20241410    51.27486866
 C      7   2   4     1.434084376876   108.05010202   112.80475530
 C      2   1   3     1.434123425651   108.93318623   325.73339106
 C      1   2   7     1.380949311162    44.94280483    92.34925142
 N      1   2   7     1.352123145279    81.30985585   299.91099112
 N      9   2   1     1.376127174356   106.58526707     6.79925277
 N     12   9   2     2.925062050624   168.53581413   171.12065651
 N     13  12   9     2.954513327098    91.55032014    11.12112580
 N     14  13  12     2.925371258490    88.43092389   359.84326247
 C      8   7   2     1.404790019896   127.24786865   181.11170171
 C     13  12   9     1.366535034311    81.72106996   188.00453233
 C     14  13  12     5.758810554272    80.56209567   166.76250791
 C     17  13  12     1.459010623676   111.08861209   183.82872609
 C     18  14  13     2.412235892279    27.27532823    36.33507194
 C     20  18  14     1.402692767501    87.95206320   148.94598259
 C     21  20  18     1.382106725257   120.14573887   359.70382047
 C     18  14  13     2.446510985056   144.15733107    82.80075377
 C     19  17  13     1.353610726908   106.29293361   359.75308708
 C     13  12   9     1.366813447402   172.21332906    33.46711076
 C     18  14  13     1.380960173213    15.08449437   309.23336894
 N     22  21  20     1.352773077792   120.73759875     0.27865223
 C     25  13  17     1.410897586645   125.60330303   182.37774668
 C     14  13  12     1.376642291955    80.24689249   177.85461986
 C     14  13  12     5.764089607215   164.51507311   312.20821879
 C     29  14  13     1.435600919476   106.58649366   178.76395472
 C     30  14  13     2.413316804732    27.10625047    82.12560436
 C     32  30  14     1.403734305344    87.90059683   149.76154742
 C     33  32  30     1.380694028378   120.14881443   359.74174632
 C     34  33  32     2.448777858443   152.49203239     2.45173620
 C     31  29  14     1.368160809262   108.16950133     0.70383075
 C     14  13  12     1.376239804685   169.26375223   353.09862627
 C     30  14  13     1.380907310430    14.68948582   353.70041132
 N     34  33  32     1.352658863128   120.85575621     0.19603406
 C     37  14  29     1.404717053360   126.01551127   180.90772073
 C     15  14  13     1.366491126938    81.61824056   183.09049352
 C      2   1   3     4.249062720177   161.92994219   115.92269993
 C     41  15  14     1.459677704153   111.05201287   175.08990246
 C     42   2   1     2.412953791518    41.78584867   184.44999784
 C     44  42   2     1.403446472082    87.95153797   233.97558675
 C     45  44  42     1.381696421071   120.11137308     0.19721020
 C     42   2   1     2.450019795838   135.97209175    94.76484694
 C     43  41  15     1.354461516618   106.26758155     0.30894352
 C     15  14  13     1.367461151185   171.87382904   332.35056460
 C     42   2   1     1.381886391857    32.59078432   233.30527703
 C      9   2   1     1.404988612053   126.98745415   187.80359030
 N     42   2   1     1.352765315936   113.57249190   122.50143613
 H      1   2   7     1.083614783952   152.57800647   166.48039722
 H      2   1   3     1.079907866440   125.36179963   153.64162506
 H      4   3   1     1.083085407528   121.03642371   179.56557628
 H      5   4   3     1.082564547729   122.81016386   179.44932013
 H      6   5   4     1.092506750551   104.48952667   100.06152321
 H      6   5   4     1.089899536655    84.70715761   209.55011090
 H      6   5   4     1.089433797897   133.88772726   322.35438802
 H      7   2  54     1.079807853278   126.66122480     1.30600390
 H     10   1   2     1.084273950623   118.78236194   148.74526191
 H     12   9   2     1.016297692608   125.29023241   180.00180175
 H     14  13  12     1.014936943854    44.97226959   359.42596618
 H     18  14  13     1.082871645210   128.03556573   234.20482432
 H     19  17  13     1.080893611786   126.41830519   178.11313280
 H     21  20  18     1.083569563987   121.05669627   180.67006309
 H     22  21  20     1.082483256222   122.73097286   180.59748951
 H     23  18  14     1.092105306278   103.92715769   234.93429879
 H     23  18  14     1.088871893291   134.19244188    12.25587044
 H     23  18  14     1.089833473518    84.85857450   125.45241208
 H     24  19  17     1.080075460327   127.28078426   178.44613241
 H     26  18  14     1.083408048706   118.76995697   244.94906660
 H     30  14  13     1.082703098730   127.99711412   279.66882698
 H     31  29  14     1.079759695488   125.22293469   180.92530585
 H     33  32  30     1.083188810873   121.01964473   180.74284758
 H     34  33  32     1.082494341787   122.70821597   180.59516895
 H     35  34  33     1.092652735319   105.73575241    97.19771933
 H     35  34  33     1.089462711615    84.05943581   206.43036958
 H     35  34  33     1.089268102902   133.08365142   318.50306270
 H     36  31  29     1.079439669458   126.61599965   178.98859863
 H     38  30  73     1.083742127999   118.77264435   359.90091293
 H     42   2   1     1.082178358682   119.31790784   339.13296658
 H     43  41  15     1.080281907652   126.36969097   182.06329380
 H     45  44  42     1.083277434455   121.10105945   179.58025624
 H     46  45  44     1.082194529648   122.72144639   179.46906377
 H     47  42   2     1.091546151109   106.65128841   315.16475048
 H     47  42   2     1.088818625851   132.46019523    94.52397119
 H     47  42   2     1.089531091801    83.63838232   206.04504406
 H     48  43  41     1.080402239909   127.23657387   181.62955349
 H     50  42   2     1.083186502870   118.77001737    94.71359229

---------------------------
INTERNAL COORDINATES (A.U.)
---------------------------
 C      0   0   0     0.000000000000     0.00000000     0.00000000
 C      1   0   0    12.016219445066     0.00000000     0.00000000
 C      1   2   0     4.560244725949    24.30336936     0.00000000
 C      3   1   2     2.652254696434    87.91695359   293.00112737
 C      4   3   1     2.609446312656   120.15096812     0.14046597
 C      5   4   3     4.624382642045   152.53547887     1.64653996
 C      2   1   3     2.585360837309     7.20241410    51.27486866
 C      7   2   4     2.710026725231   108.05010202   112.80475530
 C      2   1   3     2.710100516721   108.93318623   325.73339106
 C      1   2   7     2.609616002924    44.94280483    92.34925142
 N      1   2   7     2.555142443914    81.30985585   299.91099112
 N      9   2   1     2.600503484979   106.58526707     6.79925277
 N     12   9   2     5.527566200405   168.53581413   171.12065651
 N     13  12   9     5.583221047236    91.55032014    11.12112580
 N     14  13  12     5.528150518591    88.43092389   359.84326247
 C      8   7   2     2.654668413270   127.24786865   181.11170171
 C     13  12   9     2.582376967257    81.72106996   188.00453233
 C     14  13  12    10.882574804710    80.56209567   166.76250791
 C     17  13  12     2.757130505230   111.08861209   183.82872609
 C     18  14  13     4.558465206823    27.27532823    36.33507194
 C     20  18  14     2.650705180609    87.95206320   148.94598259
 C     21  20  18     2.611803198586   120.14573887   359.70382047
 C     18  14  13     4.623235745386   144.15733107    82.80075377
 C     19  17  13     2.557953565794   106.29293361   359.75308708
 C     13  12   9     2.582903091751   172.21332906    33.46711076
 C     18  14  13     2.609636529225    15.08449437   309.23336894
 N     22  21  20     2.556370638369   120.73759875     0.27865223
 C     25  13  17     2.666210041769   125.60330303   182.37774668
 C     14  13  12     2.601476916169    80.24689249   177.85461986
 C     14  13  12    10.892550769017   164.51507311   312.20821879
 C     29  14  13     2.712892575415   106.58649366   178.76395472
 C     30  14  13     4.560507835333    27.10625047    82.12560436
 C     32  30  14     2.652673401891    87.90059683   149.76154742
 C     33  32  30     2.609133588376   120.14881443   359.74174632
 C     34  33  32     4.627519515267   152.49203239     2.45173620
 C     31  29  14     2.585449236669   108.16950133     0.70383075
 C     14  13  12     2.600716325456   169.26375223   353.09862627
 C     30  14  13     2.609536633043    14.68948582   353.70041132
 N     34  33  32     2.556154803934   120.85575621     0.19603406
 C     37  14  29     2.654530526499   126.01551127   180.90772073
 C     15  14  13     2.582293994346    81.61824056   183.09049352
 C      2   1   3     8.029564866989   161.92994219   115.92269993
 C     41  15  14     2.758391104639   111.05201287   175.08990246
 C     42   2   1     4.559821839776    41.78584867   184.44999784
 C     44  42   2     2.652129475853    87.95153797   233.97558675
 C     45  44  42     2.611027836043   120.11137308     0.19721020
 C     42   2   1     4.629866436820   135.97209175    94.76484694
 C     43  41  15     2.559561325344   106.26758155     0.30894352
 C     15  14  13     2.584127074516   171.87382904   332.35056460
 C     42   2   1     2.611386828803    32.59078432   233.30527703
 C      9   2   1     2.655043698059   126.98745415   187.80359030
 N     42   2   1     2.556355970587   113.57249190   122.50143613
 H      1   2   7     2.047735176338   152.57800647   166.48039722
 H      2   1   3     2.040730117440   125.36179963   153.64162506
 H      4   3   1     2.046734799874   121.03642371   179.56557628
 H      5   4   3     2.045750517500   122.81016386   179.44932013
 H      6   5   4     2.064538558002   104.48952667   100.06152321
 H      6   5   4     2.059611637765    84.70715761   209.55011090
 H      6   5   4     2.058731519063   133.88772726   322.35438802
 H      7   2  54     2.040541119952   126.66122480     1.30600390
 H     10   1   2     2.048980820823   118.78236194   148.74526191
 H     12   9   2     1.920524309565   125.29023241   180.00180175
 H     14  13  12     1.917952867083    44.97226959   359.42596618
 H     18  14  13     2.046330847636   128.03556573   234.20482432
 H     19  17  13     2.042592906181   126.41830519   178.11313280
 H     21  20  18     2.047649722989   121.05669627   180.67006309
 H     22  21  20     2.045596898814   122.73097286   180.59748951
 H     23  18  14     2.063779938267   103.92715769   234.93429879
 H     23  18  14     2.057669673245   134.19244188    12.25587044
 H     23  18  14     2.059486796529    84.85857450   125.45241208
 H     24  19  17     2.041046823986   127.28078426   178.44613241
 H     26  18  14     2.047344503340   118.76995697   244.94906660
 H     30  14  13     2.046012340948   127.99711412   279.66882698
 H     31  29  14     2.040450114918   125.22293469   180.92530585
 H     33  32  30     2.046930203877   121.01964473   180.74284758
 H     34  33  32     2.045617847496   122.70821597   180.59516895
 H     35  34  33     2.064814429233   105.73575241    97.19771933
 H     35  34  33     2.058786158072    84.05943581   206.43036958
 H     35  34  33     2.058418400901   133.08365142   318.50306270
 H     36  31  29     2.039845353366   126.61599965   178.98859863
 H     38  30  73     2.047975821711   118.77264435   359.90091293
 H     42   2   1     2.045020725966   119.31790784   339.13296658
 H     43  41  15     2.041436952892   126.36969097   182.06329380
 H     45  44  42     2.047097678177   121.10105945   179.58025624
 H     46  45  44     2.045051284662   122.72144639   179.46906377
 H     47  42   2     2.062723288131   106.65128841   315.16475048
 H     47  42   2     2.057569012371   132.46019523    94.52397119
 H     47  42   2     2.058915377895    83.63838232   206.04504406
 H     48  43  41     2.041664347903   127.23657387   181.62955349
 H     50  42   2     2.046925842384   118.77001737    94.71359229

---------------------
BASIS SET INFORMATION
---------------------
There are 3 groups of distinct atoms

 Group   1 Type C   : 17s4p1d contracted to 3s2p1d pattern {881/31/1}
 Group   2 Type N   : 17s4p1d contracted to 3s2p1d pattern {881/31/1}
 Group   3 Type H   : 4s1p contracted to 2s1p pattern {31/1}

Atom   0C    basis set group =>   1
Atom   1N    basis set group =>   2
Atom   2C    basis set group =>   1
Atom   3N    basis set group =>   2
Atom   4C    basis set group =>   1
Atom   5N    basis set group =>   2
Atom   6C    basis set group =>   1
Atom   7N    basis set group =>   2
Atom   8C    basis set group =>   1
Atom   9N    basis set group =>   2
Atom  10C    basis set group =>   1
Atom  11N    basis set group =>   2
Atom  12C    basis set group =>   1
Atom  13N    basis set group =>   2
Atom  14C    basis set group =>   1
Atom  15N    basis set group =>   2
Atom  16C    basis set group =>   1
Atom  17C    basis set group =>   1
Atom  18C    basis set group =>   1
Atom  19C    basis set group =>   1
Atom  20C    basis set group =>   1
Atom  21C    basis set group =>   1
Atom  22C    basis set group =>   1
Atom  23C    basis set group =>   1
Atom  24C    basis set group =>   1
Atom  25C    basis set group =>   1
Atom  26C    basis set group =>   1
Atom  27C    basis set group =>   1
Atom  28C    basis set group =>   1
Atom  29C    basis set group =>   1
Atom  30C    basis set group =>   1
Atom  31C    basis set group =>   1
Atom  32C    basis set group =>   1
Atom  33C    basis set group =>   1
Atom  34C    basis set group =>   1
Atom  35C    basis set group =>   1
Atom  36C    basis set group =>   1
Atom  37C    basis set group =>   1
Atom  38C    basis set group =>   1
Atom  39C    basis set group =>   1
Atom  40C    basis set group =>   1
Atom  41C    basis set group =>   1
Atom  42C    basis set group =>   1
Atom  43C    basis set group =>   1
Atom  44C    basis set group =>   1
Atom  45C    basis set group =>   1
Atom  46C    basis set group =>   1
Atom  47C    basis set group =>   1
Atom  48C    basis set group =>   1
Atom  49C    basis set group =>   1
Atom  50C    basis set group =>   1
Atom  51C    basis set group =>   1
Atom  52H    basis set group =>   3
Atom  53H    basis set group =>   3
Atom  54H    basis set group =>   3
Atom  55H    basis set group =>   3
Atom  56H    basis set group =>   3
Atom  57H    basis set group =>   3
Atom  58H    basis set group =>   3
Atom  59H    basis set group =>   3
Atom  60H    basis set group =>   3
Atom  61H    basis set group =>   3
Atom  62H    basis set group =>   3
Atom  63H    basis set group =>   3
Atom  64H    basis set group =>   3
Atom  65H    basis set group =>   3
Atom  66H    basis set group =>   3
Atom  67H    basis set group =>   3
Atom  68H    basis set group =>   3
Atom  69H    basis set group =>   3
Atom  70H    basis set group =>   3
Atom  71H    basis set group =>   3
Atom  72H    basis set group =>   3
Atom  73H    basis set group =>   3
Atom  74H    basis set group =>   3
Atom  75H    basis set group =>   3
Atom  76H    basis set group =>   3
Atom  77H    basis set group =>   3
Atom  78H    basis set group =>   3
Atom  79H    basis set group =>   3
Atom  80H    basis set group =>   3
Atom  81H    basis set group =>   3
Atom  82H    basis set group =>   3
Atom  83H    basis set group =>   3
Atom  84H    basis set group =>   3
Atom  85H    basis set group =>   3
Atom  86H    basis set group =>   3
Atom  87H    basis set group =>   3
Atom  88H    basis set group =>   3
Atom  89H    basis set group =>   3


           ************************************************************
           *        Program running with 16 parallel MPI-processes    *
           *              working on a common directory               *
           ************************************************************
------------------------------------------------------------------------------
                           ORCA GTO INTEGRAL CALCULATION
------------------------------------------------------------------------------
------------------------------------------------------------------------------
                   ___                                                        
                  /   \      - P O W E R E D   B Y -                         
                 /     \                                                     
                 |  |  |   _    _      __       _____    __    __             
                 |  |  |  | |  | |    /  \     |  _  \  |  |  /  |          
                  \  \/   | |  | |   /    \    | | | |  |  | /  /          
                 / \  \   | |__| |  /  /\  \   | |_| |  |  |/  /          
                |  |  |   |  __  | /  /__\  \  |    /   |      \           
                |  |  |   | |  | | |   __   |  |    \   |  |\   \          
                \     /   | |  | | |  |  |  |  | |\  \  |  | \   \       
                 \___/    |_|  |_| |__|  |__|  |_| \__\ |__|  \__/        
                                                                              
                      - O R C A' S   B I G   F R I E N D -                    
                                      &                                       
                       - I N T E G R A L  F E E D E R -                       
                                                                              
 v1 FN, 2020, v2 2021                                                         
------------------------------------------------------------------------------


Reading SHARK input file /scratch/allen/tmpyp4_amber_gaff2/conf1/conf1/Conf225.orca.SHARKINP.tmp ... ok
----------------------
SHARK INTEGRAL PACKAGE
----------------------

Number of atoms                             ...     90
Number of basis functions                   ...   1230
Number of shells                            ...    738
Maximum angular momentum                    ...      2
Integral batch strategy                     ... SHARK/LIBINT Hybrid
RI-J (if used) integral strategy            ... SPLIT-RIJ (Revised 2003 algorithm where possible)
Printlevel                                  ...      1
Contraction scheme used                     ... PARTIAL GENERAL contraction
Coulomb Range Separation                    ... NOT USED
Exchange Range Separation                   ... NOT USED
Finite Nucleus Model                        ... NOT USED
Auxiliary Coulomb fitting basis             ... NOT available
Auxiliary J/K fitting basis                 ... NOT available
Auxiliary Correlation fitting basis         ... NOT available
Auxiliary 'external' fitting basis          ... NOT available
Integral threshold                          ...     2.500000e-11
Primitive cut-off                           ...     2.500000e-12
Primitive pair pre-selection threshold      ...     2.500000e-12

Calculating pre-screening integrals         ... done (  0.1 sec) Dimension = 738
Calculating pre-screening integrals (ORCA)  ... done (  0.3 sec) Dimension = 426
Organizing shell pair data                  ... done (  0.7 sec)
Shell pair information
Total number of shell pairs                 ...    272691
Shell pairs after pre-screening             ...     71640
Total number of primitive shell pairs       ...    422091
Primitive shell pairs kept                  ...     92433
          la=0 lb=0:  29421 shell pairs
          la=1 lb=0:  25983 shell pairs
          la=1 lb=1:   4708 shell pairs
          la=2 lb=0:   7876 shell pairs
          la=2 lb=1:   3122 shell pairs
          la=2 lb=2:    530 shell pairs

Calculating one electron integrals          ... done (  0.2 sec)
Calculating Nuclear repulsion               ... done (  0.0 sec) ENN=   6228.364095222505 Eh

SHARK setup successfully completed in   2.2 seconds

Maximum memory used throughout the entire GTOINT-calculation: 99.0 MB


           ************************************************************
           *        Program running with 16 parallel MPI-processes    *
           *              working on a common directory               *
           ************************************************************
-------------------------------------------------------------------------------
                                 ORCA SCF
-------------------------------------------------------------------------------

------------
SCF SETTINGS
------------
Hamiltonian:
 Ab initio Hamiltonian  Method          .... Hartree-Fock(GTOs)


General Settings:
 Integral files         IntName         .... /scratch/allen/tmpyp4_amber_gaff2/conf1/conf1/Conf225.orca
 Hartree-Fock type      HFTyp           .... RHF
 Total Charge           Charge          ....    0
 Multiplicity           Mult            ....    1
 Number of Electrons    NEL             ....  358
 Basis Dimension        Dim             ....  918
 Nuclear Repulsion      ENuc            ....   6228.3640952225 Eh

Convergence Acceleration:
 DIIS                   CNVDIIS         .... on
   Start iteration      DIISMaxIt       ....    12
   Startup error        DIISStart       ....  0.200000
   # of expansion vecs  DIISMaxEq       ....     5
   Bias factor          DIISBfac        ....   1.050
   Max. coefficient     DIISMaxC        ....  10.000
 Trust-Rad. Augm. Hess. CNVTRAH         .... auto
   Auto Start mean grad. ratio tolernc. ....  1.125000
   Auto Start start iteration           ....    20
   Auto Start num. interpolation iter.  ....    10
   Max. Number of Micro iterations      ....    16
   Max. Number of Macro iterations      .... Maxiter - #DIIS iter
   Number of Davidson start vectors     ....     2
   Converg. threshold I  (grad. norm)   ....   1.000e-05
   Converg. threshold II (energy diff.) ....   1.000e-08
   Grad. Scal. Fac. for Micro threshold ....   0.100
   Minimum threshold for Micro iter.    ....   0.010
   NR start threshold (gradient norm)   ....   0.001
   Initial trust radius                 ....   0.400
   Minimum AH scaling param. (alpha)    ....   1.000
   Maximum AH scaling param. (alpha)    .... 1000.000
   Orbital update algorithm             .... Taylor
   White noise on init. David. guess    .... on
   Maximum white noise                  ....   0.010
   Quad. conv. algorithm                .... NR
 SOSCF                  CNVSOSCF        .... on
   Start iteration      SOSCFMaxIt      ....   150
   Startup grad/error   SOSCFStart      ....  0.003300
 Level Shifting         CNVShift        .... on
   Level shift para.    LevelShift      ....    0.2500
   Turn off err/grad.   ShiftErr        ....    0.0010
 Zerner damping         CNVZerner       .... off
 Static damping         CNVDamp         .... on
   Fraction old density DampFac         ....    0.7000
   Max. Damping (<1)    DampMax         ....    0.9800
   Min. Damping (>=0)   DampMin         ....    0.0000
   Turn off err/grad.   DampErr         ....    0.1000
 Fernandez-Rico         CNVRico         .... off

SCF Procedure:
 Maximum # iterations   MaxIter         ....   125
 SCF integral mode      SCFMode         .... Direct
   Integral package                     .... SHARK and LIBINT hybrid scheme
 Reset frequency        DirectResetFreq ....    20
 Integral Threshold     Thresh          ....  2.500e-11 Eh
 Primitive CutOff       TCut            ....  2.500e-12 Eh

Convergence Tolerance:
 Convergence Check Mode ConvCheckMode   .... Total+1el-Energy
 Convergence forced     ConvForced      .... 1
 Energy Change          TolE            ....  1.000e-08 Eh
 1-El. energy change                    ....  1.000e-05 Eh
 Orbital Gradient       TolG            ....  1.000e-05
 Orbital Rotation angle TolX            ....  1.000e-05
 DIIS Error             TolErr          ....  5.000e-07


Diagonalization of the overlap matrix:
Smallest eigenvalue                        ... 2.228e-04
Time for diagonalization                   ...    0.437 sec
Threshold for overlap eigenvalues          ... 1.000e-08
Number of eigenvalues below threshold      ... 0
Time for construction of square roots      ...    0.269 sec
Total time needed                          ...    0.712 sec

Time for model grid setup =    1.296 sec

------------------------------
INITIAL GUESS: MODEL POTENTIAL
------------------------------
Loading Hartree-Fock densities                     ... done
Calculating cut-offs                               ... done
Initializing the effective Hamiltonian             ... done
Setting up the integral package (SHARK)            ... done
Starting the Coulomb interaction                   ... done (   1.5 sec)
Reading the grid                                   ... done
Mapping shells                                     ... done
Starting the XC term evaluation                    ... done (   0.2 sec)
Transforming the Hamiltonian                       ... done (   0.3 sec)
Diagonalizing the Hamiltonian                      ... done (   0.4 sec)
Back transforming the eigenvectors                 ... done (   0.1 sec)
Now organizing SCF variables                       ... done
                      ------------------
                      INITIAL GUESS DONE (   3.8 sec)
                      ------------------
--------------
SCF ITERATIONS
--------------
ITER       Energy         Delta-E        Max-DP      RMS-DP      [F,P]     Damp
               ***  Starting incremental Fock matrix formation  ***
  0  -2121.6855210158   0.000000000000 0.06874374  0.00121197  0.2326018 0.7000
  1  -2122.3455337906  -0.660012774846 0.05211590  0.00098515  0.1439899 0.7000
                               ***Turning on DIIS***
  2  -2122.7555381516  -0.410004360909 0.11569198  0.00223359  0.0802326 0.0000
  3  -2117.8296742255   4.925863926041 0.03073363  0.00067899  0.0440921 0.0000
  4  -2123.4221544911  -5.592480265574 0.00995954  0.00022750  0.0071615 0.0000
  5  -2123.5918729923  -0.169718501198 0.00526939  0.00013406  0.0049638 0.0000
  6  -2123.5752678943   0.016605098004 0.00349776  0.00008635  0.0019817 0.0000
  7  -2123.6768690669  -0.101601172648 0.00295576  0.00006782  0.0015377 0.0000
  8  -2123.6912576905  -0.014388623529 0.00303510  0.00006354  0.0014335 0.0000
  9  -2123.6581803744   0.033077316029 0.00242509  0.00004359  0.0011405 0.0000
 10  -2123.6697001873  -0.011519812893 0.00491580  0.00008765  0.0008765 0.0000
                      *** Initiating the SOSCF procedure ***
                           *** Shutting down DIIS ***
                      *** Re-Reading the Fockian *** 
                      *** Removing any level shift *** 
ITER      Energy       Delta-E        Grad      Rot      Max-DP    RMS-DP
 11  -2123.55716531   0.1125348772  0.000247  0.000247  0.000256  0.000006
               *** Restarting incremental Fock matrix formation ***
 12  -2123.62267135  -0.0655060380  0.000898  0.006054  0.001178  0.000030
 13  -2123.62275304  -0.0000816905  0.001030  0.028178  0.005549  0.000114
 14  -2123.62288319  -0.0001301493  0.000406  0.001837  0.000550  0.000012
 15  -2123.62289834  -0.0000151473  0.000178  0.003535  0.000997  0.000018
 16  -2123.62290800  -0.0000096687  0.000162  0.004129  0.000677  0.000015
 17  -2123.62291237  -0.0000043655  0.000159  0.002768  0.000391  0.000010
 18  -2123.62291467  -0.0000022972  0.000079  0.001376  0.000303  0.000005
 19  -2123.62291578  -0.0000011182  0.000057  0.000634  0.000169  0.000003
 20  -2123.62291613  -0.0000003466  0.000026  0.000455  0.000121  0.000002
 21  -2123.62291632  -0.0000001882  0.000026  0.000381  0.000093  0.000002
 22  -2123.62291643  -0.0000001098  0.000018  0.000509  0.000116  0.000002
 23  -2123.62291650  -0.0000000725  0.000011  0.000250  0.000048  0.000001
 24  -2123.62291653  -0.0000000280  0.000006  0.000194  0.000040  0.000001
 25  -2123.62291655  -0.0000000196  0.000006  0.000123  0.000024  0.000000
 26  -2123.62291656  -0.0000000098  0.000004  0.000128  0.000020  0.000000
 27  -2123.62291657  -0.0000000085  0.000003  0.000138  0.000020  0.000000
                  ***Gradient check signals convergence***
              ***Rediagonalizing the Fockian in SOSCF/NRSCF***

               *****************************************************
               *                     SUCCESS                       *
               *           SCF CONVERGED AFTER  28 CYCLES          *
               *****************************************************


----------------
TOTAL SCF ENERGY
----------------

Total Energy       :        -2123.62291657 Eh          -57786.71738 eV

Components:
Nuclear Repulsion  :         6228.36409522 Eh          169482.40335 eV
Electronic Energy  :        -8351.98701180 Eh         -227269.12073 eV
One Electron Energy:       -15297.65095665 Eh         -416270.24530 eV
Two Electron Energy:         6945.66394485 Eh          189001.12457 eV

Virial components:
Potential Energy   :        -4245.69033099 Eh         -115531.10739 eV
Kinetic Energy     :         2122.06741441 Eh           57744.39001 eV
Virial Ratio       :            2.00073301


---------------
SCF CONVERGENCE
---------------

  Last Energy change         ...   -5.1878e-09  Tolerance :   1.0000e-08
  Last MAX-Density change    ...    1.5006e-05  Tolerance :   1.0000e-07
  Last RMS-Density change    ...    3.8566e-07  Tolerance :   5.0000e-09
  Last Orbital Gradient      ...    2.4974e-06  Tolerance :   1.0000e-05
  Last Orbital Rotation      ...    1.1821e-04  Tolerance :   1.0000e-05

             **** THE GBW FILE WAS UPDATED (/scratch/allen/tmpyp4_amber_gaff2/conf1/conf1/Conf225.orca.gbw) ****
             **** DENSITY /scratch/allen/tmpyp4_amber_gaff2/conf1/conf1/Conf225.orca.scfp WAS UPDATED ****
             **** ENERGY FILE WAS UPDATED (/scratch/allen/tmpyp4_amber_gaff2/conf1/conf1/Conf225.orca.en.tmp) ****
             **** THE GBW FILE WAS UPDATED (/scratch/allen/tmpyp4_amber_gaff2/conf1/conf1/Conf225.orca.gbw) ****
             **** DENSITY /scratch/allen/tmpyp4_amber_gaff2/conf1/conf1/Conf225.orca.scfp WAS UPDATED ****
----------------
ORBITAL ENERGIES
----------------

  NO   OCC          E(Eh)            E(eV) 
   0   2.0000     -15.660151      -426.1344 
   1   2.0000     -15.636835      -425.4999 
   2   2.0000     -15.629818      -425.3090 
   3   2.0000     -15.602592      -424.5681 
   4   2.0000     -15.522726      -422.3949 
   5   2.0000     -15.516360      -422.2216 
   6   2.0000     -15.449298      -420.3968 
   7   2.0000     -15.442820      -420.2205 
   8   2.0000     -11.315779      -307.9180 
   9   2.0000     -11.313385      -307.8529 
  10   2.0000     -11.311427      -307.7996 
  11   2.0000     -11.301075      -307.5179 
  12   2.0000     -11.296937      -307.4053 
  13   2.0000     -11.294288      -307.3332 
  14   2.0000     -11.290110      -307.2195 
  15   2.0000     -11.288224      -307.1682 
  16   2.0000     -11.285704      -307.0996 
  17   2.0000     -11.280675      -306.9628 
  18   2.0000     -11.265942      -306.5619 
  19   2.0000     -11.265279      -306.5438 
  20   2.0000     -11.263552      -306.4968 
  21   2.0000     -11.249493      -306.1143 
  22   2.0000     -11.248574      -306.0893 
  23   2.0000     -11.240292      -305.8639 
  24   2.0000     -11.234483      -305.7058 
  25   2.0000     -11.233133      -305.6691 
  26   2.0000     -11.232348      -305.6477 
  27   2.0000     -11.228046      -305.5307 
  28   2.0000     -11.227926      -305.5274 
  29   2.0000     -11.211737      -305.0869 
  30   2.0000     -11.207014      -304.9584 
  31   2.0000     -11.206273      -304.9382 
  32   2.0000     -11.205369      -304.9136 
  33   2.0000     -11.205137      -304.9073 
  34   2.0000     -11.191625      -304.5396 
  35   2.0000     -11.191036      -304.5236 
  36   2.0000     -11.182432      -304.2894 
  37   2.0000     -11.180341      -304.2325 
  38   2.0000     -11.179674      -304.2144 
  39   2.0000     -11.172760      -304.0263 
  40   2.0000     -11.168872      -303.9205 
  41   2.0000     -11.167451      -303.8818 
  42   2.0000     -11.165141      -303.8189 
  43   2.0000     -11.164274      -303.7953 
  44   2.0000     -11.163522      -303.7749 
  45   2.0000     -11.161734      -303.7262 
  46   2.0000     -11.153024      -303.4892 
  47   2.0000     -11.150154      -303.4111 
  48   2.0000     -11.149471      -303.3925 
  49   2.0000     -11.145511      -303.2848 
  50   2.0000     -11.137075      -303.0552 
  51   2.0000     -11.131003      -302.8900 
  52   2.0000      -1.343654       -36.5627 
  53   2.0000      -1.323652       -36.0184 
  54   2.0000      -1.317757       -35.8580 
  55   2.0000      -1.295313       -35.2473 
  56   2.0000      -1.222436       -33.2642 
  57   2.0000      -1.211536       -32.9676 
  58   2.0000      -1.167158       -31.7600 
  59   2.0000      -1.154858       -31.4253 
  60   2.0000      -1.129493       -30.7351 
  61   2.0000      -1.112087       -30.2614 
  62   2.0000      -1.107233       -30.1293 
  63   2.0000      -1.089081       -29.6354 
  64   2.0000      -1.066520       -29.0215 
  65   2.0000      -1.047659       -28.5082 
  66   2.0000      -1.042463       -28.3669 
  67   2.0000      -1.032290       -28.0900 
  68   2.0000      -1.022481       -27.8231 
  69   2.0000      -1.013010       -27.5654 
  70   2.0000      -1.009731       -27.4762 
  71   2.0000      -0.993429       -27.0326 
  72   2.0000      -0.986645       -26.8480 
  73   2.0000      -0.975579       -26.5469 
  74   2.0000      -0.973286       -26.4845 
  75   2.0000      -0.959456       -26.1081 
  76   2.0000      -0.950775       -25.8719 
  77   2.0000      -0.948110       -25.7994 
  78   2.0000      -0.937050       -25.4984 
  79   2.0000      -0.922000       -25.0889 
  80   2.0000      -0.898315       -24.4444 
  81   2.0000      -0.889294       -24.1989 
  82   2.0000      -0.874946       -23.8085 
  83   2.0000      -0.870201       -23.6794 
  84   2.0000      -0.864384       -23.5211 
  85   2.0000      -0.855585       -23.2817 
  86   2.0000      -0.846447       -23.0330 
  87   2.0000      -0.839002       -22.8304 
  88   2.0000      -0.822456       -22.3802 
  89   2.0000      -0.798696       -21.7336 
  90   2.0000      -0.795484       -21.6462 
  91   2.0000      -0.743439       -20.2300 
  92   2.0000      -0.736728       -20.0474 
  93   2.0000      -0.731104       -19.8944 
  94   2.0000      -0.722412       -19.6578 
  95   2.0000      -0.720579       -19.6080 
  96   2.0000      -0.713538       -19.4164 
  97   2.0000      -0.706456       -19.2237 
  98   2.0000      -0.701962       -19.1014 
  99   2.0000      -0.695518       -18.9260 
 100   2.0000      -0.692743       -18.8505 
 101   2.0000      -0.681615       -18.5477 
 102   2.0000      -0.678769       -18.4703 
 103   2.0000      -0.675279       -18.3753 
 104   2.0000      -0.671703       -18.2780 
 105   2.0000      -0.671187       -18.2639 
 106   2.0000      -0.663683       -18.0597 
 107   2.0000      -0.662949       -18.0398 
 108   2.0000      -0.655686       -17.8421 
 109   2.0000      -0.654319       -17.8049 
 110   2.0000      -0.650806       -17.7093 
 111   2.0000      -0.648067       -17.6348 
 112   2.0000      -0.643661       -17.5149 
 113   2.0000      -0.637271       -17.3410 
 114   2.0000      -0.632527       -17.2119 
 115   2.0000      -0.631815       -17.1925 
 116   2.0000      -0.624916       -17.0048 
 117   2.0000      -0.615071       -16.7369 
 118   2.0000      -0.614312       -16.7163 
 119   2.0000      -0.611103       -16.6290 
 120   2.0000      -0.609682       -16.5903 
 121   2.0000      -0.602002       -16.3813 
 122   2.0000      -0.598698       -16.2914 
 123   2.0000      -0.590600       -16.0710 
 124   2.0000      -0.587801       -15.9949 
 125   2.0000      -0.583165       -15.8687 
 126   2.0000      -0.579252       -15.7622 
 127   2.0000      -0.576206       -15.6794 
 128   2.0000      -0.563824       -15.3424 
 129   2.0000      -0.558567       -15.1994 
 130   2.0000      -0.554450       -15.0874 
 131   2.0000      -0.549313       -14.9476 
 132   2.0000      -0.541379       -14.7317 
 133   2.0000      -0.537688       -14.6312 
 134   2.0000      -0.534920       -14.5559 
 135   2.0000      -0.532814       -14.4986 
 136   2.0000      -0.526290       -14.3211 
 137   2.0000      -0.524198       -14.2642 
 138   2.0000      -0.517071       -14.0702 
 139   2.0000      -0.516582       -14.0569 
 140   2.0000      -0.510879       -13.9017 
 141   2.0000      -0.509097       -13.8532 
 142   2.0000      -0.507774       -13.8172 
 143   2.0000      -0.502004       -13.6602 
 144   2.0000      -0.501246       -13.6396 
 145   2.0000      -0.498144       -13.5552 
 146   2.0000      -0.494320       -13.4511 
 147   2.0000      -0.487468       -13.2647 
 148   2.0000      -0.486421       -13.2362 
 149   2.0000      -0.469098       -12.7648 
 150   2.0000      -0.463245       -12.6055 
 151   2.0000      -0.455362       -12.3910 
 152   2.0000      -0.448218       -12.1966 
 153   2.0000      -0.446683       -12.1549 
 154   2.0000      -0.445686       -12.1277 
 155   2.0000      -0.440634       -11.9903 
 156   2.0000      -0.432968       -11.7817 
 157   2.0000      -0.427730       -11.6391 
 158   2.0000      -0.398412       -10.8413 
 159   2.0000      -0.386992       -10.5306 
 160   2.0000      -0.378206       -10.2915 
 161   2.0000      -0.374342       -10.1864 
 162   2.0000      -0.370707       -10.0874 
 163   2.0000      -0.358412        -9.7529 
 164   2.0000      -0.354194        -9.6381 
 165   2.0000      -0.337564        -9.1856 
 166   2.0000      -0.336518        -9.1571 
 167   2.0000      -0.334667        -9.1067 
 168   2.0000      -0.327934        -8.9235 
 169   2.0000      -0.300825        -8.1859 
 170   2.0000      -0.299845        -8.1592 
 171   2.0000      -0.287589        -7.8257 
 172   2.0000      -0.285271        -7.7626 
 173   2.0000      -0.259382        -7.0581 
 174   2.0000      -0.246072        -6.6960 
 175   2.0000      -0.189274        -5.1504 
 176   2.0000      -0.179427        -4.8825 
 177   2.0000      -0.071177        -1.9368 
 178   2.0000      -0.056538        -1.5385 
 179   0.0000       0.029433         0.8009 
 180   0.0000       0.068690         1.8692 
 181   0.0000       0.092303         2.5117 
 182   0.0000       0.103570         2.8183 
 183   0.0000       0.119399         3.2490 
 184   0.0000       0.135444         3.6856 
 185   0.0000       0.140622         3.8265 
 186   0.0000       0.151191         4.1141 
 187   0.0000       0.160267         4.3611 
 188   0.0000       0.162080         4.4104 
 189   0.0000       0.163679         4.4539 
 190   0.0000       0.166928         4.5423 
 191   0.0000       0.180461         4.9106 
 192   0.0000       0.190789         5.1916 
 193   0.0000       0.194183         5.2840 
 194   0.0000       0.203463         5.5365 
 195   0.0000       0.206764         5.6263 
 196   0.0000       0.206924         5.6307 
 197   0.0000       0.209929         5.7125 
 198   0.0000       0.220568         6.0020 
 199   0.0000       0.224160         6.0997 
 200   0.0000       0.226133         6.1534 
 201   0.0000       0.237975         6.4756 
 202   0.0000       0.241024         6.5586 
 203   0.0000       0.243774         6.6334 
 204   0.0000       0.252599         6.8736 
 205   0.0000       0.254257         6.9187 
 206   0.0000       0.256733         6.9861 
 207   0.0000       0.258650         7.0382 
 208   0.0000       0.261916         7.1271 
 209   0.0000       0.262582         7.1452 
 210   0.0000       0.265775         7.2321 
 211   0.0000       0.269557         7.3350 
 212   0.0000       0.272105         7.4043 
 213   0.0000       0.273723         7.4484 
 214   0.0000       0.275448         7.4953 
 215   0.0000       0.278721         7.5844 
 216   0.0000       0.280300         7.6273 
 217   0.0000       0.280509         7.6330 
 218   0.0000       0.284190         7.7332 
 219   0.0000       0.289212         7.8699 
 220   0.0000       0.289989         7.8910 
 221   0.0000       0.292801         7.9675 
 222   0.0000       0.294140         8.0040 
 223   0.0000       0.295137         8.0311 
 224   0.0000       0.298602         8.1254 
 225   0.0000       0.299362         8.1460 
 226   0.0000       0.305071         8.3014 
 227   0.0000       0.309290         8.4162 
 228   0.0000       0.310431         8.4472 
 229   0.0000       0.318163         8.6577 
 230   0.0000       0.321282         8.7425 
 231   0.0000       0.323837         8.8121 
 232   0.0000       0.328486         8.9386 
 233   0.0000       0.331144         9.0109 
 234   0.0000       0.342050         9.3077 
 235   0.0000       0.344387         9.3712 
 236   0.0000       0.356998         9.7144 
 237   0.0000       0.382765        10.4156 
 238   0.0000       0.394892        10.7456 
 239   0.0000       0.398577        10.8458 
 240   0.0000       0.402670        10.9572 
 241   0.0000       0.416249        11.3267 
 242   0.0000       0.418456        11.3868 
 243   0.0000       0.423850        11.5335 
 244   0.0000       0.429450        11.6859 
 245   0.0000       0.430046        11.7022 
 246   0.0000       0.434575        11.8254 
 247   0.0000       0.439769        11.9667 
 248   0.0000       0.442070        12.0293 
 249   0.0000       0.443167        12.0592 
 250   0.0000       0.450474        12.2580 
 251   0.0000       0.457598        12.4519 
 252   0.0000       0.461173        12.5492 
 253   0.0000       0.463741        12.6190 
 254   0.0000       0.470851        12.8125 
 255   0.0000       0.473757        12.8916 
 256   0.0000       0.482281        13.1235 
 257   0.0000       0.483589        13.1591 
 258   0.0000       0.489661        13.3243 
 259   0.0000       0.499247        13.5852 
 260   0.0000       0.501466        13.6456 
 261   0.0000       0.504791        13.7361 
 262   0.0000       0.507087        13.7985 
 263   0.0000       0.507874        13.8199 
 264   0.0000       0.513589        13.9755 
 265   0.0000       0.517270        14.0756 
 266   0.0000       0.519850        14.1458 
 267   0.0000       0.524447        14.2709 
 268   0.0000       0.535005        14.5582 
 269   0.0000       0.538091        14.6422 
 270   0.0000       0.541055        14.7229 
 271   0.0000       0.546041        14.8585 
 272   0.0000       0.547737        14.9047 
 273   0.0000       0.555270        15.1097 
 274   0.0000       0.559951        15.2370 
 275   0.0000       0.565330        15.3834 
 276   0.0000       0.570506        15.5243 
 277   0.0000       0.575475        15.6595 
 278   0.0000       0.581140        15.8136 
 279   0.0000       0.585082        15.9209 
 280   0.0000       0.587416        15.9844 
 281   0.0000       0.592118        16.1123 
 282   0.0000       0.593682        16.1549 
 283   0.0000       0.597585        16.2611 
 284   0.0000       0.598568        16.2879 
 285   0.0000       0.600520        16.3410 
 286   0.0000       0.607174        16.5220 
 287   0.0000       0.611246        16.6328 
 288   0.0000       0.612232        16.6597 
 289   0.0000       0.618365        16.8266 
 290   0.0000       0.626574        17.0499 
 291   0.0000       0.628039        17.0898 
 292   0.0000       0.634188        17.2571 
 293   0.0000       0.636492        17.3198 
 294   0.0000       0.644879        17.5481 
 295   0.0000       0.650584        17.7033 
 296   0.0000       0.654328        17.8052 
 297   0.0000       0.657768        17.8988 
 298   0.0000       0.664079        18.0705 
 299   0.0000       0.667429        18.1617 
 300   0.0000       0.668767        18.1981 
 301   0.0000       0.670396        18.2424 
 302   0.0000       0.678960        18.4754 
 303   0.0000       0.681790        18.5524 
 304   0.0000       0.684228        18.6188 
 305   0.0000       0.687424        18.7058 
 306   0.0000       0.689963        18.7748 
 307   0.0000       0.693974        18.8840 
 308   0.0000       0.695206        18.9175 
 309   0.0000       0.697975        18.9929 
 310   0.0000       0.700435        19.0598 
 311   0.0000       0.704292        19.1648 
 312   0.0000       0.705780        19.2052 
 313   0.0000       0.709691        19.3117 
 314   0.0000       0.711840        19.3702 
 315   0.0000       0.714133        19.4325 
 316   0.0000       0.717147        19.5146 
 317   0.0000       0.719232        19.5713 
 318   0.0000       0.721058        19.6210 
 319   0.0000       0.723081        19.6760 
 320   0.0000       0.726070        19.7574 
 321   0.0000       0.729211        19.8429 
 322   0.0000       0.733287        19.9538 
 323   0.0000       0.735818        20.0226 
 324   0.0000       0.739522        20.1234 
 325   0.0000       0.740008        20.1366 
 326   0.0000       0.742638        20.2082 
 327   0.0000       0.744387        20.2558 
 328   0.0000       0.748122        20.3574 
 329   0.0000       0.749410        20.3925 
 330   0.0000       0.751597        20.4520 
 331   0.0000       0.756104        20.5746 
 332   0.0000       0.757617        20.6158 
 333   0.0000       0.762181        20.7400 
 334   0.0000       0.767793        20.8927 
 335   0.0000       0.771348        20.9894 
 336   0.0000       0.777131        21.1468 
 337   0.0000       0.785519        21.3751 
 338   0.0000       0.785739        21.3811 
 339   0.0000       0.787059        21.4170 
 340   0.0000       0.791338        21.5334 
 341   0.0000       0.792904        21.5760 
 342   0.0000       0.798058        21.7163 
 343   0.0000       0.802708        21.8428 
 344   0.0000       0.804518        21.8920 
 345   0.0000       0.807546        21.9744 
 346   0.0000       0.809638        22.0314 
 347   0.0000       0.810925        22.0664 
 348   0.0000       0.812568        22.1111 
 349   0.0000       0.818189        22.2640 
 350   0.0000       0.821643        22.3580 
 351   0.0000       0.823386        22.4055 
 352   0.0000       0.824356        22.4319 
 353   0.0000       0.828017        22.5315 
 354   0.0000       0.828930        22.5563 
 355   0.0000       0.831457        22.6251 
 356   0.0000       0.833159        22.6714 
 357   0.0000       0.835104        22.7243 
 358   0.0000       0.836258        22.7557 
 359   0.0000       0.838721        22.8228 
 360   0.0000       0.840110        22.8606 
 361   0.0000       0.841237        22.8912 
 362   0.0000       0.843423        22.9507 
 363   0.0000       0.845660        23.0116 
 364   0.0000       0.846142        23.0247 
 365   0.0000       0.850692        23.1485 
 366   0.0000       0.855035        23.2667 
 367   0.0000       0.858422        23.3588 
 368   0.0000       0.861508        23.4428 
 369   0.0000       0.864628        23.5277 
 370   0.0000       0.867884        23.6163 
 371   0.0000       0.872287        23.7361 
 372   0.0000       0.875690        23.8287 
 373   0.0000       0.876922        23.8623 
 374   0.0000       0.877664        23.8825 
 375   0.0000       0.883325        24.0365 
 376   0.0000       0.884443        24.0669 
 377   0.0000       0.888273        24.1711 
 378   0.0000       0.891088        24.2477 
 379   0.0000       0.893658        24.3177 
 380   0.0000       0.896734        24.4014 
 381   0.0000       0.898584        24.4517 
 382   0.0000       0.901926        24.5427 
 383   0.0000       0.902943        24.5703 
 384   0.0000       0.904965        24.6253 
 385   0.0000       0.905324        24.6351 
 386   0.0000       0.908028        24.7087 
 387   0.0000       0.909307        24.7435 
 388   0.0000       0.910964        24.7886 
 389   0.0000       0.914515        24.8852 
 390   0.0000       0.917306        24.9612 
 391   0.0000       0.920893        25.0588 
 392   0.0000       0.923773        25.1372 
 393   0.0000       0.926884        25.2218 
 394   0.0000       0.928191        25.2574 
 395   0.0000       0.930654        25.3244 
 396   0.0000       0.932517        25.3751 
 397   0.0000       0.933009        25.3885 
 398   0.0000       0.939508        25.5653 
 399   0.0000       0.941555        25.6210 
 400   0.0000       0.944630        25.7047 
 401   0.0000       0.946915        25.7669 
 402   0.0000       0.951913        25.9029 
 403   0.0000       0.955186        25.9919 
 404   0.0000       0.957664        26.0594 
 405   0.0000       0.959566        26.1111 
 406   0.0000       0.960572        26.1385 
 407   0.0000       0.965422        26.2705 
 408   0.0000       0.969336        26.3770 
 409   0.0000       0.973893        26.5010 
 410   0.0000       0.979515        26.6540 
 411   0.0000       0.985064        26.8049 
 412   0.0000       0.985880        26.8272 
 413   0.0000       0.987515        26.8716 
 414   0.0000       0.990669        26.9575 
 415   0.0000       0.993462        27.0335 
 416   0.0000       1.002344        27.2752 
 417   0.0000       1.003869        27.3167 
 418   0.0000       1.010887        27.5076 
 419   0.0000       1.017315        27.6825 
 420   0.0000       1.025905        27.9163 
 421   0.0000       1.028459        27.9858 
 422   0.0000       1.031337        28.0641 
 423   0.0000       1.040374        28.3100 
 424   0.0000       1.044514        28.4227 
 425   0.0000       1.047187        28.4954 
 426   0.0000       1.056529        28.7496 
 427   0.0000       1.064380        28.9633 
 428   0.0000       1.065768        29.0010 
 429   0.0000       1.074422        29.2365 
 430   0.0000       1.077299        29.3148 
 431   0.0000       1.080993        29.4153 
 432   0.0000       1.084324        29.5060 
 433   0.0000       1.091148        29.6917 
 434   0.0000       1.098280        29.8857 
 435   0.0000       1.102754        30.0075 
 436   0.0000       1.103797        30.0358 
 437   0.0000       1.111980        30.2585 
 438   0.0000       1.114777        30.3346 
 439   0.0000       1.117960        30.4213 
 440   0.0000       1.119722        30.4692 
 441   0.0000       1.123738        30.5785 
 442   0.0000       1.125967        30.6391 
 443   0.0000       1.129424        30.7332 
 444   0.0000       1.132995        30.8304 
 445   0.0000       1.135895        30.9093 
 446   0.0000       1.141025        31.0489 
 447   0.0000       1.142935        31.1008 
 448   0.0000       1.143867        31.1262 
 449   0.0000       1.147332        31.2205 
 450   0.0000       1.150070        31.2950 
 451   0.0000       1.151886        31.3444 
 452   0.0000       1.156583        31.4722 
 453   0.0000       1.158438        31.5227 
 454   0.0000       1.163998        31.6740 
 455   0.0000       1.169270        31.8175 
 456   0.0000       1.174104        31.9490 
 457   0.0000       1.174689        31.9649 
 458   0.0000       1.178186        32.0601 
 459   0.0000       1.184276        32.2258 
 460   0.0000       1.187334        32.3090 
 461   0.0000       1.195170        32.5222 
 462   0.0000       1.202859        32.7315 
 463   0.0000       1.204785        32.7839 
 464   0.0000       1.208435        32.8832 
 465   0.0000       1.210480        32.9388 
 466   0.0000       1.213431        33.0191 
 467   0.0000       1.218532        33.1579 
 468   0.0000       1.223309        33.2879 
 469   0.0000       1.226607        33.3777 
 470   0.0000       1.230454        33.4824 
 471   0.0000       1.233048        33.5529 
 472   0.0000       1.234756        33.5994 
 473   0.0000       1.236949        33.6591 
 474   0.0000       1.242766        33.8174 
 475   0.0000       1.246925        33.9306 
 476   0.0000       1.249682        34.0056 
 477   0.0000       1.250190        34.0194 
 478   0.0000       1.251480        34.0545 
 479   0.0000       1.254110        34.1261 
 480   0.0000       1.260636        34.3037 
 481   0.0000       1.265275        34.4299 
 482   0.0000       1.265905        34.4470 
 483   0.0000       1.270409        34.5696 
 484   0.0000       1.272473        34.6257 
 485   0.0000       1.277824        34.7714 
 486   0.0000       1.279255        34.8103 
 487   0.0000       1.281214        34.8636 
 488   0.0000       1.287931        35.0464 
 489   0.0000       1.290662        35.1207 
 490   0.0000       1.292140        35.1609 
 491   0.0000       1.297051        35.2946 
 492   0.0000       1.299319        35.3563 
 493   0.0000       1.309340        35.6289 
 494   0.0000       1.311007        35.6743 
 495   0.0000       1.312916        35.7263 
 496   0.0000       1.319203        35.8974 
 497   0.0000       1.323359        36.0104 
 498   0.0000       1.327910        36.1343 
 499   0.0000       1.328897        36.1611 
 500   0.0000       1.332167        36.2501 
 501   0.0000       1.336980        36.3811 
 502   0.0000       1.337881        36.4056 
 503   0.0000       1.344354        36.5817 
 504   0.0000       1.347166        36.6582 
 505   0.0000       1.351056        36.7641 
 506   0.0000       1.353427        36.8286 
 507   0.0000       1.358624        36.9700 
 508   0.0000       1.361233        37.0410 
 509   0.0000       1.362244        37.0685 
[...]
      pz      :     0.022046  p :     0.079678
      px      :     0.043462
      py      :     0.014169
 77 H s       :     0.886748  s :     0.886748
      pz      :     0.047808  p :     0.079095
      px      :     0.015017
      py      :     0.016270
 78 H s       :     0.887128  s :     0.887128
      pz      :     0.025795  p :     0.079047
      px      :     0.020504
      py      :     0.032748
 79 H s       :     0.909881  s :     0.909881
      pz      :     0.021964  p :     0.086516
      px      :     0.021712
      py      :     0.042840
 80 H s       :     0.867517  s :     0.867517
      pz      :     0.039137  p :     0.084476
      px      :     0.030105
      py      :     0.015234
 81 H s       :     0.887162  s :     0.887162
      pz      :     0.037777  p :     0.084010
      px      :     0.016175
      py      :     0.030058
 82 H s       :     0.915563  s :     0.915563
      pz      :     0.022020  p :     0.086788
      px      :     0.031515
      py      :     0.033253
 83 H s       :     0.873072  s :     0.873072
      pz      :     0.039267  p :     0.084033
      px      :     0.015265
      py      :     0.029501
 84 H s       :     0.886909  s :     0.886909
      pz      :     0.035781  p :     0.083577
      px      :     0.031708
      py      :     0.016089
 85 H s       :     0.893272  s :     0.893272
      pz      :     0.022494  p :     0.079766
      px      :     0.014081
      py      :     0.043191
 86 H s       :     0.890909  s :     0.890909
      pz      :     0.024727  p :     0.078842
      px      :     0.032984
      py      :     0.021130
 87 H s       :     0.890094  s :     0.890094
      pz      :     0.047982  p :     0.078717
      px      :     0.015598
      py      :     0.015137
 88 H s       :     0.912017  s :     0.912017
      pz      :     0.021803  p :     0.086980
      px      :     0.042755
      py      :     0.022422
 89 H s       :     0.872112  s :     0.872112
      pz      :     0.037905  p :     0.083831
      px      :     0.030464
      py      :     0.015462


                      *****************************
                      * MAYER POPULATION ANALYSIS *
                      *****************************

  NA   - Mulliken gross atomic population
  ZA   - Total nuclear charge
  QA   - Mulliken gross atomic charge
  VA   - Mayer's total valence
  BVA  - Mayer's bonded valence
  FA   - Mayer's free valence

  ATOM       NA         ZA         QA         VA         BVA        FA
  0 C      5.7918     6.0000     0.2082     3.8353     3.8353     0.0000
  1 N      7.4508     7.0000    -0.4508     3.3407     3.3407    -0.0000
  2 C      6.0627     6.0000    -0.0627     3.9201     3.9201    -0.0000
  3 N      7.3360     7.0000    -0.3360     3.4537     3.4537    -0.0000
  4 C      6.0512     6.0000    -0.0512     3.9934     3.9934     0.0000
  5 N      7.5628     7.0000    -0.5628     3.0908     3.0908    -0.0000
  6 C      6.0985     6.0000    -0.0985     4.0080     4.0080     0.0000
  7 N      7.3392     7.0000    -0.3392     3.4375     3.4375    -0.0000
  8 C      5.7968     6.0000     0.2032     3.8376     3.8376     0.0000
  9 N      7.5628     7.0000    -0.5628     3.0801     3.0801    -0.0000
 10 C      5.8824     6.0000     0.1176     3.9042     3.9042     0.0000
 11 N      7.4378     7.0000    -0.4378     3.3814     3.3814    -0.0000
 12 C      6.0821     6.0000    -0.0821     3.9157     3.9157     0.0000
 13 N      7.4341     7.0000    -0.4341     3.4067     3.4067    -0.0000
 14 C      5.7576     6.0000     0.2424     3.7799     3.7799     0.0000
 15 N      7.4411     7.0000    -0.4411     3.3712     3.3712    -0.0000
 16 C      5.7712     6.0000     0.2288     3.7849     3.7849    -0.0000
 17 C      6.1020     6.0000    -0.1020     4.0056     4.0056    -0.0000
 18 C      6.2108     6.0000    -0.2108     3.7715     3.7715    -0.0000
 19 C      5.7633     6.0000     0.2367     3.8590     3.8590    -0.0000
 20 C      5.7884     6.0000     0.2116     3.8276     3.8276    -0.0000
 21 C      6.0945     6.0000    -0.0945     3.9037     3.9037     0.0000
 22 C      6.0896     6.0000    -0.0896     3.9829     3.9829     0.0000
 23 C      6.0431     6.0000    -0.0431     3.9918     3.9918    -0.0000
 24 C      5.8013     6.0000     0.1987     3.8221     3.8221     0.0000
 25 C      5.8858     6.0000     0.1142     3.8905     3.8905    -0.0000
 26 C      6.0736     6.0000    -0.0736     3.9096     3.9096    -0.0000
 27 C      5.7847     6.0000     0.2153     3.8717     3.8717    -0.0000
 28 C      6.0580     6.0000    -0.0580     3.9882     3.9882     0.0000
 29 C      6.1812     6.0000    -0.1812     3.7415     3.7415    -0.0000
 30 C      5.7585     6.0000     0.2415     3.7974     3.7974    -0.0000
 31 C      5.7780     6.0000     0.2220     3.8220     3.8220    -0.0000
 32 C      6.0632     6.0000    -0.0632     3.9210     3.9210     0.0000
 33 C      6.0697     6.0000    -0.0697     3.9784     3.9784    -0.0000
 34 C      6.0504     6.0000    -0.0504     3.9874     3.9874    -0.0000
 35 C      5.7825     6.0000     0.2175     3.8206     3.8206     0.0000
 36 C      5.8892     6.0000     0.1108     3.8822     3.8822    -0.0000
 37 C      6.0655     6.0000    -0.0655     3.9175     3.9175     0.0000
 38 C      5.7660     6.0000     0.2340     3.7998     3.7998    -0.0000
 39 C      6.0595     6.0000    -0.0595     3.9867     3.9867    -0.0000
 40 C      6.1847     6.0000    -0.1847     3.7335     3.7335     0.0000
 41 C      5.7763     6.0000     0.2237     3.8841     3.8841     0.0000
 42 C      5.8005     6.0000     0.1995     3.8267     3.8267    -0.0000
 43 C      6.0728     6.0000    -0.0728     3.9013     3.9013     0.0000
 44 C      6.0897     6.0000    -0.0897     3.9850     3.9850     0.0000
 45 C      6.0576     6.0000    -0.0576     3.9927     3.9927    -0.0000
 46 C      5.7921     6.0000     0.2079     3.8274     3.8274    -0.0000
 47 C      5.8845     6.0000     0.1155     3.8935     3.8935     0.0000
 48 C      6.0701     6.0000    -0.0701     3.9074     3.9074    -0.0000
 49 C      5.7665     6.0000     0.2335     3.8896     3.8896    -0.0000
 50 C      6.0492     6.0000    -0.0492     3.9906     3.9906    -0.0000
 51 C      6.1903     6.0000    -0.1903     3.7358     3.7358    -0.0000
 52 H      0.9544     1.0000     0.0456     0.9857     0.9857    -0.0000
 53 H      1.0154     1.0000    -0.0154     0.9983     0.9983     0.0000
 54 H      0.9520     1.0000     0.0480     1.0099     1.0099    -0.0000
 55 H      0.9566     1.0000     0.0434     0.9865     0.9865     0.0000
 56 H      0.9476     1.0000     0.0524     0.9702     0.9702     0.0000
 57 H      0.9492     1.0000     0.0508     0.9833     0.9833    -0.0000
 58 H      0.9496     1.0000     0.0504     0.9850     0.9850     0.0000
 59 H      1.0024     1.0000    -0.0024     1.0023     1.0023     0.0000
 60 H      0.9486     1.0000     0.0514     1.0113     1.0113     0.0000
 61 H      0.8282     1.0000     0.1718     1.0421     1.0421     0.0000
 62 H      0.8256     1.0000     0.1744     1.0435     1.0435    -0.0000
 63 H      0.9439     1.0000     0.0561     0.9853     0.9853     0.0000
 64 H      1.0102     1.0000    -0.0102     0.9980     0.9980    -0.0000
 65 H      0.9524     1.0000     0.0476     1.0092     1.0092    -0.0000
 66 H      0.9431     1.0000     0.0569     0.9853     0.9853     0.0000
 67 H      0.9373     1.0000     0.0627     0.9720     0.9720    -0.0000
 68 H      0.9421     1.0000     0.0579     0.9868     0.9868    -0.0000
 69 H      0.9425     1.0000     0.0575     0.9829     0.9829    -0.0000
 70 H      1.0272     1.0000    -0.0272     0.9936     0.9936     0.0000
 71 H      0.9538     1.0000     0.0462     1.0063     1.0063     0.0000
 72 H      0.9351     1.0000     0.0649     0.9842     0.9842    -0.0000
 73 H      1.0106     1.0000    -0.0106     0.9999     0.9999     0.0000
 74 H      0.9455     1.0000     0.0545     1.0100     1.0100     0.0000
 75 H      0.9359     1.0000     0.0641     0.9846     0.9846    -0.0000
 76 H      0.9307     1.0000     0.0693     0.9719     0.9719     0.0000
 77 H      0.9363     1.0000     0.0637     0.9853     0.9853     0.0000
 78 H      0.9371     1.0000     0.0629     0.9851     0.9851    -0.0000
 79 H      1.0153     1.0000    -0.0153     0.9984     0.9984    -0.0000
 80 H      0.9449     1.0000     0.0551     1.0072     1.0072    -0.0000
 81 H      0.9464     1.0000     0.0536     0.9856     0.9856     0.0000
 82 H      1.0242     1.0000    -0.0242     0.9938     0.9938    -0.0000
 83 H      0.9577     1.0000     0.0423     1.0087     1.0087    -0.0000
 84 H      0.9464     1.0000     0.0536     0.9854     0.9854    -0.0000
 85 H      0.9400     1.0000     0.0600     0.9716     0.9716    -0.0000
 86 H      0.9442     1.0000     0.0558     0.9840     0.9840     0.0000
 87 H      0.9432     1.0000     0.0568     0.9856     0.9856     0.0000
 88 H      1.0174     1.0000    -0.0174     0.9958     0.9958    -0.0000
 89 H      0.9551     1.0000     0.0449     1.0073     1.0073     0.0000

  Mayer bond orders larger than 0.100000
B(  0-C ,  1-N ) :   1.0981 B(  0-C , 17-C ) :   1.6823 B(  0-C , 52-H ) :   0.9684 
B(  1-N ,  8-C ) :   1.0942 B(  1-N , 10-C ) :   0.9728 B(  2-C , 12-C ) :   1.5198 
B(  2-C , 16-C ) :   1.3440 B(  2-C , 53-H ) :   0.9765 B(  3-N , 14-C ) :   1.2136 
B(  3-N , 16-C ) :   1.1931 B(  3-N , 61-H ) :   0.8989 B(  4-C ,  6-C ) :   1.2278 
B(  4-C , 17-C ) :   1.2270 B(  4-C , 18-C ) :   1.3797 B(  5-N , 19-C ) :   1.4422 
B(  5-N , 27-C ) :   1.3870 B(  6-C ,  8-C ) :   1.6813 B(  6-C , 54-H ) :   0.9667 
B(  7-N , 30-C ) :   1.1950 B(  7-N , 38-C ) :   1.1954 B(  7-N , 62-H ) :   0.8974 
B(  8-C , 55-H ) :   0.9692 B(  9-N , 41-C ) :   1.3993 B(  9-N , 49-C ) :   1.4220 
B( 10-C , 56-H ) :   0.9766 B( 10-C , 57-H ) :   0.9820 B( 10-C , 58-H ) :   0.9841 
B( 11-N , 20-C ) :   1.1292 B( 11-N , 24-C ) :   1.1137 B( 11-N , 25-C ) :   0.9591 
B( 12-C , 14-C ) :   1.3452 B( 12-C , 59-H ) :   0.9744 B( 13-N , 31-C ) :   1.1449 
B( 13-N , 35-C ) :   1.1403 B( 13-N , 36-C ) :   0.9494 B( 14-C , 18-C ) :   1.1533 
B( 15-N , 42-C ) :   1.1104 B( 15-N , 46-C ) :   1.1193 B( 15-N , 47-C ) :   0.9620 
B( 16-C , 51-C ) :   1.1813 B( 17-C , 60-H ) :   0.9662 B( 18-C , 19-C ) :   1.1625 
B( 19-C , 21-C ) :   1.2304 B( 20-C , 28-C ) :   1.6256 B( 20-C , 63-H ) :   0.9702 
B( 21-C , 26-C ) :   1.6265 B( 21-C , 64-H ) :   0.9700 B( 22-C , 23-C ) :   1.2884 
B( 22-C , 28-C ) :   1.2687 B( 22-C , 29-C ) :   1.2228 B( 23-C , 24-C ) :   1.6182 
B( 23-C , 65-H ) :   0.9705 B( 24-C , 66-H ) :   0.9693 B( 25-C , 67-H ) :   0.9761 
B( 25-C , 68-H ) :   0.9828 B( 25-C , 69-H ) :   0.9822 B( 26-C , 27-C ) :   1.2270 
B( 26-C , 70-H ) :   0.9720 B( 27-C , 29-C ) :   1.2233 B( 28-C , 71-H ) :   0.9717 
B( 29-C , 30-C ) :   1.2283 B( 30-C , 32-C ) :   1.2951 B( 31-C , 39-C ) :   1.6069 
B( 31-C , 72-H ) :   0.9688 B( 32-C , 37-C ) :   1.5636 B( 32-C , 73-H ) :   0.9783 
B( 33-C , 34-C ) :   1.2935 B( 33-C , 39-C ) :   1.2878 B( 33-C , 40-C ) :   1.2075 
B( 34-C , 35-C ) :   1.6037 B( 34-C , 74-H ) :   0.9700 B( 35-C , 75-H ) :   0.9688 
B( 36-C , 76-H ) :   0.9766 B( 36-C , 77-H ) :   0.9818 B( 36-C , 78-H ) :   0.9827 
B( 37-C , 38-C ) :   1.2983 B( 37-C , 79-H ) :   0.9771 B( 38-C , 40-C ) :   1.2214 
B( 39-C , 80-H ) :   0.9710 B( 40-C , 41-C ) :   1.2375 B( 41-C , 43-C ) :   1.1970 
B( 42-C , 50-C ) :   1.6339 B( 42-C , 81-H ) :   0.9697 B( 43-C , 48-C ) :   1.6551 
B( 43-C , 82-H ) :   0.9728 B( 44-C , 45-C ) :   1.2660 B( 44-C , 50-C ) :   1.2696 
B( 44-C , 51-C ) :   1.2594 B( 45-C , 46-C ) :   1.6346 B( 45-C , 83-H ) :   0.9716 
B( 46-C , 84-H ) :   0.9701 B( 47-C , 85-H ) :   0.9761 B( 47-C , 86-H ) :   0.9829 
B( 47-C , 87-H ) :   0.9825 B( 48-C , 49-C ) :   1.1992 B( 48-C , 88-H ) :   0.9745 
B( 49-C , 51-C ) :   1.2324 B( 50-C , 89-H ) :   0.9711 

-------
TIMINGS
-------

Total SCF time: 0 days 0 hours 28 min 24 sec 

Total time                  ....    1704.100 sec
Sum of individual times     ....    1699.328 sec  ( 99.7%)

Fock matrix formation       ....    1671.552 sec  ( 98.1%)
Diagonalization             ....       8.788 sec  (  0.5%)
Density matrix formation    ....       0.548 sec  (  0.0%)
Population analysis         ....       0.586 sec  (  0.0%)
Initial guess               ....       2.533 sec  (  0.1%)
Orbital Transformation      ....       0.000 sec  (  0.0%)
Orbital Orthonormalization  ....       0.000 sec  (  0.0%)
DIIS solution               ....       3.995 sec  (  0.2%)
SOSCF solution              ....      10.030 sec  (  0.6%)

Maximum memory used throughout the entire SCF-calculation: 302.6 MB


           ************************************************************
           *        Program running with 16 parallel MPI-processes    *
           *              working on a common directory               *
           ************************************************************

------------------------------------------------------------------------------
                                ORCA  MP2 
------------------------------------------------------------------------------

Freezing NCore=104 chemical core electrons

----------
MP2 ENERGY (disk based algorithm)
----------

Dimension of the basis                    ...  918
Memory devoted to MP2                     ... 2000 MB   
Data format for buffers                   ... DOUBLE
Compression type for matrix containers    ... UNCOMPRESSED

-------------------------------
PARTIAL EXCHANGE TRANSFORMATION
-------------------------------

Transformation type                        ... one-operator
Generation of integrals (i,mue|j,nue)      ... ON
Generation of integrals (mue,kappa|nue,tau)... OFF
Generation of integrals (i,mue|a,nue)      ... OFF
Dimension of the basis                     ...  918
Number of internal MOs                     ...  127 (  52- 178)
Pair cutoff                                ... 2.500e-12 Eh
Number of AO pairs in the trafo            ... 421821
Total Number of distinct AO pairs          ... 421821
Memory devoted for trafo                   ... 2000.0 MB 
Max. Number of MO pairs treated together   ...  311      
Number Format for Storage                  ... Double (8 Byte)
Integral package used                      ... LIBINT

Starting integral evaluation:
    ... done with AO integral generation
Closing buffer AOK     (38.31 GB; CompressionRatio= 1.32)
Collecting buffer AOK 
Number of MO pairs included in the trafo   ... 8128
------------------------
SORTING OF (i,mue|j,nue)
------------------------

IBATCH = 1 of  2
IBATCH = 2 of  2
Closing buffer KAO     (51.03 GB; CompressionRatio= 1.00)
Collecting buffer KAO 
N(AO-Batches) Done                         ...  85691947 
N(AO-Batches) Skipped                      ...  82363904 
N(IJ)-pairs Skipped                        ...         0 
TOTAL TIME for half transformation         ...  2924.729 sec
AO-integral generation                     ...   214.825 sec
Half transformation                        ...   423.188 sec
K-integral sorting                         ...  2070.329 sec
Process 10:   Internal MO 132
Process 13:   Internal MO 156

Finished integral transformation - now doing MP2 part

OPERATOR COMBINATION   0   0: ij=( 52..178, 52..178)
Process  4:   Internal MO  84
Process  1:   Internal MO  60
Process  7:   Internal MO 108
Process  0:   Internal MO  54
Process  0:   Internal MO  57
Process  1:   Internal MO  63
Process  3:   Internal MO  78
Process  1:   Internal MO  66
Process  8:   Internal MO 117
Process 14:   Internal MO 165
Process  4:   Internal MO  87
Process 11:   Internal MO 141
Process  6:   Internal MO 102
Process  3:   Internal MO  81
Process  9:   Internal MO 126
Process  7:   Internal MO 111
Process  5:   Internal MO  93
Process 12:   Internal MO 150
Process 15:   Internal MO 174
Process  4:   Internal MO  90
Process  2:   Internal MO  69
Process  6:   Internal MO 105
Process  5:   Internal MO  96
Process  2:   Internal MO  72
Process 10:   Internal MO 135
Process  8:   Internal MO 120
Process  7:   Internal MO 114
Process  9:   Internal MO 129
Process  2:   Internal MO  75
Process 13:   Internal MO 159
Process  5:   Internal MO  99
Process 11:   Internal MO 144
Process 12:   Internal MO 153
Process 14:   Internal MO 168
Process 15:   Internal MO 177
Process  8:   Internal MO 123
Process 10:   Internal MO 138
Process 11:   Internal MO 147
Process 13:   Internal MO 162
Process 14:   Internal MO 171
-----------------------------------------------
 MP2 CORRELATION ENERGY   :     -7.285888237 Eh
-----------------------------------------------


-------
TIMINGS
-------
Total time                : 3262.417 sec
Integral trafo            : 2926.778 sec ( 89.7%)
K(i,j)                    :    7.012 sec (  0.2%)
T(i,j)                    :    0.061 sec (  0.0%)

---------------------------------------
MP2 TOTAL ENERGY:    -2130.908804810 Eh
---------------------------------------

Maximum memory used throughout the entire MP2-calculation: 2275.2 MB

-------------------------   --------------------
FINAL SINGLE POINT ENERGY     -2130.908804810350
-------------------------   --------------------


                            ***************************************
                            *     ORCA property calculations      *
                            ***************************************


  WARNING: The energy has been calculated at the MP2 level but the densities
           used in the property calculations are still SCF densities
           MP2 response densities have not been calculated 
           use %mp2 Density relaxed end
           or  %mp2 Density unrelaxed end

                                    ---------------------
                                    Active property flags
                                    ---------------------
   (+) Dipole Moment


------------------------------------------------------------------------------
                       ORCA ELECTRIC PROPERTIES CALCULATION
------------------------------------------------------------------------------

Dipole Moment Calculation                       ... on
Quadrupole Moment Calculation                   ... off
Polarizability Calculation                      ... off
GBWName                                         ... /scratch/allen/tmpyp4_amber_gaff2/conf1/conf1/Conf225.orca.gbw
Electron density                                ... /scratch/allen/tmpyp4_amber_gaff2/conf1/conf1/Conf225.orca.scfp
The origin for moment calculation is the CENTER OF MASS  = ( 0.002153, -0.002562 -0.001365)

-------------
DIPOLE MOMENT
-------------
                                X             Y             Z
Electronic contribution:      1.35750      -2.89383      -0.13929
Nuclear contribution   :      0.07760       0.24052       0.14486
                        -----------------------------------------
Total Dipole Moment    :      1.43510      -2.65331       0.00557
                        -----------------------------------------
Magnitude (a.u.)       :      3.01655
Magnitude (Debye)      :      7.66747



--------------------
Rotational spectrum 
--------------------
 
Rotational constants in cm-1:     0.001499     0.001477     0.000761 
Rotational constants in MHz :    44.952118    44.266729    22.820673 

 Dipole components along the rotational axes: 
x,y,z [a.u.] :     2.123524    -2.142483     0.003621 
x,y,z [Debye]:     5.397570    -5.445759     0.009205 

 

Timings for individual modules:

Sum of individual times         ...     4990.757 sec (=  83.179 min)
GTO integral calculation        ...        3.409 sec (=   0.057 min)   0.1 %
SCF iterations                  ...     1705.271 sec (=  28.421 min)  34.2 %
MP2 module                      ...     3282.076 sec (=  54.701 min)  65.8 %
                             ****ORCA TERMINATED NORMALLY****
TOTAL RUN TIME: 0 days 1 hours 23 minutes 14 seconds 150 msec
# of primitive gaussian functions

