
                                 *****************
                                 * O   R   C   A *
                                 *****************

                                            #,                                       
                                            ###                                      
                                            ####                                     
                                            #####                                    
                                            ######                                   
                                           ########,                                 
                                     ,,################,,,,,                         
                               ,,#################################,,                 
                          ,,##########################################,,             
                       ,#########################################, ''#####,          
                    ,#############################################,,   '####,        
                  ,##################################################,,,,####,       
                ,###########''''           ''''###############################       
              ,#####''   ,,,,##########,,,,          '''####'''          '####       
            ,##' ,,,,###########################,,,                        '##       
           ' ,,###''''                  '''############,,,                           
         ,,##''                                '''############,,,,        ,,,,,,###''
      ,#''                                            '''#######################'''  
     '                                                          ''''####''''         
             ,#######,   #######,   ,#######,      ##                                
            ,#'     '#,  ##    ##  ,#'     '#,    #''#        ######   ,####,        
            ##       ##  ##   ,#'  ##            #'  '#       #        #'  '#        
            ##       ##  #######   ##           ,######,      #####,   #    #        
            '#,     ,#'  ##    ##  '#,     ,#' ,#      #,         ##   #,  ,#        
             '#######'   ##     ##  '#######'  #'      '#     #####' # '####'        



                  #######################################################
                  #                        -***-                        #
                  #          Department of theory and spectroscopy      #
                  #    Directorship and core code : Frank Neese         #
                  #        Max Planck Institute fuer Kohlenforschung    #
                  #                Kaiser Wilhelm Platz 1               #
                  #                 D-45470 Muelheim/Ruhr               #
                  #                      Germany                        #
                  #                                                     #
                  #                  All rights reserved                #
                  #                        -***-                        #
                  #######################################################


                         Program Version 5.0.4 -  RELEASE  -


 With contributions from (in alphabetic order):
   Daniel Aravena         : Magnetic Suceptibility
   Michael Atanasov       : Ab Initio Ligand Field Theory (pilot matlab implementation)
   Alexander A. Auer      : GIAO ZORA, VPT2 properties, NMR spectrum
   Ute Becker             : Parallelization
   Giovanni Bistoni       : ED, misc. LED, open-shell LED, HFLD
   Martin Brehm           : Molecular dynamics
   Dmytro Bykov           : SCF Hessian
   Vijay G. Chilkuri      : MRCI spin determinant printing, contributions to CSF-ICE
   Dipayan Datta          : RHF DLPNO-CCSD density
   Achintya Kumar Dutta   : EOM-CC, STEOM-CC
   Dmitry Ganyushin       : Spin-Orbit,Spin-Spin,Magnetic field MRCI
   Miquel Garcia          : C-PCM and meta-GGA Hessian, CC/C-PCM, Gaussian charge scheme
   Yang Guo               : DLPNO-NEVPT2, F12-NEVPT2, CIM, IAO-localization
   Andreas Hansen         : Spin unrestricted coupled pair/coupled cluster methods
   Benjamin Helmich-Paris : MC-RPA, TRAH-SCF, COSX integrals
   Lee Huntington         : MR-EOM, pCC
   Robert Izsak           : Overlap fitted RIJCOSX, COSX-SCS-MP3, EOM
   Marcus Kettner         : VPT2
   Christian Kollmar      : KDIIS, OOCD, Brueckner-CCSD(T), CCSD density, CASPT2, CASPT2-K
   Simone Kossmann        : Meta GGA functionals, TD-DFT gradient, OOMP2, MP2 Hessian
   Martin Krupicka        : Initial AUTO-CI
   Lucas Lang             : DCDCAS
   Marvin Lechner         : AUTO-CI (C++ implementation), FIC-MRCC
   Dagmar Lenk            : GEPOL surface, SMD
   Dimitrios Liakos       : Extrapolation schemes; Compound Job, initial MDCI parallelization
   Dimitrios Manganas     : Further ROCIS development; embedding schemes
   Dimitrios Pantazis     : SARC Basis sets
   Anastasios Papadopoulos: AUTO-CI, single reference methods and gradients
   Taras Petrenko         : DFT Hessian,TD-DFT gradient, ASA, ECA, R-Raman, ABS, FL, XAS/XES, NRVS
   Peter Pinski           : DLPNO-MP2, DLPNO-MP2 Gradient
   Christoph Reimann      : Effective Core Potentials
   Marius Retegan         : Local ZFS, SOC
   Christoph Riplinger    : Optimizer, TS searches, QM/MM, DLPNO-CCSD(T), (RO)-DLPNO pert. Triples
   Tobias Risthaus        : Range-separated hybrids, TD-DFT gradient, RPA, STAB
   Michael Roemelt        : Original ROCIS implementation
   Masaaki Saitow         : Open-shell DLPNO-CCSD energy and density
   Barbara Sandhoefer     : DKH picture change effects
   Avijit Sen             : IP-ROCIS
   Kantharuban Sivalingam : CASSCF convergence, NEVPT2, FIC-MRCI
   Bernardo de Souza      : ESD, SOC TD-DFT
   Georgi Stoychev        : AutoAux, RI-MP2 NMR, DLPNO-MP2 response
   Willem Van den Heuvel  : Paramagnetic NMR
   Boris Wezisla          : Elementary symmetry handling
   Frank Wennmohs         : Technical directorship


 We gratefully acknowledge several colleagues who have allowed us to
 interface, adapt or use parts of their codes:
   Stefan Grimme, W. Hujo, H. Kruse, P. Pracht,  : VdW corrections, initial TS optimization,
                  C. Bannwarth, S. Ehlert          DFT functionals, gCP, sTDA/sTD-DF
   Ed Valeev, F. Pavosevic, A. Kumar             : LibInt (2-el integral package), F12 methods
   Garnet Chan, S. Sharma, J. Yang, R. Olivares  : DMRG
   Ulf Ekstrom                                   : XCFun DFT Library
   Mihaly Kallay                                 : mrcc  (arbitrary order and MRCC methods)
   Jiri Pittner, Ondrej Demel                    : Mk-CCSD
   Frank Weinhold                                : gennbo (NPA and NBO analysis)
   Christopher J. Cramer and Donald G. Truhlar   : smd solvation model
   Lars Goerigk                                  : TD-DFT with DH, B97 family of functionals
   V. Asgeirsson, H. Jonsson                     : NEB implementation
   FAccTs GmbH                                   : IRC, NEB, NEB-TS, DLPNO-Multilevel, CI-OPT
                                                   MM, QMMM, 2- and 3-layer-ONIOM, Crystal-QMMM,
                                                   LR-CPCM, SF, NACMEs, symmetry and pop. for TD-DFT,
                                                   nearIR, NL-DFT gradient (VV10), updates on ESD,
                                                   ML-optimized integration grids
   S Lehtola, MJT Oliveira, MAL Marques          : LibXC Library
   Liviu Ungur et al                             : ANISO software


 Your calculation uses the libint2 library for the computation of 2-el integrals
 For citations please refer to: http://libint.valeyev.net

 Your ORCA version has been built with support for libXC version: 5.1.0
 For citations please refer to: https://tddft.org/programs/libxc/

 This ORCA versions uses:
   CBLAS   interface :  Fast vector & matrix operations
   LAPACKE interface :  Fast linear algebra routines
   SCALAPACK package :  Parallel linear algebra routines
   Shared memory     :  Shared parallel matrices
   BLAS/LAPACK       :  OpenBLAS 0.3.15  USE64BITINT DYNAMIC_ARCH NO_AFFINITY Sandybridge SINGLE_THREADED
        Core in use  :  Sandybridge
   Copyright (c) 2011-2014, The OpenBLAS Project


================================================================================

----- Orbital basis set information -----
Your calculation utilizes the basis: cc-pVDZ 
       H, B-Ne : Obtained from the ccRepo (grant-hill.group.shef.ac.uk/ccrepo) Feb. 2017
                 T. H. Dunning, Jr., J. Chem. Phys. 90, 1007 (1989)
            He : Obtained from the ccRepo (grant-hill.group.shef.ac.uk/ccrepo) Feb. 2017
                 D. E. Woon, T. H. Dunning, Jr., J. Chem. Phys. 100, 2975 (1994)
  Li-Be, Na-Mg : Obtained from the ccRepo (grant-hill.group.shef.ac.uk/ccrepo) Feb. 2017
                 B. P. Prascher, D. E. Woon, K. A. Peterson, T. H. Dunning, Jr., A. K. Wilson, Theor. Chem. Acc. 128, 69 (2011)
         Al-Ar : Obtained from the ccRepo (grant-hill.group.shef.ac.uk/ccrepo) Feb. 2017
                 D. E. Woon, T. H. Dunning, Jr., J. Chem. Phys. 98, 1358 (1993)
            Ca : Obtained from the Peterson Research Group Website (tyr0.chem.wsu.edu/~kipeters) Feb. 2017
                 J. Koput, K. A. Peterson, J. Phys. Chem. 106, 9595 (2002)
         Sc-Zn : Obtained from the ccRepo (grant-hill.group.shef.ac.uk/ccrepo) Feb. 2017
                 N. B. Balabanov, K. A. Peterson, J. Chem. Phys. 123, 064107 (2005)
                 N. B. Balabanov, K. A. Peterson, J. Chem. Phys. 125, 074110 (2006)
         Ga-Kr : Obtained from the ccRepo (grant-hill.group.shef.ac.uk/ccrepo) Feb. 2017
                 A. K. Wilson, D. E. Woon, K. A. Peterson, T. H. Dunning, Jr., J. Chem. Phys. 110, 7667 (1999)

================================================================================
                                        WARNINGS
                       Please study these warnings very carefully!
================================================================================


WARNING: No MP2 level density has been requested!
         To caclulate MP2 level properties use
         %mp2 Density relaxed end
         or
         %mp2 Density unrelaxed end

WARNING: Post HF methods need fully converged wavefunctions
  ===> : Setting SCFConvForced true
         You can overwrite this default with %scf ConvForced false 


INFO   : the flag for use of the SHARK integral package has been found!

================================================================================
                                       INPUT FILE
================================================================================
NAME = /scratch/allen/tmpyp4_amber_gaff2/2.Mdgx/conf11/conf11/Conf123.orca
|  1> ! PAL2
|  2> ! mp2 cc-pvdz TightSCF  NoKeepInts
|  3> 
|  4> %scf
|  5>   MaxCore 2000
|  6> end
|  7> %mp2
|  8>   MaxCore 2000
|  9> end
| 10> * xyz 0 1
| 11>    C       -4.48600         5.52300        -0.92300
| 12>    C        1.47400         4.04100         0.05700
| 13>    C       -2.80200         4.09300         0.04900
| 14>    C       -2.68900         5.02200         1.09500
| 15>    C       -3.47200         6.15900         1.09900
| 16>    C       -5.20400         7.60800         0.15300
| 17>    C        0.13200         4.30700         0.06100
| 18>    C       -0.56900         3.05600         0.04700
| 19>    C        1.64900         2.61800         0.02300
| 20>    C       -3.72800         4.36900        -0.96900
| 21>    N       -4.35200         6.39900         0.09900
| 22>    N        0.38800         2.06700         0.02500
| 23>    N       -2.01000         0.39500        -0.07500
| 24>    N       -0.38800        -2.07400        -0.02700
| 25>    N        2.01000        -0.40100         0.06500
| 26>    C       -1.96000         2.86100         0.02400
| 27>    C       -2.62300         1.61500        -0.01800
| 28>    C       -5.57300        -4.32900         1.06600
| 29>    C       -4.07300         1.47100         0.05600
| 30>    C       -4.10600        -2.75600        -0.02600
| 31>    C       -4.99500        -2.75700        -1.11100
| 32>    C       -6.13200        -3.54200        -1.07600
| 33>    C       -7.65100        -5.11300         0.04000
| 34>    C       -4.32400         0.14100         0.03700
| 35>    C       -3.02500        -0.52000        -0.04800
| 36>    C       -4.42200        -3.56600         1.07500
| 37>    N       -6.40700        -4.31300         0.00100
| 38>    C       -2.86700        -1.92200        -0.04000
| 39>    C       -1.65000        -2.62400        -0.02700
| 40>    C        3.56800        -6.14200        -1.04000
| 41>    C       -1.47600        -4.04900        -0.03400
| 42>    C        2.80300        -4.09900        -0.00800
| 43>    C        3.65700        -4.38400         1.06900
| 44>    C        4.42700        -5.53000         1.05900
| 45>    C        5.24500        -7.58800         0.01400
| 46>    C       -0.13400        -4.31500        -0.02200
| 47>    C        0.56800        -3.06400        -0.02700
| 48>    C        2.77500        -5.01200        -1.07400
| 49>    N        4.37600        -6.39100         0.01700
| 50>    C        1.95900        -2.86900        -0.00900
| 51>    C        2.62100        -1.62200         0.00900
| 52>    C        5.54300         4.33900        -1.13000
| 53>    C        4.07000        -1.47900        -0.09400
| 54>    C        4.10400         2.75100        -0.02100
| 55>    C        5.02700         2.72900         1.03600
| 56>    C        6.16600         3.50900         0.97800
| 57>    C        7.61900         5.15300        -0.11500
| 58>    C        4.32100        -0.14800        -0.09200
| 59>    C        3.02500         0.51400         0.01500
| 60>    C        4.38700         3.58200        -1.11500
| 61>    C        2.86600         1.91600         0.01300
| 62>    N        6.41300         4.29600        -0.09500
| 63>    H       -5.20300         5.78200        -1.69200
| 64>    H        2.27400         4.76600         0.08100
| 65>    H       -1.99900         4.86100         1.91400
| 66>    H       -3.42700         6.90000         1.88800
| 67>    H       -6.09600         7.38800         0.74400
| 68>    H       -4.63700         8.41600         0.61400
| 69>    H       -5.48600         7.88300        -0.86300
| 70>    H       -0.33200         5.28200         0.06900
| 71>    H       -3.85200         3.69700        -1.81000
| 72>    H        0.18200         1.07200         0.00500
| 73>    H       -0.18300        -1.08000        -0.02100
| 74>    H       -5.86400        -4.96200         1.89500
| 75>    H       -4.79400         2.27200         0.13900
| 76>    H       -4.80000        -2.16000        -1.99400
| 77>    H       -6.84100        -3.58200        -1.89300
| 78>    H       -8.42800        -4.53600         0.54600
| 79>    H       -7.95600        -5.33700        -0.98100
| 80>    H       -7.45600        -6.03700         0.58400
| 81>    H       -5.28700        -0.34400         0.10000
| 82>    H       -3.78000        -3.60100         1.94700
| 83>    H        3.58700        -6.86800        -1.84300
| 84>    H       -2.27600        -4.77400        -0.05000
| 85>    H        3.71400        -3.72400         1.92600
| 86>    H        5.09200        -5.79500         1.87100
| 87>    H        6.20500        -7.32900        -0.43900
| 88>    H        5.39300        -7.91700         1.04200
| 89>    H        4.75900        -8.37300        -0.56400
| 90>    H        0.32900        -5.29000        -0.00800
| 91>    H        2.14600        -4.84200        -1.94000
| 92>    H        5.80800         4.98600        -1.95600
| 93>    H        4.78800        -2.28100        -0.18500
| 94>    H        4.86000         2.11400         1.91200
| 95>    H        6.90100         3.53100         1.77200
| 96>    H        7.38300         6.10900         0.35600
| 97>    H        8.41400         4.65200         0.43500
| 98>    H        7.92100         5.31000        -1.15000
| 99>    H        5.28300         0.33600        -0.17900
|100>    H        3.72000         3.63200        -1.96700
|101> *
|102> 
|103>                          ****END OF INPUT****
================================================================================

                       ****************************
                       * Single Point Calculation *
                       ****************************

---------------------------------
CARTESIAN COORDINATES (ANGSTROEM)
---------------------------------
  C     -4.486000    5.523000   -0.923000
  C      1.474000    4.041000    0.057000
  C     -2.802000    4.093000    0.049000
  C     -2.689000    5.022000    1.095000
  C     -3.472000    6.159000    1.099000
  C     -5.204000    7.608000    0.153000
  C      0.132000    4.307000    0.061000
  C     -0.569000    3.056000    0.047000
  C      1.649000    2.618000    0.023000
  C     -3.728000    4.369000   -0.969000
  N     -4.352000    6.399000    0.099000
  N      0.388000    2.067000    0.025000
  N     -2.010000    0.395000   -0.075000
  N     -0.388000   -2.074000   -0.027000
  N      2.010000   -0.401000    0.065000
  C     -1.960000    2.861000    0.024000
  C     -2.623000    1.615000   -0.018000
  C     -5.573000   -4.329000    1.066000
  C     -4.073000    1.471000    0.056000
  C     -4.106000   -2.756000   -0.026000
  C     -4.995000   -2.757000   -1.111000
  C     -6.132000   -3.542000   -1.076000
  C     -7.651000   -5.113000    0.040000
  C     -4.324000    0.141000    0.037000
  C     -3.025000   -0.520000   -0.048000
  C     -4.422000   -3.566000    1.075000
  N     -6.407000   -4.313000    0.001000
  C     -2.867000   -1.922000   -0.040000
  C     -1.650000   -2.624000   -0.027000
  C      3.568000   -6.142000   -1.040000
  C     -1.476000   -4.049000   -0.034000
  C      2.803000   -4.099000   -0.008000
  C      3.657000   -4.384000    1.069000
  C      4.427000   -5.530000    1.059000
  C      5.245000   -7.588000    0.014000
  C     -0.134000   -4.315000   -0.022000
  C      0.568000   -3.064000   -0.027000
  C      2.775000   -5.012000   -1.074000
  N      4.376000   -6.391000    0.017000
  C      1.959000   -2.869000   -0.009000
  C      2.621000   -1.622000    0.009000
  C      5.543000    4.339000   -1.130000
  C      4.070000   -1.479000   -0.094000
  C      4.104000    2.751000   -0.021000
  C      5.027000    2.729000    1.036000
  C      6.166000    3.509000    0.978000
  C      7.619000    5.153000   -0.115000
  C      4.321000   -0.148000   -0.092000
  C      3.025000    0.514000    0.015000
  C      4.387000    3.582000   -1.115000
  C      2.866000    1.916000    0.013000
  N      6.413000    4.296000   -0.095000
  H     -5.203000    5.782000   -1.692000
  H      2.274000    4.766000    0.081000
  H     -1.999000    4.861000    1.914000
  H     -3.427000    6.900000    1.888000
  H     -6.096000    7.388000    0.744000
  H     -4.637000    8.416000    0.614000
  H     -5.486000    7.883000   -0.863000
  H     -0.332000    5.282000    0.069000
  H     -3.852000    3.697000   -1.810000
  H      0.182000    1.072000    0.005000
  H     -0.183000   -1.080000   -0.021000
  H     -5.864000   -4.962000    1.895000
  H     -4.794000    2.272000    0.139000
  H     -4.800000   -2.160000   -1.994000
  H     -6.841000   -3.582000   -1.893000
  H     -8.428000   -4.536000    0.546000
  H     -7.956000   -5.337000   -0.981000
  H     -7.456000   -6.037000    0.584000
  H     -5.287000   -0.344000    0.100000
  H     -3.780000   -3.601000    1.947000
  H      3.587000   -6.868000   -1.843000
  H     -2.276000   -4.774000   -0.050000
  H      3.714000   -3.724000    1.926000
  H      5.092000   -5.795000    1.871000
  H      6.205000   -7.329000   -0.439000
  H      5.393000   -7.917000    1.042000
  H      4.759000   -8.373000   -0.564000
  H      0.329000   -5.290000   -0.008000
  H      2.146000   -4.842000   -1.940000
  H      5.808000    4.986000   -1.956000
  H      4.788000   -2.281000   -0.185000
  H      4.860000    2.114000    1.912000
  H      6.901000    3.531000    1.772000
  H      7.383000    6.109000    0.356000
  H      8.414000    4.652000    0.435000
  H      7.921000    5.310000   -1.150000
  H      5.283000    0.336000   -0.179000
  H      3.720000    3.632000   -1.967000

----------------------------
CARTESIAN COORDINATES (A.U.)
----------------------------
  NO LB      ZA    FRAG     MASS         X           Y           Z
   0 C     6.0000    0    12.011   -8.477311   10.436957   -1.744217
   1 C     6.0000    0    12.011    2.785456    7.636383    0.107714
   2 C     6.0000    0    12.011   -5.295013    7.734649    0.092597
   3 C     6.0000    0    12.011   -5.081474    9.490205    2.069250
   4 C     6.0000    0    12.011   -6.561129   11.638823    2.076809
   5 C     6.0000    0    12.011   -9.834135   14.377036    0.289128
   6 C     6.0000    0    12.011    0.249444    8.139050    0.115273
   7 C     6.0000    0    12.011   -1.075254    5.775003    0.088817
   8 C     6.0000    0    12.011    3.116158    4.947303    0.043464
   9 C     6.0000    0    12.011   -7.044899    8.256213   -1.831145
  10 N     7.0000    0    14.007   -8.224088   12.092358    0.187083
  11 N     7.0000    0    14.007    0.733214    3.906064    0.047243
  12 N     7.0000    0    14.007   -3.798350    0.746442   -0.141729
  13 N     7.0000    0    14.007   -0.733214   -3.919292   -0.051023
  14 N     7.0000    0    14.007    3.798350   -0.757780    0.122832
  15 C     6.0000    0    12.011   -3.703863    5.406506    0.045353
  16 C     6.0000    0    12.011   -4.956752    3.051908   -0.034015
  17 C     6.0000    0    12.011  -10.531444   -8.180624    2.014448
  18 C     6.0000    0    12.011   -7.696855    2.779787    0.105825
  19 C     6.0000    0    12.011   -7.759216   -5.208085   -0.049133
  20 C     6.0000    0    12.011   -9.439182   -5.209975   -2.099486
  21 C     6.0000    0    12.011  -11.587801   -6.693410   -2.033345
  22 C     6.0000    0    12.011  -14.458295   -9.662170    0.075589
  23 C     6.0000    0    12.011   -8.171176    0.266451    0.069920
  24 C     6.0000    0    12.011   -5.716422   -0.982658   -0.090707
  25 C     6.0000    0    12.011   -8.356369   -6.738763    2.031456
  26 N     7.0000    0    14.007  -12.107475   -8.150389    0.001890
  27 C     6.0000    0    12.011   -5.417845   -3.632054   -0.075589
  28 C     6.0000    0    12.011   -3.118048   -4.958641   -0.051023
  29 C     6.0000    0    12.011    6.742543  -11.606698   -1.965315
  30 C     6.0000    0    12.011   -2.789236   -7.651501   -0.064251
  31 C     6.0000    0    12.011    5.296902   -7.745987   -0.015118
  32 C     6.0000    0    12.011    6.910728   -8.284559    2.020117
  33 C     6.0000    0    12.011    8.365818  -10.450186    2.001220
  34 C     6.0000    0    12.011    9.911614  -14.339242    0.026456
  35 C     6.0000    0    12.011   -0.253223   -8.154168   -0.041574
  36 C     6.0000    0    12.011    1.073364   -5.790121   -0.051023
  37 C     6.0000    0    12.011    5.243990   -9.471307   -2.029566
  38 N     7.0000    0    14.007    8.269442  -12.077240    0.032125
  39 C     6.0000    0    12.011    3.701973   -5.421624   -0.017008
  40 C     6.0000    0    12.011    4.952972   -3.065136    0.017008
  41 C     6.0000    0    12.011   10.474752    8.199522   -2.135391
  42 C     6.0000    0    12.011    7.691185   -2.794905   -0.177634
  43 C     6.0000    0    12.011    7.755436    5.198637   -0.039684
  44 C     6.0000    0    12.011    9.499653    5.157063    1.957756
  45 C     6.0000    0    12.011   11.652051    6.631049    1.848152
  46 C     6.0000    0    12.011   14.397823    9.737759   -0.217319
  47 C     6.0000    0    12.011    8.165507   -0.279679   -0.173855
  48 C     6.0000    0    12.011    5.716422    0.971319    0.028346
  49 C     6.0000    0    12.011    8.290229    6.768999   -2.107045
  50 C     6.0000    0    12.011    5.415955    3.620715    0.024566
  51 N     7.0000    0    14.007   12.118814    8.118263   -0.179524
  52 H     1.0000    0     1.008   -9.832245   10.926397   -3.197417
  53 H     1.0000    0     1.008    4.297237    9.006435    0.153068
  54 H     1.0000    0     1.008   -3.777563    9.185959    3.616936
  55 H     1.0000    0     1.008   -6.476091   13.039110    3.567803
  56 H     1.0000    0     1.008  -11.519771   13.961297    1.405956
  57 H     1.0000    0     1.008   -8.762660   15.903935    1.160292
  58 H     1.0000    0     1.008  -10.367038   14.896711   -1.630834
  59 H     1.0000    0     1.008   -0.627389    9.981533    0.130391
  60 H     1.0000    0     1.008   -7.279225    6.986318   -3.420404
  61 H     1.0000    0     1.008    0.343930    2.025786    0.009449
  62 H     1.0000    0     1.008   -0.345820   -2.040904   -0.039684
  63 H     1.0000    0     1.008  -11.081354   -9.376821    3.581031
  64 H     1.0000    0     1.008   -9.059347    4.293458    0.262672
  65 H     1.0000    0     1.008   -9.070685   -4.081808   -3.768114
  66 H     1.0000    0     1.008  -12.927616   -6.768999   -3.577252
  67 H     1.0000    0     1.008  -15.926612   -8.571798    1.031790
  68 H     1.0000    0     1.008  -15.034661  -10.085468   -1.853821
  69 H     1.0000    0     1.008  -14.089798  -11.408277    1.103600
  70 H     1.0000    0     1.008   -9.990982   -0.650066    0.188973
  71 H     1.0000    0     1.008   -7.143165   -6.804904    3.679297
  72 H     1.0000    0     1.008    6.778448  -12.978639   -3.482765
  73 H     1.0000    0     1.008   -4.301017   -9.021553   -0.094486
  74 H     1.0000    0     1.008    7.018443   -7.037340    3.639613
  75 H     1.0000    0     1.008    9.622485  -10.950963    3.535678
  76 H     1.0000    0     1.008   11.725751  -13.849803   -0.829590
  77 H     1.0000    0     1.008   10.191293  -14.960962    1.969095
  78 H     1.0000    0     1.008    8.993207  -15.822677   -1.065806
  79 H     1.0000    0     1.008    0.621720   -9.996651   -0.015118
  80 H     1.0000    0     1.008    4.055352   -9.150054   -3.666069
  81 H     1.0000    0     1.008   10.975529    9.422175   -3.696304
  82 H     1.0000    0     1.008    9.048009   -4.310465   -0.349599
  83 H     1.0000    0     1.008    9.184069    3.994881    3.613156
  84 H     1.0000    0     1.008   13.041000    6.672623    3.348595
  85 H     1.0000    0     1.008   13.951848   11.544337    0.672743
  86 H     1.0000    0     1.008   15.900156    8.791006    0.822031
  87 H     1.0000    0     1.008   14.968521   10.034446   -2.173185
  88 H     1.0000    0     1.008    9.983423    0.634948   -0.338261
  89 H     1.0000    0     1.008    7.029781    6.863485   -3.717091

--------------------------------
INTERNAL COORDINATES (ANGSTROEM)
--------------------------------
 C      0   0   0     0.000000000000     0.00000000     0.00000000
 C      1   0   0     6.219189979411     0.00000000     0.00000000
 C      1   2   0     2.413615545194    29.15882557     0.00000000
 C      3   1   2     1.403540523106    87.94516282    81.95126962
 C      4   3   1     1.380533954671   120.10796633     0.10257659
 C      5   4   3     2.448334331745   152.56544306     1.70785801
 C      2   1   3     1.368114030335     9.63206794   320.11359554
 C      7   2   3     1.434084376876   108.05010202     0.84668783
 C      2   1   3     1.434123425651   110.46596093    38.32147291
 C      1   2   3     1.381447067390    43.97471454   314.21089045
 N      1   2   3     1.352706915780    86.57926710    97.37243959
 N      9   2   1     1.376127174356   106.58526707   349.30804920
 N     12   9   2     2.925062050624   168.53581413   171.12065651
 N     13  12   9     2.954513327098    91.55032014    11.12112580
 N     14  13  12     2.925371258490    88.43092389   359.84326247
 C      8   7   2     1.404790019896   127.24786865   181.11170171
 C     13  12   9     1.366535034311    81.72106996   188.00453233
 C     14  13  12     5.758810554272    80.56209567   166.76250791
 C     17  13  12     1.459010623676   111.08861209   183.82872609
 C     18  14  13     2.412235892279    27.27532823    36.33507194
 C     20  18  14     1.402692767501    87.95206320   148.94598259
 C     21  20  18     1.382106725257   120.14573887   359.70382047
 C     18  14  13     2.446510985056   144.15733107    82.80075377
 C     19  17  13     1.353610726908   106.29293361   359.75308708
 C     13  12   9     1.366813447402   172.21332906    33.46711076
 C     18  14  13     1.380960173213    15.08449437   309.23336894
 N     22  21  20     1.352773077792   120.73759875     0.27865223
 C     25  13  17     1.410897586645   125.60330303   182.37774668
 C     14  13  12     1.376642291955    80.24689249   177.85461986
 C     14  13  12     5.764089607215   164.51507311   312.20821879
 C     29  14  13     1.435600919476   106.58649366   178.76395472
 C     30  14  13     2.413316804732    27.10625047    82.12560436
 C     32  30  14     1.403734305344    87.90059683   149.76154742
 C     33  32  30     1.380694028378   120.14881443   359.74174632
 C     34  33  32     2.448777858443   152.49203239     2.45173620
 C     31  29  14     1.368160809262   108.16950133     0.70383075
 C     14  13  12     1.376239804685   169.26375223   353.09862627
 C     30  14  13     1.380907310430    14.68948582   353.70041132
 N     34  33  32     1.352658863128   120.85575621     0.19603406
 C     37  14  29     1.404717053360   126.01551127   180.90772073
 C     15  14  13     1.366491126938    81.61824056   183.09049352
 C      2   1   3     4.249062720177   148.97926822   158.91879008
 C     41  15  14     1.459677704153   111.05201287   175.08990246
 C     42   2   1     2.412953791518    41.78584867   210.21858111
 C     44  42   2     1.403446472082    87.95153797   233.97558675
 C     45  44  42     1.381696421071   120.11137308     0.19721020
 C     42   2   1     2.450019795838   135.97209175   120.53343021
 C     43  41  15     1.354461516618   106.26758155     0.30894352
 C     15  14  13     1.367461151185   171.87382904   332.35056460
 C     42   2   1     1.381886391857    32.59078432   259.07386030
 C      9   2   1     1.404988612053   126.98745415   170.31238673
 N     42   2   1     1.352765315936   113.57249190   148.27001941
 H      1   2   3     1.082834705761   143.46169467   229.58620391
 H      2   1   3     1.079907866440   123.60418039   208.90330821
 H      4   3   1     1.082950599058   121.09834443   179.55508538
 H      5   4   3     1.083340666642   122.81209629   179.44748868
 H      6   5   4     1.092403313799   104.44290841    99.99786482
 H      6   5   4     1.089437469523    84.67891699   209.52400023
 H      6   5   4     1.089681146024   133.84356597   322.28371815
 H      7   2  54     1.079807853278   126.66122480     1.30600390
 H     10   1   2     1.083624012285   118.75683768   225.00310128
 H     12   9   2     1.016297692608   125.29023241   180.00180175
 H     14  13  12     1.014936943854    44.97226959   359.42596618
 H     18  14  13     1.082871645210   128.03556573   234.20482432
 H     19  17  13     1.080893611786   126.41830519   178.11313280
 H     21  20  18     1.083569563987   121.05669627   180.67006309
 H     22  21  20     1.082483256222   122.73097286   180.59748951
 H     23  18  14     1.092105306278   103.92715769   234.93429879
 H     23  18  14     1.088871893291   134.19244188    12.25587044
 H     23  18  14     1.089833473518    84.85857450   125.45241208
 H     24  19  17     1.080075460327   127.28078426   178.44613241
 H     26  18  14     1.083408048706   118.76995697   244.94906660
 H     30  14  13     1.082703098730   127.99711412   279.66882698
 H     31  29  14     1.079759695488   125.22293469   180.92530585
 H     33  32  30     1.083188810873   121.01964473   180.74284758
 H     34  33  32     1.082494341787   122.70821597   180.59516895
 H     35  34  33     1.092652735319   105.73575241    97.19771933
 H     35  34  33     1.089462711615    84.05943581   206.43036958
 H     35  34  33     1.089268102902   133.08365142   318.50306270
 H     36  31  29     1.079439669458   126.61599965   178.98859863
 H     38  30  73     1.083742127999   118.77264435   359.90091293
 H     42   2   1     1.082178358682   119.31790784     4.90154986
 H     43  41  15     1.080281907652   126.36969097   182.06329380
 H     45  44  42     1.083277434455   121.10105945   179.58025624
 H     46  45  44     1.082194529648   122.72144639   179.46906377
 H     47  42   2     1.091546151109   106.65128841   315.16475048
 H     47  42   2     1.088818625851   132.46019523    94.52397119
 H     47  42   2     1.089531091801    83.63838232   206.04504406
 H     48  43  41     1.080402239909   127.23657387   181.62955349
 H     50  42   2     1.083186502870   118.77001737    94.71359229

---------------------------
INTERNAL COORDINATES (A.U.)
---------------------------
 C      0   0   0     0.000000000000     0.00000000     0.00000000
 C      1   0   0    11.752565835913     0.00000000     0.00000000
 C      1   2   0     4.561072372991    29.15882557     0.00000000
 C      3   1   2     2.652307206530    87.94516282    81.95126962
 C      4   3   1     2.608831092908   120.10796633     0.10257659
 C      5   4   3     4.626681371275   152.56544306     1.70785801
 C      2   1   3     2.585360837309     9.63206794   320.11359554
 C      7   2   3     2.710026725231   108.05010202     0.84668783
 C      2   1   3     2.710100516721   110.46596093    38.32147291
 C      1   2   3     2.610556625875    43.97471454   314.21089045
 N      1   2   3     2.556245610286    86.57926710    97.37243959
 N      9   2   1     2.600503484979   106.58526707   349.30804920
 N     12   9   2     5.527566200405   168.53581413   171.12065651
 N     13  12   9     5.583221047236    91.55032014    11.12112580
 N     14  13  12     5.528150518591    88.43092389   359.84326247
 C      8   7   2     2.654668413270   127.24786865   181.11170171
 C     13  12   9     2.582376967257    81.72106996   188.00453233
 C     14  13  12    10.882574804710    80.56209567   166.76250791
 C     17  13  12     2.757130505230   111.08861209   183.82872609
 C     18  14  13     4.558465206823    27.27532823    36.33507194
 C     20  18  14     2.650705180609    87.95206320   148.94598259
 C     21  20  18     2.611803198586   120.14573887   359.70382047
 C     18  14  13     4.623235745386   144.15733107    82.80075377
 C     19  17  13     2.557953565794   106.29293361   359.75308708
 C     13  12   9     2.582903091751   172.21332906    33.46711076
 C     18  14  13     2.609636529225    15.08449437   309.23336894
 N     22  21  20     2.556370638369   120.73759875     0.27865223
 C     25  13  17     2.666210041769   125.60330303   182.37774668
 C     14  13  12     2.601476916169    80.24689249   177.85461986
 C     14  13  12    10.892550769017   164.51507311   312.20821879
 C     29  14  13     2.712892575415   106.58649366   178.76395472
 C     30  14  13     4.560507835333    27.10625047    82.12560436
 C     32  30  14     2.652673401891    87.90059683   149.76154742
 C     33  32  30     2.609133588376   120.14881443   359.74174632
 C     34  33  32     4.627519515267   152.49203239     2.45173620
 C     31  29  14     2.585449236669   108.16950133     0.70383075
 C     14  13  12     2.600716325456   169.26375223   353.09862627
 C     30  14  13     2.609536633043    14.68948582   353.70041132
 N     34  33  32     2.556154803934   120.85575621     0.19603406
 C     37  14  29     2.654530526499   126.01551127   180.90772073
 C     15  14  13     2.582293994346    81.61824056   183.09049352
 C      2   1   3     8.029564866989   148.97926822   158.91879008
 C     41  15  14     2.758391104639   111.05201287   175.08990246
 C     42   2   1     4.559821839776    41.78584867   210.21858111
 C     44  42   2     2.652129475853    87.95153797   233.97558675
 C     45  44  42     2.611027836043   120.11137308     0.19721020
 C     42   2   1     4.629866436820   135.97209175   120.53343021
 C     43  41  15     2.559561325344   106.26758155     0.30894352
 C     15  14  13     2.584127074516   171.87382904   332.35056460
 C     42   2   1     2.611386828803    32.59078432   259.07386030
 C      9   2   1     2.655043698059   126.98745415   170.31238673
 N     42   2   1     2.556355970587   113.57249190   148.27001941
 H      1   2   3     2.046261042193   143.46169467   229.58620391
 H      2   1   3     2.040730117440   123.60418039   208.90330821
 H      4   3   1     2.046480048786   121.09834443   179.55508538
 H      5   4   3     2.047217169693   122.81209629   179.44748868
 H      6   5   4     2.064343090869   104.44290841    99.99786482
 H      6   5   4     2.058738457430    84.67891699   209.52400023
 H      6   5   4     2.059198939283   133.84356597   322.28371815
 H      7   2  54     2.040541119952   126.66122480     1.30600390
 H     10   1   2     2.047752615359   118.75683768   225.00310128
 H     12   9   2     1.920524309565   125.29023241   180.00180175
 H     14  13  12     1.917952867083    44.97226959   359.42596618
 H     18  14  13     2.046330847636   128.03556573   234.20482432
 H     19  17  13     2.042592906181   126.41830519   178.11313280
 H     21  20  18     2.047649722989   121.05669627   180.67006309
 H     22  21  20     2.045596898814   122.73097286   180.59748951
 H     23  18  14     2.063779938267   103.92715769   234.93429879
 H     23  18  14     2.057669673245   134.19244188    12.25587044
 H     23  18  14     2.059486796529    84.85857450   125.45241208
 H     24  19  17     2.041046823986   127.28078426   178.44613241
 H     26  18  14     2.047344503340   118.76995697   244.94906660
 H     30  14  13     2.046012340948   127.99711412   279.66882698
 H     31  29  14     2.040450114918   125.22293469   180.92530585
 H     33  32  30     2.046930203877   121.01964473   180.74284758
 H     34  33  32     2.045617847496   122.70821597   180.59516895
 H     35  34  33     2.064814429233   105.73575241    97.19771933
 H     35  34  33     2.058786158072    84.05943581   206.43036958
 H     35  34  33     2.058418400901   133.08365142   318.50306270
 H     36  31  29     2.039845353366   126.61599965   178.98859863
 H     38  30  73     2.047975821711   118.77264435   359.90091293
 H     42   2   1     2.045020725966   119.31790784     4.90154986
 H     43  41  15     2.041436952892   126.36969097   182.06329380
 H     45  44  42     2.047097678177   121.10105945   179.58025624
 H     46  45  44     2.045051284662   122.72144639   179.46906377
 H     47  42   2     2.062723288131   106.65128841   315.16475048
 H     47  42   2     2.057569012371   132.46019523    94.52397119
 H     47  42   2     2.058915377895    83.63838232   206.04504406
 H     48  43  41     2.041664347903   127.23657387   181.62955349
 H     50  42   2     2.046925842384   118.77001737    94.71359229

---------------------
BASIS SET INFORMATION
---------------------
There are 3 groups of distinct atoms

 Group   1 Type C   : 17s4p1d contracted to 3s2p1d pattern {881/31/1}
 Group   2 Type N   : 17s4p1d contracted to 3s2p1d pattern {881/31/1}
 Group   3 Type H   : 4s1p contracted to 2s1p pattern {31/1}

Atom   0C    basis set group =>   1
Atom   1N    basis set group =>   2
Atom   2C    basis set group =>   1
Atom   3N    basis set group =>   2
Atom   4C    basis set group =>   1
Atom   5N    basis set group =>   2
Atom   6C    basis set group =>   1
Atom   7N    basis set group =>   2
Atom   8C    basis set group =>   1
Atom   9N    basis set group =>   2
Atom  10C    basis set group =>   1
Atom  11N    basis set group =>   2
Atom  12C    basis set group =>   1
Atom  13N    basis set group =>   2
Atom  14C    basis set group =>   1
Atom  15N    basis set group =>   2
Atom  16C    basis set group =>   1
Atom  17C    basis set group =>   1
Atom  18C    basis set group =>   1
Atom  19C    basis set group =>   1
Atom  20C    basis set group =>   1
Atom  21C    basis set group =>   1
Atom  22C    basis set group =>   1
Atom  23C    basis set group =>   1
Atom  24C    basis set group =>   1
Atom  25C    basis set group =>   1
Atom  26C    basis set group =>   1
Atom  27C    basis set group =>   1
Atom  28C    basis set group =>   1
Atom  29C    basis set group =>   1
Atom  30C    basis set group =>   1
Atom  31C    basis set group =>   1
Atom  32C    basis set group =>   1
Atom  33C    basis set group =>   1
Atom  34C    basis set group =>   1
Atom  35C    basis set group =>   1
Atom  36C    basis set group =>   1
Atom  37C    basis set group =>   1
Atom  38C    basis set group =>   1
Atom  39C    basis set group =>   1
Atom  40C    basis set group =>   1
Atom  41C    basis set group =>   1
Atom  42C    basis set group =>   1
Atom  43C    basis set group =>   1
Atom  44C    basis set group =>   1
Atom  45C    basis set group =>   1
Atom  46C    basis set group =>   1
Atom  47C    basis set group =>   1
Atom  48C    basis set group =>   1
Atom  49C    basis set group =>   1
Atom  50C    basis set group =>   1
Atom  51C    basis set group =>   1
Atom  52H    basis set group =>   3
Atom  53H    basis set group =>   3
Atom  54H    basis set group =>   3
Atom  55H    basis set group =>   3
Atom  56H    basis set group =>   3
Atom  57H    basis set group =>   3
Atom  58H    basis set group =>   3
Atom  59H    basis set group =>   3
Atom  60H    basis set group =>   3
Atom  61H    basis set group =>   3
Atom  62H    basis set group =>   3
Atom  63H    basis set group =>   3
Atom  64H    basis set group =>   3
Atom  65H    basis set group =>   3
Atom  66H    basis set group =>   3
Atom  67H    basis set group =>   3
Atom  68H    basis set group =>   3
Atom  69H    basis set group =>   3
Atom  70H    basis set group =>   3
Atom  71H    basis set group =>   3
Atom  72H    basis set group =>   3
Atom  73H    basis set group =>   3
Atom  74H    basis set group =>   3
Atom  75H    basis set group =>   3
Atom  76H    basis set group =>   3
Atom  77H    basis set group =>   3
Atom  78H    basis set group =>   3
Atom  79H    basis set group =>   3
Atom  80H    basis set group =>   3
Atom  81H    basis set group =>   3
Atom  82H    basis set group =>   3
Atom  83H    basis set group =>   3
Atom  84H    basis set group =>   3
Atom  85H    basis set group =>   3
Atom  86H    basis set group =>   3
Atom  87H    basis set group =>   3
Atom  88H    basis set group =>   3
Atom  89H    basis set group =>   3


           ************************************************************
           *        Program running with 16 parallel MPI-processes    *
           *              working on a common directory               *
           ************************************************************
------------------------------------------------------------------------------
                           ORCA GTO INTEGRAL CALCULATION
------------------------------------------------------------------------------
------------------------------------------------------------------------------
                   ___                                                        
                  /   \      - P O W E R E D   B Y -                         
                 /     \                                                     
                 |  |  |   _    _      __       _____    __    __             
                 |  |  |  | |  | |    /  \     |  _  \  |  |  /  |          
                  \  \/   | |  | |   /    \    | | | |  |  | /  /          
                 / \  \   | |__| |  /  /\  \   | |_| |  |  |/  /          
                |  |  |   |  __  | /  /__\  \  |    /   |      \           
                |  |  |   | |  | | |   __   |  |    \   |  |\   \          
                \     /   | |  | | |  |  |  |  | |\  \  |  | \   \       
                 \___/    |_|  |_| |__|  |__|  |_| \__\ |__|  \__/        
                                                                              
                      - O R C A' S   B I G   F R I E N D -                    
                                      &                                       
                       - I N T E G R A L  F E E D E R -                       
                                                                              
 v1 FN, 2020, v2 2021                                                         
------------------------------------------------------------------------------


Reading SHARK input file /scratch/allen/tmpyp4_amber_gaff2/conf1/conf1/Conf123.orca.SHARKINP.tmp ... ok
----------------------
SHARK INTEGRAL PACKAGE
----------------------

Number of atoms                             ...     90
Number of basis functions                   ...   1230
Number of shells                            ...    738
Maximum angular momentum                    ...      2
Integral batch strategy                     ... SHARK/LIBINT Hybrid
RI-J (if used) integral strategy            ... SPLIT-RIJ (Revised 2003 algorithm where possible)
Printlevel                                  ...      1
Contraction scheme used                     ... PARTIAL GENERAL contraction
Coulomb Range Separation                    ... NOT USED
Exchange Range Separation                   ... NOT USED
Finite Nucleus Model                        ... NOT USED
Auxiliary Coulomb fitting basis             ... NOT available
Auxiliary J/K fitting basis                 ... NOT available
Auxiliary Correlation fitting basis         ... NOT available
Auxiliary 'external' fitting basis          ... NOT available
Integral threshold                          ...     2.500000e-11
Primitive cut-off                           ...     2.500000e-12
Primitive pair pre-selection threshold      ...     2.500000e-12

Calculating pre-screening integrals         ... done (  0.1 sec) Dimension = 738
Calculating pre-screening integrals (ORCA)  ... done (  0.3 sec) Dimension = 426
Organizing shell pair data                  ... done (  0.5 sec)
Shell pair information
Total number of shell pairs                 ...    272691
Shell pairs after pre-screening             ...     71583
Total number of primitive shell pairs       ...    422091
Primitive shell pairs kept                  ...     92328
          la=0 lb=0:  29403 shell pairs
          la=1 lb=0:  25955 shell pairs
          la=1 lb=1:   4699 shell pairs
          la=2 lb=0:   7873 shell pairs
          la=2 lb=1:   3122 shell pairs
          la=2 lb=2:    531 shell pairs

Calculating one electron integrals          ... done (  0.2 sec)
Calculating Nuclear repulsion               ... done (  0.0 sec) ENN=   6224.862330815781 Eh

SHARK setup successfully completed in   1.6 seconds

Maximum memory used throughout the entire GTOINT-calculation: 98.9 MB


           ************************************************************
           *        Program running with 16 parallel MPI-processes    *
           *              working on a common directory               *
           ************************************************************
-------------------------------------------------------------------------------
                                 ORCA SCF
-------------------------------------------------------------------------------

------------
SCF SETTINGS
------------
Hamiltonian:
 Ab initio Hamiltonian  Method          .... Hartree-Fock(GTOs)


General Settings:
 Integral files         IntName         .... /scratch/allen/tmpyp4_amber_gaff2/conf1/conf1/Conf123.orca
 Hartree-Fock type      HFTyp           .... RHF
 Total Charge           Charge          ....    0
 Multiplicity           Mult            ....    1
 Number of Electrons    NEL             ....  358
 Basis Dimension        Dim             ....  918
 Nuclear Repulsion      ENuc            ....   6224.8623308158 Eh

Convergence Acceleration:
 DIIS                   CNVDIIS         .... on
   Start iteration      DIISMaxIt       ....    12
   Startup error        DIISStart       ....  0.200000
   # of expansion vecs  DIISMaxEq       ....     5
   Bias factor          DIISBfac        ....   1.050
   Max. coefficient     DIISMaxC        ....  10.000
 Trust-Rad. Augm. Hess. CNVTRAH         .... auto
   Auto Start mean grad. ratio tolernc. ....  1.125000
   Auto Start start iteration           ....    20
   Auto Start num. interpolation iter.  ....    10
   Max. Number of Micro iterations      ....    16
   Max. Number of Macro iterations      .... Maxiter - #DIIS iter
   Number of Davidson start vectors     ....     2
   Converg. threshold I  (grad. norm)   ....   1.000e-05
   Converg. threshold II (energy diff.) ....   1.000e-08
   Grad. Scal. Fac. for Micro threshold ....   0.100
   Minimum threshold for Micro iter.    ....   0.010
   NR start threshold (gradient norm)   ....   0.001
   Initial trust radius                 ....   0.400
   Minimum AH scaling param. (alpha)    ....   1.000
   Maximum AH scaling param. (alpha)    .... 1000.000
   Orbital update algorithm             .... Taylor
   White noise on init. David. guess    .... on
   Maximum white noise                  ....   0.010
   Quad. conv. algorithm                .... NR
 SOSCF                  CNVSOSCF        .... on
   Start iteration      SOSCFMaxIt      ....   150
   Startup grad/error   SOSCFStart      ....  0.003300
 Level Shifting         CNVShift        .... on
   Level shift para.    LevelShift      ....    0.2500
   Turn off err/grad.   ShiftErr        ....    0.0010
 Zerner damping         CNVZerner       .... off
 Static damping         CNVDamp         .... on
   Fraction old density DampFac         ....    0.7000
   Max. Damping (<1)    DampMax         ....    0.9800
   Min. Damping (>=0)   DampMin         ....    0.0000
   Turn off err/grad.   DampErr         ....    0.1000
 Fernandez-Rico         CNVRico         .... off

SCF Procedure:
 Maximum # iterations   MaxIter         ....   125
 SCF integral mode      SCFMode         .... Direct
   Integral package                     .... SHARK and LIBINT hybrid scheme
 Reset frequency        DirectResetFreq ....    20
 Integral Threshold     Thresh          ....  2.500e-11 Eh
 Primitive CutOff       TCut            ....  2.500e-12 Eh

Convergence Tolerance:
 Convergence Check Mode ConvCheckMode   .... Total+1el-Energy
 Convergence forced     ConvForced      .... 1
 Energy Change          TolE            ....  1.000e-08 Eh
 1-El. energy change                    ....  1.000e-05 Eh
 Orbital Gradient       TolG            ....  1.000e-05
 Orbital Rotation angle TolX            ....  1.000e-05
 DIIS Error             TolErr          ....  5.000e-07


Diagonalization of the overlap matrix:
Smallest eigenvalue                        ... 2.255e-04
Time for diagonalization                   ...    0.380 sec
Threshold for overlap eigenvalues          ... 1.000e-08
Number of eigenvalues below threshold      ... 0
Time for construction of square roots      ...    0.190 sec
Total time needed                          ...    0.575 sec

Time for model grid setup =    1.000 sec

------------------------------
INITIAL GUESS: MODEL POTENTIAL
------------------------------
Loading Hartree-Fock densities                     ... done
Calculating cut-offs                               ... done
Initializing the effective Hamiltonian             ... done
Setting up the integral package (SHARK)            ... done
Starting the Coulomb interaction                   ... done (   1.1 sec)
Reading the grid                                   ... done
Mapping shells                                     ... done
Starting the XC term evaluation                    ... done (   0.2 sec)
Transforming the Hamiltonian                       ... done (   0.2 sec)
Diagonalizing the Hamiltonian                      ... done (   0.3 sec)
Back transforming the eigenvectors                 ... done (   0.1 sec)
Now organizing SCF variables                       ... done
                      ------------------
                      INITIAL GUESS DONE (   2.9 sec)
                      ------------------
--------------
SCF ITERATIONS
--------------
ITER       Energy         Delta-E        Max-DP      RMS-DP      [F,P]     Damp
               ***  Starting incremental Fock matrix formation  ***
  0  -2121.6752481053   0.000000000000 0.06901307  0.00120860  0.2329634 0.7000
  1  -2122.3403609939  -0.665112888628 0.05237261  0.00098026  0.1441495 0.7000
                               ***Turning on DIIS***
  2  -2122.7533598709  -0.412998876975 0.11605649  0.00222031  0.0802571 0.0000
  3  -2117.7377909741   5.015568896788 0.03037653  0.00068113  0.0442582 0.0000
  4  -2123.4160075195  -5.678216545413 0.00876047  0.00022804  0.0070189 0.0000
  5  -2123.5949559731  -0.178948453513 0.00506525  0.00013492  0.0049101 0.0000
  6  -2123.5771980071   0.017757965981 0.00331541  0.00008777  0.0019142 0.0000
  7  -2123.6815928507  -0.104394843625 0.00279451  0.00006955  0.0014906 0.0000
  8  -2123.7003806137  -0.018787762961 0.00280709  0.00006567  0.0013861 0.0000
  9  -2123.6643997607   0.035980852983 0.00227542  0.00004499  0.0010886 0.0000
 10  -2123.6789216316  -0.014521870920 0.00475462  0.00008873  0.0008262 0.0000
                      *** Initiating the SOSCF procedure ***
                           *** Shutting down DIIS ***
                      *** Re-Reading the Fockian *** 
                      *** Removing any level shift *** 
ITER      Energy       Delta-E        Grad      Rot      Max-DP    RMS-DP
 11  -2123.56082260   0.1180990298  0.000321  0.000321  0.000295  0.000007
               *** Restarting incremental Fock matrix formation ***
 12  -2123.62588207  -0.0650594687  0.000920  0.006239  0.001051  0.000026
 13  -2123.62594369  -0.0000616188  0.000962  0.024091  0.004309  0.000083
 14  -2123.62601434  -0.0000706465  0.000441  0.002526  0.000483  0.000012
 15  -2123.62602473  -0.0000103972  0.000122  0.001545  0.000408  0.000007
 16  -2123.62602795  -0.0000032150  0.000091  0.002500  0.000604  0.000011
 17  -2123.62603038  -0.0000024283  0.000114  0.002529  0.000457  0.000008
 18  -2123.62603143  -0.0000010497  0.000063  0.001509  0.000287  0.000006
 19  -2123.62603222  -0.0000007917  0.000057  0.000916  0.000162  0.000003
 20  -2123.62603254  -0.0000003245  0.000025  0.000383  0.000077  0.000002
 21  -2123.62603263  -0.0000000904  0.000015  0.000424  0.000077  0.000002
 22  -2123.62603270  -0.0000000645  0.000016  0.000380  0.000068  0.000001
 23  -2123.62603274  -0.0000000419  0.000014  0.000193  0.000060  0.000001
 24  -2123.62603276  -0.0000000192  0.000007  0.000041  0.000017  0.000000
 25  -2123.62603278  -0.0000000179  0.000003  0.000053  0.000016  0.000000
 26  -2123.62603278  -0.0000000084  0.000003  0.000063  0.000013  0.000000
                  ***Gradient check signals convergence***
              ***Rediagonalizing the Fockian in SOSCF/NRSCF***

               *****************************************************
               *                     SUCCESS                       *
               *           SCF CONVERGED AFTER  27 CYCLES          *
               *****************************************************


----------------
TOTAL SCF ENERGY
----------------

Total Energy       :        -2123.62603278 Eh          -57786.80218 eV

Components:
Nuclear Repulsion  :         6224.86233082 Eh          169387.11550 eV
Electronic Energy  :        -8348.48836360 Eh         -227173.91767 eV
One Electron Energy:       -15290.90043012 Eh         -416086.55414 eV
Two Electron Energy:         6942.41206652 Eh          188912.63646 eV

Virial components:
Potential Energy   :        -4245.61885364 Eh         -115529.16240 eV
Kinetic Energy     :         2121.99282086 Eh           57742.36022 eV
Virial Ratio       :            2.00076966


---------------
SCF CONVERGENCE
---------------

  Last Energy change         ...    4.5602e-09  Tolerance :   1.0000e-08
  Last MAX-Density change    ...    1.5442e-05  Tolerance :   1.0000e-07
  Last RMS-Density change    ...    2.5435e-07  Tolerance :   5.0000e-09
  Last Orbital Gradient      ...    2.4911e-06  Tolerance :   1.0000e-05
  Last Orbital Rotation      ...    7.7841e-05  Tolerance :   1.0000e-05

             **** THE GBW FILE WAS UPDATED (/scratch/allen/tmpyp4_amber_gaff2/conf1/conf1/Conf123.orca.gbw) ****
             **** DENSITY /scratch/allen/tmpyp4_amber_gaff2/conf1/conf1/Conf123.orca.scfp WAS UPDATED ****
             **** ENERGY FILE WAS UPDATED (/scratch/allen/tmpyp4_amber_gaff2/conf1/conf1/Conf123.orca.en.tmp) ****
             **** THE GBW FILE WAS UPDATED (/scratch/allen/tmpyp4_amber_gaff2/conf1/conf1/Conf123.orca.gbw) ****
             **** DENSITY /scratch/allen/tmpyp4_amber_gaff2/conf1/conf1/Conf123.orca.scfp WAS UPDATED ****
----------------
ORBITAL ENERGIES
----------------

  NO   OCC          E(Eh)            E(eV) 
   0   2.0000     -15.640715      -425.6055 
   1   2.0000     -15.639914      -425.5837 
   2   2.0000     -15.628443      -425.2715 
   3   2.0000     -15.622482      -425.1093 
   4   2.0000     -15.519150      -422.2975 
   5   2.0000     -15.515544      -422.1994 
   6   2.0000     -15.444181      -420.2575 
   7   2.0000     -15.444092      -420.2551 
   8   2.0000     -11.303659      -307.5882 
   9   2.0000     -11.302918      -307.5680 
  10   2.0000     -11.297295      -307.4150 
  11   2.0000     -11.295834      -307.3753 
  12   2.0000     -11.295378      -307.3629 
  13   2.0000     -11.294575      -307.3410 
  14   2.0000     -11.294306      -307.3337 
  15   2.0000     -11.292768      -307.2918 
  16   2.0000     -11.285681      -307.0990 
  17   2.0000     -11.285161      -307.0848 
  18   2.0000     -11.281718      -306.9911 
  19   2.0000     -11.281158      -306.9759 
  20   2.0000     -11.245029      -305.9928 
  21   2.0000     -11.243256      -305.9445 
  22   2.0000     -11.235484      -305.7331 
  23   2.0000     -11.234961      -305.7188 
  24   2.0000     -11.234610      -305.7093 
  25   2.0000     -11.234321      -305.7014 
  26   2.0000     -11.232806      -305.6602 
  27   2.0000     -11.228905      -305.5540 
  28   2.0000     -11.226405      -305.4860 
  29   2.0000     -11.226285      -305.4827 
  30   2.0000     -11.222385      -305.3766 
  31   2.0000     -11.221866      -305.3625 
  32   2.0000     -11.201061      -304.7964 
  33   2.0000     -11.200540      -304.7822 
  34   2.0000     -11.193893      -304.6013 
  35   2.0000     -11.193490      -304.5904 
  36   2.0000     -11.172753      -304.0261 
  37   2.0000     -11.172536      -304.0202 
  38   2.0000     -11.171491      -303.9917 
  39   2.0000     -11.171299      -303.9865 
  40   2.0000     -11.170168      -303.9557 
  41   2.0000     -11.169728      -303.9438 
  42   2.0000     -11.166351      -303.8519 
  43   2.0000     -11.166246      -303.8490 
  44   2.0000     -11.160795      -303.7007 
  45   2.0000     -11.159425      -303.6634 
  46   2.0000     -11.152429      -303.4730 
  47   2.0000     -11.150895      -303.4313 
  48   2.0000     -11.143351      -303.2260 
  49   2.0000     -11.141904      -303.1866 
  50   2.0000     -11.141246      -303.1687 
  51   2.0000     -11.139387      -303.1181 
  52   2.0000      -1.327011       -36.1098 
  53   2.0000      -1.326251       -36.0891 
  54   2.0000      -1.316344       -35.8195 
  55   2.0000      -1.311682       -35.6927 
  56   2.0000      -1.218103       -33.1463 
  57   2.0000      -1.212417       -32.9916 
  58   2.0000      -1.161475       -31.6054 
  59   2.0000      -1.156989       -31.4833 
  60   2.0000      -1.116078       -30.3700 
  61   2.0000      -1.113444       -30.2984 
  62   2.0000      -1.105428       -30.0802 
  63   2.0000      -1.101607       -29.9763 
  64   2.0000      -1.050963       -28.5982 
  65   2.0000      -1.050034       -28.5729 
  66   2.0000      -1.040921       -28.3249 
  67   2.0000      -1.037061       -28.2199 
  68   2.0000      -1.026752       -27.9393 
  69   2.0000      -1.009870       -27.4800 
  70   2.0000      -1.009298       -27.4644 
  71   2.0000      -0.997883       -27.1538 
  72   2.0000      -0.982357       -26.7313 
  73   2.0000      -0.975636       -26.5484 
  74   2.0000      -0.969059       -26.3694 
  75   2.0000      -0.960105       -26.1258 
  76   2.0000      -0.952502       -25.9189 
  77   2.0000      -0.942280       -25.6408 
  78   2.0000      -0.940582       -25.5945 
  79   2.0000      -0.923366       -25.1261 
  80   2.0000      -0.892943       -24.2982 
  81   2.0000      -0.878239       -23.8981 
  82   2.0000      -0.876130       -23.8407 
  83   2.0000      -0.868403       -23.6305 
  84   2.0000      -0.864758       -23.5313 
  85   2.0000      -0.857050       -23.3215 
  86   2.0000      -0.847333       -23.0571 
  87   2.0000      -0.844643       -22.9839 
  88   2.0000      -0.821700       -22.3596 
  89   2.0000      -0.798495       -21.7282 
  90   2.0000      -0.797701       -21.7065 
  91   2.0000      -0.739275       -20.1167 
  92   2.0000      -0.729218       -19.8430 
  93   2.0000      -0.729036       -19.8381 
  94   2.0000      -0.720667       -19.6104 
  95   2.0000      -0.720067       -19.5940 
  96   2.0000      -0.712068       -19.3764 
  97   2.0000      -0.709361       -19.3027 
  98   2.0000      -0.698487       -19.0068 
  99   2.0000      -0.692562       -18.8456 
 100   2.0000      -0.684005       -18.6127 
 101   2.0000      -0.680145       -18.5077 
 102   2.0000      -0.679601       -18.4929 
 103   2.0000      -0.673269       -18.3206 
 104   2.0000      -0.667789       -18.1715 
 105   2.0000      -0.667141       -18.1538 
 106   2.0000      -0.663134       -18.0448 
 107   2.0000      -0.658991       -17.9321 
 108   2.0000      -0.658080       -17.9073 
 109   2.0000      -0.654347       -17.8057 
 110   2.0000      -0.652757       -17.7624 
 111   2.0000      -0.650543       -17.7022 
 112   2.0000      -0.647406       -17.6168 
 113   2.0000      -0.644980       -17.5508 
 114   2.0000      -0.634699       -17.2710 
 115   2.0000      -0.622903       -16.9501 
 116   2.0000      -0.617563       -16.8047 
 117   2.0000      -0.616770       -16.7832 
 118   2.0000      -0.610346       -16.6084 
 119   2.0000      -0.608632       -16.5617 
 120   2.0000      -0.608080       -16.5467 
 121   2.0000      -0.604871       -16.4594 
 122   2.0000      -0.603083       -16.4107 
 123   2.0000      -0.593697       -16.1553 
 124   2.0000      -0.586302       -15.9541 
 125   2.0000      -0.585370       -15.9287 
 126   2.0000      -0.578136       -15.7319 
 127   2.0000      -0.574613       -15.6360 
 128   2.0000      -0.571153       -15.5419 
 129   2.0000      -0.561500       -15.2792 
 130   2.0000      -0.553765       -15.0687 
 131   2.0000      -0.542813       -14.7707 
 132   2.0000      -0.541200       -14.7268 
 133   2.0000      -0.535155       -14.5623 
 134   2.0000      -0.533674       -14.5220 
 135   2.0000      -0.530950       -14.4479 
 136   2.0000      -0.524009       -14.2590 
 137   2.0000      -0.523466       -14.2442 
 138   2.0000      -0.517202       -14.0738 
 139   2.0000      -0.516906       -14.0657 
 140   2.0000      -0.509198       -13.8560 
 141   2.0000      -0.505584       -13.7577 
 142   2.0000      -0.504163       -13.7190 
 143   2.0000      -0.503741       -13.7075 
 144   2.0000      -0.499145       -13.5824 
 145   2.0000      -0.497943       -13.5497 
 146   2.0000      -0.496429       -13.5085 
 147   2.0000      -0.493179       -13.4201 
 148   2.0000      -0.490956       -13.3596 
 149   2.0000      -0.468870       -12.7586 
 150   2.0000      -0.460227       -12.5234 
 151   2.0000      -0.451074       -12.2743 
 152   2.0000      -0.448257       -12.1977 
 153   2.0000      -0.445967       -12.1354 
 154   2.0000      -0.445029       -12.1098 
 155   2.0000      -0.439488       -11.9591 
 156   2.0000      -0.435000       -11.8370 
 157   2.0000      -0.432049       -11.7566 
 158   2.0000      -0.390785       -10.6338 
 159   2.0000      -0.381180       -10.3724 
 160   2.0000      -0.380070       -10.3422 
 161   2.0000      -0.372946       -10.1484 
 162   2.0000      -0.361220        -9.8293 
 163   2.0000      -0.360277        -9.8036 
 164   2.0000      -0.352618        -9.5952 
 165   2.0000      -0.349228        -9.5030 
 166   2.0000      -0.337266        -9.1775 
 167   2.0000      -0.332129        -9.0377 
 168   2.0000      -0.329374        -8.9627 
 169   2.0000      -0.300220        -8.1694 
 170   2.0000      -0.295678        -8.0458 
 171   2.0000      -0.288939        -7.8624 
 172   2.0000      -0.287320        -7.8184 
 173   2.0000      -0.254709        -6.9310 
 174   2.0000      -0.248025        -6.7491 
 175   2.0000      -0.188013        -5.1161 
 176   2.0000      -0.177852        -4.8396 
 177   2.0000      -0.066383        -1.8064 
 178   2.0000      -0.054709        -1.4887 
 179   0.0000       0.030940         0.8419 
 180   0.0000       0.070604         1.9212 
 181   0.0000       0.093110         2.5337 
 182   0.0000       0.097198         2.6449 
 183   0.0000       0.133106         3.6220 
 184   0.0000       0.133616         3.6359 
 185   0.0000       0.142036         3.8650 
 186   0.0000       0.145900         3.9701 
 187   0.0000       0.161137         4.3848 
 188   0.0000       0.161669         4.3992 
 189   0.0000       0.162211         4.4140 
 190   0.0000       0.168019         4.5720 
 191   0.0000       0.170555         4.6410 
 192   0.0000       0.201197         5.4748 
 193   0.0000       0.201743         5.4897 
 194   0.0000       0.204638         5.5685 
 195   0.0000       0.205535         5.5929 
 196   0.0000       0.208139         5.6637 
 197   0.0000       0.210269         5.7217 
 198   0.0000       0.211279         5.7492 
 199   0.0000       0.214427         5.8348 
 200   0.0000       0.235235         6.4011 
 201   0.0000       0.237410         6.4603 
 202   0.0000       0.242200         6.5906 
 203   0.0000       0.244763         6.6603 
 204   0.0000       0.253300         6.8926 
 205   0.0000       0.254064         6.9134 
 206   0.0000       0.258271         7.0279 
 207   0.0000       0.259603         7.0641 
 208   0.0000       0.261695         7.1211 
 209   0.0000       0.264271         7.1912 
 210   0.0000       0.267456         7.2778 
 211   0.0000       0.269420         7.3313 
 212   0.0000       0.273177         7.4335 
 213   0.0000       0.275871         7.5068 
 214   0.0000       0.278831         7.5874 
 215   0.0000       0.279709         7.6113 
 216   0.0000       0.281565         7.6618 
 217   0.0000       0.282822         7.6960 
 218   0.0000       0.284307         7.7364 
 219   0.0000       0.290098         7.8940 
 220   0.0000       0.291561         7.9338 
 221   0.0000       0.292030         7.9465 
 222   0.0000       0.292950         7.9716 
 223   0.0000       0.294893         8.0245 
 224   0.0000       0.299441         8.1482 
 225   0.0000       0.302164         8.2223 
 226   0.0000       0.303237         8.2515 
 227   0.0000       0.303544         8.2599 
 228   0.0000       0.305283         8.3072 
 229   0.0000       0.307374         8.3641 
 230   0.0000       0.314075         8.5464 
 231   0.0000       0.318233         8.6596 
 232   0.0000       0.326360         8.8807 
 233   0.0000       0.326585         8.8868 
 234   0.0000       0.332939         9.0597 
 235   0.0000       0.334670         9.1068 
 236   0.0000       0.356145         9.6912 
 237   0.0000       0.387100        10.5335 
 238   0.0000       0.395435        10.7603 
 239   0.0000       0.400950        10.9104 
 240   0.0000       0.406300        11.0560 
 241   0.0000       0.408760        11.1229 
 242   0.0000       0.422004        11.4833 
 243   0.0000       0.423752        11.5309 
 244   0.0000       0.432340        11.7646 
 245   0.0000       0.432705        11.7745 
 246   0.0000       0.436610        11.8808 
 247   0.0000       0.437669        11.9096 
 248   0.0000       0.440548        11.9879 
 249   0.0000       0.443976        12.0812 
 250   0.0000       0.444619        12.0987 
 251   0.0000       0.448437        12.2026 
 252   0.0000       0.455310        12.3896 
 253   0.0000       0.468053        12.7364 
 254   0.0000       0.471591        12.8326 
 255   0.0000       0.475172        12.9301 
 256   0.0000       0.480679        13.0799 
 257   0.0000       0.486965        13.2510 
 258   0.0000       0.489489        13.3197 
 259   0.0000       0.497277        13.5316 
 260   0.0000       0.502032        13.6610 
 261   0.0000       0.502464        13.6728 
 262   0.0000       0.506740        13.7891 
 263   0.0000       0.509181        13.8555 
 264   0.0000       0.512157        13.9365 
 265   0.0000       0.515094        14.0164 
 266   0.0000       0.516232        14.0474 
 267   0.0000       0.521704        14.1963 
 268   0.0000       0.536487        14.5986 
 269   0.0000       0.538097        14.6424 
 270   0.0000       0.540562        14.7095 
 271   0.0000       0.545709        14.8495 
 272   0.0000       0.547788        14.9061 
 273   0.0000       0.553244        15.0545 
 274   0.0000       0.559793        15.2327 
 275   0.0000       0.562770        15.3138 
 276   0.0000       0.574451        15.6316 
 277   0.0000       0.575943        15.6722 
 278   0.0000       0.582090        15.8395 
 279   0.0000       0.584808        15.9134 
 280   0.0000       0.589021        16.0281 
 281   0.0000       0.591385        16.0924 
 282   0.0000       0.594584        16.1794 
 283   0.0000       0.596728        16.2378 
 284   0.0000       0.599973        16.3261 
 285   0.0000       0.602712        16.4006 
 286   0.0000       0.604386        16.4462 
 287   0.0000       0.608631        16.5617 
 288   0.0000       0.610468        16.6117 
 289   0.0000       0.614637        16.7251 
 290   0.0000       0.616577        16.7779 
 291   0.0000       0.627635        17.0788 
 292   0.0000       0.639604        17.4045 
 293   0.0000       0.641112        17.4455 
 294   0.0000       0.643147        17.5009 
 295   0.0000       0.650091        17.6899 
 296   0.0000       0.658182        17.9100 
 297   0.0000       0.658625        17.9221 
 298   0.0000       0.661277        17.9943 
 299   0.0000       0.664154        18.0725 
 300   0.0000       0.671039        18.2599 
 301   0.0000       0.673285        18.3210 
 302   0.0000       0.677768        18.4430 
 303   0.0000       0.680602        18.5201 
 304   0.0000       0.682771        18.5792 
 305   0.0000       0.685008        18.6400 
 306   0.0000       0.689789        18.7701 
 307   0.0000       0.696081        18.9413 
 308   0.0000       0.697489        18.9796 
 309   0.0000       0.702713        19.1218 
 310   0.0000       0.704190        19.1620 
 311   0.0000       0.706035        19.2122 
 312   0.0000       0.707917        19.2634 
 313   0.0000       0.708676        19.2841 
 314   0.0000       0.710170        19.3247 
 315   0.0000       0.714533        19.4434 
 316   0.0000       0.716164        19.4878 
 317   0.0000       0.718071        19.5397 
 318   0.0000       0.719256        19.5720 
 319   0.0000       0.722493        19.6600 
 320   0.0000       0.725699        19.7473 
 321   0.0000       0.727440        19.7947 
 322   0.0000       0.730147        19.8683 
 323   0.0000       0.734639        19.9906 
 324   0.0000       0.739293        20.1172 
 325   0.0000       0.741880        20.1876 
 326   0.0000       0.744919        20.2703 
 327   0.0000       0.745156        20.2767 
 328   0.0000       0.747550        20.3419 
 329   0.0000       0.749664        20.3994 
 330   0.0000       0.750813        20.4307 
 331   0.0000       0.753617        20.5070 
 332   0.0000       0.758063        20.6279 
 333   0.0000       0.763440        20.7743 
 334   0.0000       0.764998        20.8167 
 335   0.0000       0.768435        20.9102 
 336   0.0000       0.773977        21.0610 
 337   0.0000       0.776773        21.1371 
 338   0.0000       0.784612        21.3504 
 339   0.0000       0.788617        21.4594 
 340   0.0000       0.792215        21.5573 
 341   0.0000       0.793641        21.5961 
 342   0.0000       0.794442        21.6179 
 343   0.0000       0.799305        21.7502 
 344   0.0000       0.803845        21.8737 
 345   0.0000       0.807799        21.9813 
 346   0.0000       0.809036        22.0150 
 347   0.0000       0.811985        22.0952 
 348   0.0000       0.814218        22.1560 
 349   0.0000       0.818298        22.2670 
 350   0.0000       0.818647        22.2765 
 351   0.0000       0.823143        22.3989 
 352   0.0000       0.827050        22.5052 
 353   0.0000       0.828347        22.5405 
 354   0.0000       0.831898        22.6371 
 355   0.0000       0.832727        22.6597 
 356   0.0000       0.833084        22.6694 
 357   0.0000       0.834724        22.7140 
 358   0.0000       0.837440        22.7879 
 359   0.0000       0.839011        22.8306 
 360   0.0000       0.840456        22.8700 
 361   0.0000       0.842259        22.9190 
 362   0.0000       0.844264        22.9736 
 363   0.0000       0.844840        22.9893 
 364   0.0000       0.846096        23.0235 
 365   0.0000       0.847711        23.0674 
 366   0.0000       0.850213        23.1355 
 367   0.0000       0.852145        23.1880 
 368   0.0000       0.856447        23.3051 
 369   0.0000       0.860205        23.4074 
 370   0.0000       0.865235        23.5442 
 371   0.0000       0.867382        23.6027 
 372   0.0000       0.871002        23.7012 
 373   0.0000       0.876128        23.8407 
 374   0.0000       0.879135        23.9225 
 375   0.0000       0.882031        24.0013 
 376   0.0000       0.885230        24.0883 
 377   0.0000       0.890576        24.2338 
 378   0.0000       0.895932        24.3796 
 379   0.0000       0.896271        24.3888 
 380   0.0000       0.897739        24.4287 
 381   0.0000       0.901051        24.5188 
 382   0.0000       0.903099        24.5746 
 383   0.0000       0.903967        24.5982 
 384   0.0000       0.906671        24.6718 
 385   0.0000       0.906875        24.6773 
 386   0.0000       0.909200        24.7406 
 387   0.0000       0.910565        24.7777 
 388   0.0000       0.911292        24.7975 
 389   0.0000       0.916312        24.9341 
 390   0.0000       0.918192        24.9853 
 391   0.0000       0.919859        25.0306 
 392   0.0000       0.922510        25.1028 
 393   0.0000       0.924122        25.1466 
 394   0.0000       0.924743        25.1635 
 395   0.0000       0.932117        25.3642 
 396   0.0000       0.932577        25.3767 
 397   0.0000       0.937538        25.5117 
 398   0.0000       0.938500        25.5379 
 399   0.0000       0.941845        25.6289 
 400   0.0000       0.942223        25.6392 
 401   0.0000       0.945291        25.7227 
 402   0.0000       0.949384        25.8340 
 403   0.0000       0.950301        25.8590 
 404   0.0000       0.952180        25.9101 
 405   0.0000       0.956717        26.0336 
 406   0.0000       0.957296        26.0493 
 407   0.0000       0.963845        26.2276 
 408   0.0000       0.967514        26.3274 
 409   0.0000       0.970474        26.4079 
 410   0.0000       0.972330        26.4584 
 411   0.0000       0.976540        26.5730 
 412   0.0000       0.981835        26.7171 
 413   0.0000       0.985771        26.8242 
 414   0.0000       0.988913        26.9097 
 415   0.0000       0.989986        26.9389 
 416   0.0000       0.998026        27.1577 
 417   0.0000       1.001531        27.2530 
 418   0.0000       1.008197        27.4344 
 419   0.0000       1.013666        27.5832 
 420   0.0000       1.024473        27.8773 
 421   0.0000       1.025176        27.8965 
 422   0.0000       1.032847        28.1052 
 423   0.0000       1.039699        28.2916 
 424   0.0000       1.045907        28.4606 
 425   0.0000       1.049250        28.5516 
 426   0.0000       1.052599        28.6427 
 427   0.0000       1.062787        28.9199 
 428   0.0000       1.065026        28.9808 
 429   0.0000       1.074303        29.2333 
 430   0.0000       1.077777        29.3278 
 431   0.0000       1.080214        29.3941 
 432   0.0000       1.086721        29.5712 
 433   0.0000       1.089528        29.6476 
 434   0.0000       1.092410        29.7260 
 435   0.0000       1.104346        30.0508 
 436   0.0000       1.107928        30.1483 
 437   0.0000       1.110931        30.2300 
 438   0.0000       1.115766        30.3615 
 439   0.0000       1.119045        30.4508 
 440   0.0000       1.120247        30.4835 
 441   0.0000       1.125330        30.6218 
 442   0.0000       1.130910        30.7736 
 443   0.0000       1.132370        30.8133 
 444   0.0000       1.134412        30.8689 
 445   0.0000       1.135004        30.8850 
 446   0.0000       1.136256        30.9191 
 447   0.0000       1.139049        30.9951 
 448   0.0000       1.145113        31.1601 
 449   0.0000       1.145729        31.1769 
 450   0.0000       1.150275        31.3006 
 451   0.0000       1.152384        31.3580 
 452   0.0000       1.154001        31.4020 
 453   0.0000       1.156870        31.4800 
 454   0.0000       1.159788        31.5594 
 455   0.0000       1.165736        31.7213 
 456   0.0000       1.175856        31.9967 
 457   0.0000       1.177811        32.0499 
 458   0.0000       1.182363        32.1737 
 459   0.0000       1.184655        32.2361 
 460   0.0000       1.186837        32.2955 
 461   0.0000       1.190889        32.4057 
 462   0.0000       1.198681        32.6178 
 463   0.0000       1.205122        32.7931 
 464   0.0000       1.206939        32.8425 
 465   0.0000       1.209288        32.9064 
 466   0.0000       1.215629        33.0789 
 467   0.0000       1.215748        33.0822 
 468   0.0000       1.221969        33.2515 
 469   0.0000       1.228575        33.4312 
 470   0.0000       1.234695        33.5978 
 471   0.0000       1.235217        33.6120 
 472   0.0000       1.236663        33.6513 
 473   0.0000       1.241668        33.7875 
 474   0.0000       1.242849        33.8196 
 475   0.0000       1.246236        33.9118 
 476   0.0000       1.250499        34.0278 
 477   0.0000       1.253027        34.0966 
 478   0.0000       1.255456        34.1627 
 479   0.0000       1.257011        34.2050 
 480   0.0000       1.258975        34.2585 
 481   0.0000       1.263349        34.3775 
 482   0.0000       1.268786        34.5254 
 483   0.0000       1.268910        34.5288 
 484   0.0000       1.276524        34.7360 
 485   0.0000       1.277879        34.7729 
 486   0.0000       1.283092        34.9147 
 487   0.0000       1.285809        34.9886 
 488   0.0000       1.289751        35.0959 
 489   0.0000       1.290085        35.1050 
 490   0.0000       1.293063        35.1860 
 491   0.0000       1.299126        35.3510 
 492   0.0000       1.304250        35.4905 
 493   0.0000       1.309337        35.6289 
 494   0.0000       1.314016        35.7562 
 495   0.0000       1.316860        35.8336 
 496   0.0000       1.318392        35.8753 
 497   0.0000       1.322395        35.9842 
 498   0.0000       1.326073        36.0843 
 499   0.0000       1.329474        36.1768 
 500   0.0000       1.334210        36.3057 
 501   0.0000       1.337252        36.3885 
 502   0.0000       1.340924        36.4884 
 503   0.0000       1.343901        36.5694 
 504   0.0000       1.350566        36.7508 
 505   0.0000       1.351995        36.7897 
 506   0.0000       1.354316        36.8528 
 507   0.0000       1.355624        36.8884 
 508   0.0000       1.356605        36.9151 
 509   0.0000       1.360299        37.0156 
 510   0.0000       1.365772        37.1645 
[...]
      pz      :     0.021974  p :     0.079576
      px      :     0.043310
      py      :     0.014292
 77 H s       :     0.888999  s :     0.888999
      pz      :     0.047636  p :     0.078899
      px      :     0.015012
      py      :     0.016250
 78 H s       :     0.889419  s :     0.889419
      pz      :     0.025706  p :     0.078835
      px      :     0.020554
      py      :     0.032574
 79 H s       :     0.908986  s :     0.908986
      pz      :     0.022091  p :     0.086702
      px      :     0.021766
      py      :     0.042845
 80 H s       :     0.870686  s :     0.870686
      pz      :     0.038882  p :     0.084137
      px      :     0.029941
      py      :     0.015315
 81 H s       :     0.887202  s :     0.887202
      pz      :     0.037757  p :     0.083871
      px      :     0.016142
      py      :     0.029972
 82 H s       :     0.915334  s :     0.915334
      pz      :     0.022133  p :     0.086855
      px      :     0.031357
      py      :     0.033365
 83 H s       :     0.872785  s :     0.872785
      pz      :     0.039244  p :     0.083982
      px      :     0.015257
      py      :     0.029481
 84 H s       :     0.887201  s :     0.887201
      pz      :     0.035784  p :     0.083717
      px      :     0.031721
      py      :     0.016211
 85 H s       :     0.893747  s :     0.893747
      pz      :     0.022497  p :     0.079730
      px      :     0.014091
      py      :     0.043142
 86 H s       :     0.890793  s :     0.890793
      pz      :     0.024724  p :     0.078858
      px      :     0.032993
      py      :     0.021142
 87 H s       :     0.890156  s :     0.890156
      pz      :     0.047968  p :     0.078706
      px      :     0.015608
      py      :     0.015130
 88 H s       :     0.913844  s :     0.913844
      pz      :     0.022069  p :     0.086964
      px      :     0.042521
      py      :     0.022374
 89 H s       :     0.872066  s :     0.872066
      pz      :     0.037924  p :     0.083911
      px      :     0.030503
      py      :     0.015485


                      *****************************
                      * MAYER POPULATION ANALYSIS *
                      *****************************

  NA   - Mulliken gross atomic population
  ZA   - Total nuclear charge
  QA   - Mulliken gross atomic charge
  VA   - Mayer's total valence
  BVA  - Mayer's bonded valence
  FA   - Mayer's free valence

  ATOM       NA         ZA         QA         VA         BVA        FA
  0 C      5.7941     6.0000     0.2059     3.8298     3.8298    -0.0000
  1 N      7.4443     7.0000    -0.4443     3.3622     3.3622    -0.0000
  2 C      6.0650     6.0000    -0.0650     3.9181     3.9181    -0.0000
  3 N      7.3377     7.0000    -0.3377     3.4464     3.4464    -0.0000
  4 C      6.0740     6.0000    -0.0740     3.9841     3.9841     0.0000
  5 N      7.5621     7.0000    -0.5621     3.0865     3.0865     0.0000
  6 C      6.0669     6.0000    -0.0669     3.9965     3.9965     0.0000
  7 N      7.3385     7.0000    -0.3385     3.4398     3.4398    -0.0000
  8 C      5.7966     6.0000     0.2034     3.8299     3.8299    -0.0000
  9 N      7.5630     7.0000    -0.5630     3.0837     3.0837    -0.0000
 10 C      5.8845     6.0000     0.1155     3.8963     3.8963     0.0000
 11 N      7.4372     7.0000    -0.4372     3.3854     3.3854     0.0000
 12 C      6.0699     6.0000    -0.0699     3.9172     3.9172    -0.0000
 13 N      7.4385     7.0000    -0.4385     3.3852     3.3852    -0.0000
 14 C      5.7651     6.0000     0.2349     3.7916     3.7916    -0.0000
 15 N      7.4408     7.0000    -0.4408     3.3713     3.3713    -0.0000
 16 C      5.7653     6.0000     0.2347     3.7888     3.7888    -0.0000
 17 C      6.0669     6.0000    -0.0669     3.9974     3.9974    -0.0000
 18 C      6.1939     6.0000    -0.1939     3.7517     3.7517    -0.0000
 19 C      5.7750     6.0000     0.2250     3.8785     3.8785    -0.0000
 20 C      5.7907     6.0000     0.2093     3.8253     3.8253    -0.0000
 21 C      6.0767     6.0000    -0.0767     3.9066     3.9066    -0.0000
 22 C      6.0859     6.0000    -0.0859     3.9832     3.9832    -0.0000
 23 C      6.0480     6.0000    -0.0480     3.9901     3.9901    -0.0000
 24 C      5.7946     6.0000     0.2054     3.8231     3.8231     0.0000
 25 C      5.8863     6.0000     0.1137     3.8894     3.8894     0.0000
 26 C      6.0734     6.0000    -0.0734     3.9032     3.9032     0.0000
 27 C      5.7785     6.0000     0.2215     3.8809     3.8809     0.0000
 28 C      6.0530     6.0000    -0.0530     3.9879     3.9879    -0.0000
 29 C      6.1846     6.0000    -0.1846     3.7359     3.7359    -0.0000
 30 C      5.7633     6.0000     0.2367     3.7932     3.7932    -0.0000
 31 C      5.7862     6.0000     0.2138     3.8259     3.8259    -0.0000
 32 C      6.0644     6.0000    -0.0644     3.9186     3.9186     0.0000
 33 C      6.0787     6.0000    -0.0787     3.9829     3.9829     0.0000
 34 C      6.0497     6.0000    -0.0497     3.9909     3.9909     0.0000
 35 C      5.7932     6.0000     0.2068     3.8238     3.8238    -0.0000
 36 C      5.8866     6.0000     0.1134     3.8894     3.8894     0.0000
 37 C      6.0663     6.0000    -0.0663     3.9176     3.9176    -0.0000
 38 C      5.7632     6.0000     0.2368     3.7999     3.7999    -0.0000
 39 C      6.0614     6.0000    -0.0614     3.9901     3.9901    -0.0000
 40 C      6.1880     6.0000    -0.1880     3.7391     3.7391    -0.0000
 41 C      5.7794     6.0000     0.2206     3.8815     3.8815    -0.0000
 42 C      5.7976     6.0000     0.2024     3.8274     3.8274    -0.0000
 43 C      6.0738     6.0000    -0.0738     3.9027     3.9027    -0.0000
 44 C      6.0892     6.0000    -0.0892     3.9854     3.9854    -0.0000
 45 C      6.0538     6.0000    -0.0538     3.9925     3.9925     0.0000
 46 C      5.7960     6.0000     0.2040     3.8260     3.8260    -0.0000
 47 C      5.8844     6.0000     0.1156     3.8939     3.8939     0.0000
 48 C      6.0741     6.0000    -0.0741     3.9044     3.9044    -0.0000
 49 C      5.7728     6.0000     0.2272     3.8853     3.8853    -0.0000
 50 C      6.0521     6.0000    -0.0521     3.9903     3.9903    -0.0000
 51 C      6.1907     6.0000    -0.1907     3.7371     3.7371     0.0000
 52 H      0.9479     1.0000     0.0521     0.9853     0.9853     0.0000
 53 H      1.0144     1.0000    -0.0144     0.9991     0.9991    -0.0000
 54 H      0.9538     1.0000     0.0462     1.0077     1.0077     0.0000
 55 H      0.9486     1.0000     0.0514     0.9858     0.9858    -0.0000
 56 H      0.9418     1.0000     0.0582     0.9712     0.9712    -0.0000
 57 H      0.9446     1.0000     0.0554     0.9830     0.9830     0.0000
 58 H      0.9454     1.0000     0.0546     0.9861     0.9861     0.0000
 59 H      1.0113     1.0000    -0.0113     0.9998     0.9998    -0.0000
 60 H      0.9562     1.0000     0.0438     1.0104     1.0104    -0.0000
 61 H      0.8275     1.0000     0.1725     1.0424     1.0424    -0.0000
 62 H      0.8267     1.0000     0.1733     1.0435     1.0435     0.0000
 63 H      0.9428     1.0000     0.0572     0.9854     0.9854    -0.0000
 64 H      1.0188     1.0000    -0.0188     0.9955     0.9955    -0.0000
 65 H      0.9533     1.0000     0.0467     1.0093     1.0093    -0.0000
 66 H      0.9422     1.0000     0.0578     0.9850     0.9850    -0.0000
 67 H      0.9366     1.0000     0.0634     0.9720     0.9720    -0.0000
 68 H      0.9417     1.0000     0.0583     0.9868     0.9868     0.0000
 69 H      0.9410     1.0000     0.0590     0.9830     0.9830     0.0000
 70 H      1.0250     1.0000    -0.0250     0.9938     0.9938    -0.0000
 71 H      0.9517     1.0000     0.0483     1.0065     1.0065    -0.0000
 72 H      0.9418     1.0000     0.0582     0.9848     0.9848    -0.0000
 73 H      1.0134     1.0000    -0.0134     0.9989     0.9989     0.0000
 74 H      0.9516     1.0000     0.0484     1.0100     1.0100     0.0000
 75 H      0.9428     1.0000     0.0572     0.9853     0.9853     0.0000
 76 H      0.9364     1.0000     0.0636     0.9717     0.9717     0.0000
 77 H      0.9407     1.0000     0.0593     0.9851     0.9851    -0.0000
 78 H      0.9415     1.0000     0.0585     0.9848     0.9848     0.0000
 79 H      1.0139     1.0000    -0.0139     0.9993     0.9993    -0.0000
 80 H      0.9513     1.0000     0.0487     1.0070     1.0070    -0.0000
 81 H      0.9464     1.0000     0.0536     0.9855     0.9855    -0.0000
 82 H      1.0241     1.0000    -0.0241     0.9940     0.9940     0.0000
 83 H      0.9574     1.0000     0.0426     1.0092     1.0092     0.0000
 84 H      0.9470     1.0000     0.0530     0.9855     0.9855    -0.0000
 85 H      0.9410     1.0000     0.0590     0.9715     0.9715    -0.0000
 86 H      0.9439     1.0000     0.0561     0.9840     0.9840     0.0000
 87 H      0.9433     1.0000     0.0567     0.9856     0.9856     0.0000
 88 H      1.0212     1.0000    -0.0212     0.9947     0.9947    -0.0000
 89 H      0.9547     1.0000     0.0453     1.0068     1.0068    -0.0000

  Mayer bond orders larger than 0.100000
B(  0-C ,  1-N ) :   1.1113 B(  0-C , 17-C ) :   1.6475 B(  0-C , 52-H ) :   0.9691 
B(  1-N ,  8-C ) :   1.1082 B(  1-N , 10-C ) :   0.9646 B(  2-C , 12-C ) :   1.5332 
B(  2-C , 16-C ) :   1.3265 B(  2-C , 53-H ) :   0.9777 B(  3-N , 14-C ) :   1.2051 
B(  3-N , 16-C ) :   1.1947 B(  3-N , 61-H ) :   0.8986 B(  4-C ,  6-C ) :   1.2540 
B(  4-C , 17-C ) :   1.2564 B(  4-C , 18-C ) :   1.2944 B(  5-N , 19-C ) :   1.4244 
B(  5-N , 27-C ) :   1.4016 B(  6-C ,  8-C ) :   1.6492 B(  6-C , 54-H ) :   0.9707 
B(  7-N , 30-C ) :   1.1924 B(  7-N , 38-C ) :   1.2007 B(  7-N , 62-H ) :   0.8980 
B(  8-C , 55-H ) :   0.9702 B(  9-N , 41-C ) :   1.4052 B(  9-N , 49-C ) :   1.4187 
B( 10-C , 56-H ) :   0.9763 B( 10-C , 57-H ) :   0.9826 B( 10-C , 58-H ) :   0.9831 
B( 11-N , 20-C ) :   1.1267 B( 11-N , 24-C ) :   1.1228 B( 11-N , 25-C ) :   0.9576 
B( 12-C , 14-C ) :   1.3285 B( 12-C , 59-H ) :   0.9770 B( 13-N , 31-C ) :   1.1292 
B( 13-N , 35-C ) :   1.1216 B( 13-N , 36-C ) :   0.9575 B( 14-C , 18-C ) :   1.1878 
B( 15-N , 42-C ) :   1.1143 B( 15-N , 46-C ) :   1.1152 B( 15-N , 47-C ) :   0.9624 
B( 16-C , 51-C ) :   1.1976 B( 17-C , 60-H ) :   0.9705 B( 18-C , 19-C ) :   1.2017 
B( 19-C , 21-C ) :   1.2175 B( 20-C , 28-C ) :   1.6220 B( 20-C , 63-H ) :   0.9702 
B( 21-C , 26-C ) :   1.6378 B( 21-C , 64-H ) :   0.9732 B( 22-C , 23-C ) :   1.2854 
B( 22-C , 28-C ) :   1.2751 B( 22-C , 29-C ) :   1.2258 B( 23-C , 24-C ) :   1.6168 
B( 23-C , 65-H ) :   0.9709 B( 24-C , 66-H ) :   0.9691 B( 25-C , 67-H ) :   0.9762 
B( 25-C , 68-H ) :   0.9829 B( 25-C , 69-H ) :   0.9821 B( 26-C , 27-C ) :   1.2137 
B( 26-C , 70-H ) :   0.9730 B( 27-C , 29-C ) :   1.2266 B( 28-C , 71-H ) :   0.9714 
B( 29-C , 30-C ) :   1.2178 B( 30-C , 32-C ) :   1.3062 B( 31-C , 39-C ) :   1.6253 
B( 31-C , 72-H ) :   0.9694 B( 32-C , 37-C ) :   1.5522 B( 32-C , 73-H ) :   0.9779 
B( 33-C , 34-C ) :   1.2797 B( 33-C , 39-C ) :   1.2722 B( 33-C , 40-C ) :   1.2393 
B( 34-C , 35-C ) :   1.6221 B( 34-C , 74-H ) :   0.9703 B( 35-C , 75-H ) :   0.9695 
B( 36-C , 76-H ) :   0.9763 B( 36-C , 77-H ) :   0.9820 B( 36-C , 78-H ) :   0.9830 
B( 37-C , 38-C ) :   1.3080 B( 37-C , 79-H ) :   0.9777 B( 38-C , 40-C ) :   1.2128 
B( 39-C , 80-H ) :   0.9714 B( 40-C , 41-C ) :   1.2214 B( 41-C , 43-C ) :   1.2124 
B( 42-C , 50-C ) :   1.6341 B( 42-C , 81-H ) :   0.9696 B( 43-C , 48-C ) :   1.6390 
B( 43-C , 82-H ) :   0.9734 B( 44-C , 45-C ) :   1.2692 B( 44-C , 50-C ) :   1.2671 
B( 44-C , 51-C ) :   1.2577 B( 45-C , 46-C ) :   1.6334 B( 45-C , 83-H ) :   0.9712 
B( 46-C , 84-H ) :   0.9702 B( 47-C , 85-H ) :   0.9761 B( 47-C , 86-H ) :   0.9828 
B( 47-C , 87-H ) :   0.9826 B( 48-C , 49-C ) :   1.2127 B( 48-C , 88-H ) :   0.9740 
B( 49-C , 51-C ) :   1.2189 B( 50-C , 89-H ) :   0.9713 

-------
TIMINGS
-------

Total SCF time: 0 days 0 hours 21 min 40 sec 

Total time                  ....    1300.320 sec
Sum of individual times     ....    1296.620 sec  ( 99.7%)

Fock matrix formation       ....    1276.608 sec  ( 98.2%)
Diagonalization             ....       6.666 sec  (  0.5%)
Density matrix formation    ....       0.354 sec  (  0.0%)
Population analysis         ....       0.426 sec  (  0.0%)
Initial guess               ....       1.920 sec  (  0.1%)
Orbital Transformation      ....       0.000 sec  (  0.0%)
Orbital Orthonormalization  ....       0.000 sec  (  0.0%)
DIIS solution               ....       2.887 sec  (  0.2%)
SOSCF solution              ....       6.759 sec  (  0.5%)

Maximum memory used throughout the entire SCF-calculation: 302.5 MB


           ************************************************************
           *        Program running with 16 parallel MPI-processes    *
           *              working on a common directory               *
           ************************************************************

------------------------------------------------------------------------------
                                ORCA  MP2 
------------------------------------------------------------------------------

Freezing NCore=104 chemical core electrons

----------
MP2 ENERGY (disk based algorithm)
----------

Dimension of the basis                    ...  918
Memory devoted to MP2                     ... 2000 MB   
Data format for buffers                   ... DOUBLE
Compression type for matrix containers    ... UNCOMPRESSED

-------------------------------
PARTIAL EXCHANGE TRANSFORMATION
-------------------------------

Transformation type                        ... one-operator
Generation of integrals (i,mue|j,nue)      ... ON
Generation of integrals (mue,kappa|nue,tau)... OFF
Generation of integrals (i,mue|a,nue)      ... OFF
Dimension of the basis                     ...  918
Number of internal MOs                     ...  127 (  52- 178)
Pair cutoff                                ... 2.500e-12 Eh
Number of AO pairs in the trafo            ... 421821
Total Number of distinct AO pairs          ... 421821
Memory devoted for trafo                   ... 2000.0 MB 
Max. Number of MO pairs treated together   ...  311      
Number Format for Storage                  ... Double (8 Byte)
Integral package used                      ... LIBINT

Starting integral evaluation:
    ... done with AO integral generation
Closing buffer AOK     (38.29 GB; CompressionRatio= 1.32)
Collecting buffer AOK 
Number of MO pairs included in the trafo   ... 8128
------------------------
SORTING OF (i,mue|j,nue)
------------------------

IBATCH = 1 of  2
IBATCH = 2 of  2
Closing buffer KAO     (51.03 GB; CompressionRatio= 1.00)
Collecting buffer KAO 
N(AO-Batches) Done                         ...  84873662 
N(AO-Batches) Skipped                      ...  82935619 
N(IJ)-pairs Skipped                        ...         0 
TOTAL TIME for half transformation         ...  2552.116 sec
AO-integral generation                     ...   173.630 sec
Half transformation                        ...   315.707 sec
K-integral sorting                         ...  1915.412 sec

Finished integral transformation - now doing MP2 part

OPERATOR COMBINATION   0   0: ij=( 52..178, 52..178)
Process 10:   Internal MO 132
Process 13:   Internal MO 156
Process  4:   Internal MO  84
Process  1:   Internal MO  60
Process  7:   Internal MO 108
Process  0:   Internal MO  54
Process  0:   Internal MO  57
Process  1:   Internal MO  63
Process  3:   Internal MO  78
Process  8:   Internal MO 117
Process  1:   Internal MO  66
Process  2:   Internal MO  69
Process  6:   Internal MO 102
Process  5:   Internal MO  93
Process 11:   Internal MO 141
Process  2:   Internal MO  72
Process 14:   Internal MO 165
Process  9:   Internal MO 126
Process  3:   Internal MO  81
Process  7:   Internal MO 111
Process  4:   Internal MO  87
Process  2:   Internal MO  75
Process 12:   Internal MO 150
Process  6:   Internal MO 105
Process 10:   Internal MO 135
Process  5:   Internal MO  96
Process 15:   Internal MO 174
Process  8:   Internal MO 120
Process  4:   Internal MO  90
Process  7:   Internal MO 114
Process  9:   Internal MO 129
Process 13:   Internal MO 159
Process  5:   Internal MO  99
Process 11:   Internal MO 144
Process 10:   Internal MO 138
Process 14:   Internal MO 168
Process  8:   Internal MO 123
Process 12:   Internal MO 153
Process 15:   Internal MO 177
Process 11:   Internal MO 147
Process 13:   Internal MO 162
Process 14:   Internal MO 171
-----------------------------------------------
 MP2 CORRELATION ENERGY   :     -7.289407219 Eh
-----------------------------------------------


-------
TIMINGS
-------
Total time                : 2836.061 sec
Integral trafo            : 2555.166 sec ( 90.1%)
K(i,j)                    :    5.187 sec (  0.2%)
T(i,j)                    :    0.189 sec (  0.0%)

---------------------------------------
MP2 TOTAL ENERGY:    -2130.915439999 Eh
---------------------------------------

Maximum memory used throughout the entire MP2-calculation: 2275.2 MB

-------------------------   --------------------
FINAL SINGLE POINT ENERGY     -2130.915439998519
-------------------------   --------------------


                            ***************************************
                            *     ORCA property calculations      *
                            ***************************************


  WARNING: The energy has been calculated at the MP2 level but the densities
           used in the property calculations are still SCF densities
           MP2 response densities have not been calculated 
           use %mp2 Density relaxed end
           or  %mp2 Density unrelaxed end

                                    ---------------------
                                    Active property flags
                                    ---------------------
   (+) Dipole Moment


------------------------------------------------------------------------------
                       ORCA ELECTRIC PROPERTIES CALCULATION
------------------------------------------------------------------------------

Dipole Moment Calculation                       ... on
Quadrupole Moment Calculation                   ... off
Polarizability Calculation                      ... off
GBWName                                         ... /scratch/allen/tmpyp4_amber_gaff2/conf1/conf1/Conf123.orca.gbw
Electron density                                ... /scratch/allen/tmpyp4_amber_gaff2/conf1/conf1/Conf123.orca.scfp
The origin for moment calculation is the CENTER OF MASS  = ( 0.002848, -0.002189  0.003118)

-------------
DIPOLE MOMENT
-------------
                                X             Y             Z
Electronic contribution:      0.03373      -1.27145      -0.20762
Nuclear contribution   :      0.00453       0.18853       0.22730
                        -----------------------------------------
Total Dipole Moment    :      0.03826      -1.08292       0.01968
                        -----------------------------------------
Magnitude (a.u.)       :      1.08378
Magnitude (Debye)      :      2.75474



--------------------
Rotational spectrum 
--------------------
 
Rotational constants in cm-1:     0.001498     0.001475     0.000762 
Rotational constants in MHz :    44.917126    44.207449    22.845696 

 Dipole components along the rotational axes: 
x,y,z [a.u.] :     0.406075    -1.004580     0.022293 
x,y,z [Debye]:     1.032159    -2.553438     0.056665 

 

Timings for individual modules:

Sum of individual times         ...     4157.865 sec (=  69.298 min)
GTO integral calculation        ...        2.540 sec (=   0.042 min)   0.1 %
SCF iterations                  ...     1301.215 sec (=  21.687 min)  31.3 %
MP2 module                      ...     2854.110 sec (=  47.569 min)  68.6 %
                             ****ORCA TERMINATED NORMALLY****
TOTAL RUN TIME: 0 days 1 hours 9 minutes 21 seconds 43 msec
# of primitive gaussian functions

