
                                 *****************
                                 * O   R   C   A *
                                 *****************

                                            #,                                       
                                            ###                                      
                                            ####                                     
                                            #####                                    
                                            ######                                   
                                           ########,                                 
                                     ,,################,,,,,                         
                               ,,#################################,,                 
                          ,,##########################################,,             
                       ,#########################################, ''#####,          
                    ,#############################################,,   '####,        
                  ,##################################################,,,,####,       
                ,###########''''           ''''###############################       
              ,#####''   ,,,,##########,,,,          '''####'''          '####       
            ,##' ,,,,###########################,,,                        '##       
           ' ,,###''''                  '''############,,,                           
         ,,##''                                '''############,,,,        ,,,,,,###''
      ,#''                                            '''#######################'''  
     '                                                          ''''####''''         
             ,#######,   #######,   ,#######,      ##                                
            ,#'     '#,  ##    ##  ,#'     '#,    #''#        ######   ,####,        
            ##       ##  ##   ,#'  ##            #'  '#       #        #'  '#        
            ##       ##  #######   ##           ,######,      #####,   #    #        
            '#,     ,#'  ##    ##  '#,     ,#' ,#      #,         ##   #,  ,#        
             '#######'   ##     ##  '#######'  #'      '#     #####' # '####'        



                  #######################################################
                  #                        -***-                        #
                  #          Department of theory and spectroscopy      #
                  #    Directorship and core code : Frank Neese         #
                  #        Max Planck Institute fuer Kohlenforschung    #
                  #                Kaiser Wilhelm Platz 1               #
                  #                 D-45470 Muelheim/Ruhr               #
                  #                      Germany                        #
                  #                                                     #
                  #                  All rights reserved                #
                  #                        -***-                        #
                  #######################################################


                         Program Version 5.0.4 -  RELEASE  -


 With contributions from (in alphabetic order):
   Daniel Aravena         : Magnetic Suceptibility
   Michael Atanasov       : Ab Initio Ligand Field Theory (pilot matlab implementation)
   Alexander A. Auer      : GIAO ZORA, VPT2 properties, NMR spectrum
   Ute Becker             : Parallelization
   Giovanni Bistoni       : ED, misc. LED, open-shell LED, HFLD
   Martin Brehm           : Molecular dynamics
   Dmytro Bykov           : SCF Hessian
   Vijay G. Chilkuri      : MRCI spin determinant printing, contributions to CSF-ICE
   Dipayan Datta          : RHF DLPNO-CCSD density
   Achintya Kumar Dutta   : EOM-CC, STEOM-CC
   Dmitry Ganyushin       : Spin-Orbit,Spin-Spin,Magnetic field MRCI
   Miquel Garcia          : C-PCM and meta-GGA Hessian, CC/C-PCM, Gaussian charge scheme
   Yang Guo               : DLPNO-NEVPT2, F12-NEVPT2, CIM, IAO-localization
   Andreas Hansen         : Spin unrestricted coupled pair/coupled cluster methods
   Benjamin Helmich-Paris : MC-RPA, TRAH-SCF, COSX integrals
   Lee Huntington         : MR-EOM, pCC
   Robert Izsak           : Overlap fitted RIJCOSX, COSX-SCS-MP3, EOM
   Marcus Kettner         : VPT2
   Christian Kollmar      : KDIIS, OOCD, Brueckner-CCSD(T), CCSD density, CASPT2, CASPT2-K
   Simone Kossmann        : Meta GGA functionals, TD-DFT gradient, OOMP2, MP2 Hessian
   Martin Krupicka        : Initial AUTO-CI
   Lucas Lang             : DCDCAS
   Marvin Lechner         : AUTO-CI (C++ implementation), FIC-MRCC
   Dagmar Lenk            : GEPOL surface, SMD
   Dimitrios Liakos       : Extrapolation schemes; Compound Job, initial MDCI parallelization
   Dimitrios Manganas     : Further ROCIS development; embedding schemes
   Dimitrios Pantazis     : SARC Basis sets
   Anastasios Papadopoulos: AUTO-CI, single reference methods and gradients
   Taras Petrenko         : DFT Hessian,TD-DFT gradient, ASA, ECA, R-Raman, ABS, FL, XAS/XES, NRVS
   Peter Pinski           : DLPNO-MP2, DLPNO-MP2 Gradient
   Christoph Reimann      : Effective Core Potentials
   Marius Retegan         : Local ZFS, SOC
   Christoph Riplinger    : Optimizer, TS searches, QM/MM, DLPNO-CCSD(T), (RO)-DLPNO pert. Triples
   Tobias Risthaus        : Range-separated hybrids, TD-DFT gradient, RPA, STAB
   Michael Roemelt        : Original ROCIS implementation
   Masaaki Saitow         : Open-shell DLPNO-CCSD energy and density
   Barbara Sandhoefer     : DKH picture change effects
   Avijit Sen             : IP-ROCIS
   Kantharuban Sivalingam : CASSCF convergence, NEVPT2, FIC-MRCI
   Bernardo de Souza      : ESD, SOC TD-DFT
   Georgi Stoychev        : AutoAux, RI-MP2 NMR, DLPNO-MP2 response
   Willem Van den Heuvel  : Paramagnetic NMR
   Boris Wezisla          : Elementary symmetry handling
   Frank Wennmohs         : Technical directorship


 We gratefully acknowledge several colleagues who have allowed us to
 interface, adapt or use parts of their codes:
   Stefan Grimme, W. Hujo, H. Kruse, P. Pracht,  : VdW corrections, initial TS optimization,
                  C. Bannwarth, S. Ehlert          DFT functionals, gCP, sTDA/sTD-DF
   Ed Valeev, F. Pavosevic, A. Kumar             : LibInt (2-el integral package), F12 methods
   Garnet Chan, S. Sharma, J. Yang, R. Olivares  : DMRG
   Ulf Ekstrom                                   : XCFun DFT Library
   Mihaly Kallay                                 : mrcc  (arbitrary order and MRCC methods)
   Jiri Pittner, Ondrej Demel                    : Mk-CCSD
   Frank Weinhold                                : gennbo (NPA and NBO analysis)
   Christopher J. Cramer and Donald G. Truhlar   : smd solvation model
   Lars Goerigk                                  : TD-DFT with DH, B97 family of functionals
   V. Asgeirsson, H. Jonsson                     : NEB implementation
   FAccTs GmbH                                   : IRC, NEB, NEB-TS, DLPNO-Multilevel, CI-OPT
                                                   MM, QMMM, 2- and 3-layer-ONIOM, Crystal-QMMM,
                                                   LR-CPCM, SF, NACMEs, symmetry and pop. for TD-DFT,
                                                   nearIR, NL-DFT gradient (VV10), updates on ESD,
                                                   ML-optimized integration grids
   S Lehtola, MJT Oliveira, MAL Marques          : LibXC Library
   Liviu Ungur et al                             : ANISO software


 Your calculation uses the libint2 library for the computation of 2-el integrals
 For citations please refer to: http://libint.valeyev.net

 Your ORCA version has been built with support for libXC version: 5.1.0
 For citations please refer to: https://tddft.org/programs/libxc/

 This ORCA versions uses:
   CBLAS   interface :  Fast vector & matrix operations
   LAPACKE interface :  Fast linear algebra routines
   SCALAPACK package :  Parallel linear algebra routines
   Shared memory     :  Shared parallel matrices
   BLAS/LAPACK       :  OpenBLAS 0.3.15  USE64BITINT DYNAMIC_ARCH NO_AFFINITY Sandybridge SINGLE_THREADED
        Core in use  :  Sandybridge
   Copyright (c) 2011-2014, The OpenBLAS Project


================================================================================

----- Orbital basis set information -----
Your calculation utilizes the basis: cc-pVDZ 
       H, B-Ne : Obtained from the ccRepo (grant-hill.group.shef.ac.uk/ccrepo) Feb. 2017
                 T. H. Dunning, Jr., J. Chem. Phys. 90, 1007 (1989)
            He : Obtained from the ccRepo (grant-hill.group.shef.ac.uk/ccrepo) Feb. 2017
                 D. E. Woon, T. H. Dunning, Jr., J. Chem. Phys. 100, 2975 (1994)
  Li-Be, Na-Mg : Obtained from the ccRepo (grant-hill.group.shef.ac.uk/ccrepo) Feb. 2017
                 B. P. Prascher, D. E. Woon, K. A. Peterson, T. H. Dunning, Jr., A. K. Wilson, Theor. Chem. Acc. 128, 69 (2011)
         Al-Ar : Obtained from the ccRepo (grant-hill.group.shef.ac.uk/ccrepo) Feb. 2017
                 D. E. Woon, T. H. Dunning, Jr., J. Chem. Phys. 98, 1358 (1993)
            Ca : Obtained from the Peterson Research Group Website (tyr0.chem.wsu.edu/~kipeters) Feb. 2017
                 J. Koput, K. A. Peterson, J. Phys. Chem. 106, 9595 (2002)
         Sc-Zn : Obtained from the ccRepo (grant-hill.group.shef.ac.uk/ccrepo) Feb. 2017
                 N. B. Balabanov, K. A. Peterson, J. Chem. Phys. 123, 064107 (2005)
                 N. B. Balabanov, K. A. Peterson, J. Chem. Phys. 125, 074110 (2006)
         Ga-Kr : Obtained from the ccRepo (grant-hill.group.shef.ac.uk/ccrepo) Feb. 2017
                 A. K. Wilson, D. E. Woon, K. A. Peterson, T. H. Dunning, Jr., J. Chem. Phys. 110, 7667 (1999)

================================================================================
                                        WARNINGS
                       Please study these warnings very carefully!
================================================================================


WARNING: No MP2 level density has been requested!
         To caclulate MP2 level properties use
         %mp2 Density relaxed end
         or
         %mp2 Density unrelaxed end

WARNING: Post HF methods need fully converged wavefunctions
  ===> : Setting SCFConvForced true
         You can overwrite this default with %scf ConvForced false 


INFO   : the flag for use of the SHARK integral package has been found!

================================================================================
                                       INPUT FILE
================================================================================
NAME = /scratch/allen/tmpyp4_amber_gaff2/2.Mdgx/conf11/conf11/Conf263.orca
|  1> ! PAL2
|  2> ! mp2 cc-pvdz TightSCF  NoKeepInts
|  3> 
|  4> %scf
|  5>   MaxCore 2000
|  6> end
|  7> %mp2
|  8>   MaxCore 2000
|  9> end
| 10> * xyz 0 1
| 11>    C       -4.14000         5.71600         1.23300
| 12>    C        1.47400         4.04100         0.05700
| 13>    C       -2.80200         4.09300         0.04900
| 14>    C       -3.07300         4.80600        -1.12900
| 15>    C       -3.85800         5.94000        -1.08900
| 16>    C       -5.18800         7.62000         0.09500
| 17>    C        0.13200         4.30700         0.06100
| 18>    C       -0.56900         3.05600         0.04700
| 19>    C        1.64900         2.61800         0.02300
| 20>    C       -3.35500         4.57900         1.24400
| 21>    N       -4.38200         6.37900         0.07900
| 22>    N        0.38800         2.06700         0.02500
| 23>    N       -2.01000         0.39500        -0.07500
| 24>    N       -0.38800        -2.07400        -0.02700
| 25>    N        2.01000        -0.40100         0.06500
| 26>    C       -1.96000         2.86100         0.02400
| 27>    C       -2.62300         1.61500        -0.01800
| 28>    C       -5.57300        -4.32900         1.06600
| 29>    C       -4.07300         1.47100         0.05600
| 30>    C       -4.10600        -2.75600        -0.02600
| 31>    C       -4.99500        -2.75700        -1.11100
| 32>    C       -6.13200        -3.54200        -1.07600
| 33>    C       -7.65100        -5.11300         0.04000
| 34>    C       -4.32400         0.14100         0.03700
| 35>    C       -3.02500        -0.52000        -0.04800
| 36>    C       -4.42200        -3.56600         1.07500
| 37>    N       -6.40700        -4.31300         0.00100
| 38>    C       -2.86700        -1.92200        -0.04000
| 39>    C       -1.65000        -2.62400        -0.02700
| 40>    C        3.56800        -6.14200        -1.04000
| 41>    C       -1.47600        -4.04900        -0.03400
| 42>    C        2.80300        -4.09900        -0.00800
| 43>    C        3.65700        -4.38400         1.06900
| 44>    C        4.42700        -5.53000         1.05900
| 45>    C        5.24500        -7.58800         0.01400
| 46>    C       -0.13400        -4.31500        -0.02200
| 47>    C        0.56800        -3.06400        -0.02700
| 48>    C        2.77500        -5.01200        -1.07400
| 49>    N        4.37600        -6.39100         0.01700
| 50>    C        1.95900        -2.86900        -0.00900
| 51>    C        2.62100        -1.62200         0.00900
| 52>    C        5.54300         4.33900        -1.13000
| 53>    C        4.07000        -1.47900        -0.09400
| 54>    C        4.10400         2.75100        -0.02100
| 55>    C        5.02700         2.72900         1.03600
| 56>    C        6.16600         3.50900         0.97800
| 57>    C        7.61900         5.15300        -0.11500
| 58>    C        4.32100        -0.14800        -0.09200
| 59>    C        3.02500         0.51400         0.01500
| 60>    C        4.38700         3.58200        -1.11500
| 61>    C        2.86600         1.91600         0.01300
| 62>    N        6.41300         4.29600        -0.09500
| 63>    H       -4.59700         6.11900         2.12800
| 64>    H        2.27400         4.76600         0.08100
| 65>    H       -2.66600         4.48600        -2.08100
| 66>    H       -4.08600         6.52700        -1.96900
| 67>    H       -4.51800         8.47700         0.19400
| 68>    H       -5.74800         7.68600        -0.83700
| 69>    H       -5.87400         7.58100         0.94100
| 70>    H       -0.33200         5.28200         0.06900
| 71>    H       -3.19500         4.06500         2.18500
| 72>    H        0.18200         1.07200         0.00500
| 73>    H       -0.18300        -1.08000        -0.02100
| 74>    H       -5.86400        -4.96200         1.89500
| 75>    H       -4.79400         2.27200         0.13900
| 76>    H       -4.80000        -2.16000        -1.99400
| 77>    H       -6.84100        -3.58200        -1.89300
| 78>    H       -8.42800        -4.53600         0.54600
| 79>    H       -7.95600        -5.33700        -0.98100
| 80>    H       -7.45600        -6.03700         0.58400
| 81>    H       -5.28700        -0.34400         0.10000
| 82>    H       -3.78000        -3.60100         1.94700
| 83>    H        3.58700        -6.86800        -1.84300
| 84>    H       -2.27600        -4.77400        -0.05000
| 85>    H        3.71400        -3.72400         1.92600
| 86>    H        5.09200        -5.79500         1.87100
| 87>    H        6.20500        -7.32900        -0.43900
| 88>    H        5.39300        -7.91700         1.04200
| 89>    H        4.75900        -8.37300        -0.56400
| 90>    H        0.32900        -5.29000        -0.00800
| 91>    H        2.14600        -4.84200        -1.94000
| 92>    H        5.80800         4.98600        -1.95600
| 93>    H        4.78800        -2.28100        -0.18500
| 94>    H        4.86000         2.11400         1.91200
| 95>    H        6.90100         3.53100         1.77200
| 96>    H        7.38300         6.10900         0.35600
| 97>    H        8.41400         4.65200         0.43500
| 98>    H        7.92100         5.31000        -1.15000
| 99>    H        5.28300         0.33600        -0.17900
|100>    H        3.72000         3.63200        -1.96700
|101> *
|102> 
|103>                          ****END OF INPUT****
================================================================================

                       ****************************
                       * Single Point Calculation *
                       ****************************

---------------------------------
CARTESIAN COORDINATES (ANGSTROEM)
---------------------------------
  C     -4.140000    5.716000    1.233000
  C      1.474000    4.041000    0.057000
  C     -2.802000    4.093000    0.049000
  C     -3.073000    4.806000   -1.129000
  C     -3.858000    5.940000   -1.089000
  C     -5.188000    7.620000    0.095000
  C      0.132000    4.307000    0.061000
  C     -0.569000    3.056000    0.047000
  C      1.649000    2.618000    0.023000
  C     -3.355000    4.579000    1.244000
  N     -4.382000    6.379000    0.079000
  N      0.388000    2.067000    0.025000
  N     -2.010000    0.395000   -0.075000
  N     -0.388000   -2.074000   -0.027000
  N      2.010000   -0.401000    0.065000
  C     -1.960000    2.861000    0.024000
  C     -2.623000    1.615000   -0.018000
  C     -5.573000   -4.329000    1.066000
  C     -4.073000    1.471000    0.056000
  C     -4.106000   -2.756000   -0.026000
  C     -4.995000   -2.757000   -1.111000
  C     -6.132000   -3.542000   -1.076000
  C     -7.651000   -5.113000    0.040000
  C     -4.324000    0.141000    0.037000
  C     -3.025000   -0.520000   -0.048000
  C     -4.422000   -3.566000    1.075000
  N     -6.407000   -4.313000    0.001000
  C     -2.867000   -1.922000   -0.040000
  C     -1.650000   -2.624000   -0.027000
  C      3.568000   -6.142000   -1.040000
  C     -1.476000   -4.049000   -0.034000
  C      2.803000   -4.099000   -0.008000
  C      3.657000   -4.384000    1.069000
  C      4.427000   -5.530000    1.059000
  C      5.245000   -7.588000    0.014000
  C     -0.134000   -4.315000   -0.022000
  C      0.568000   -3.064000   -0.027000
  C      2.775000   -5.012000   -1.074000
  N      4.376000   -6.391000    0.017000
  C      1.959000   -2.869000   -0.009000
  C      2.621000   -1.622000    0.009000
  C      5.543000    4.339000   -1.130000
  C      4.070000   -1.479000   -0.094000
  C      4.104000    2.751000   -0.021000
  C      5.027000    2.729000    1.036000
  C      6.166000    3.509000    0.978000
  C      7.619000    5.153000   -0.115000
  C      4.321000   -0.148000   -0.092000
  C      3.025000    0.514000    0.015000
  C      4.387000    3.582000   -1.115000
  C      2.866000    1.916000    0.013000
  N      6.413000    4.296000   -0.095000
  H     -4.597000    6.119000    2.128000
  H      2.274000    4.766000    0.081000
  H     -2.666000    4.486000   -2.081000
  H     -4.086000    6.527000   -1.969000
  H     -4.518000    8.477000    0.194000
  H     -5.748000    7.686000   -0.837000
  H     -5.874000    7.581000    0.941000
  H     -0.332000    5.282000    0.069000
  H     -3.195000    4.065000    2.185000
  H      0.182000    1.072000    0.005000
  H     -0.183000   -1.080000   -0.021000
  H     -5.864000   -4.962000    1.895000
  H     -4.794000    2.272000    0.139000
  H     -4.800000   -2.160000   -1.994000
  H     -6.841000   -3.582000   -1.893000
  H     -8.428000   -4.536000    0.546000
  H     -7.956000   -5.337000   -0.981000
  H     -7.456000   -6.037000    0.584000
  H     -5.287000   -0.344000    0.100000
  H     -3.780000   -3.601000    1.947000
  H      3.587000   -6.868000   -1.843000
  H     -2.276000   -4.774000   -0.050000
  H      3.714000   -3.724000    1.926000
  H      5.092000   -5.795000    1.871000
  H      6.205000   -7.329000   -0.439000
  H      5.393000   -7.917000    1.042000
  H      4.759000   -8.373000   -0.564000
  H      0.329000   -5.290000   -0.008000
  H      2.146000   -4.842000   -1.940000
  H      5.808000    4.986000   -1.956000
  H      4.788000   -2.281000   -0.185000
  H      4.860000    2.114000    1.912000
  H      6.901000    3.531000    1.772000
  H      7.383000    6.109000    0.356000
  H      8.414000    4.652000    0.435000
  H      7.921000    5.310000   -1.150000
  H      5.283000    0.336000   -0.179000
  H      3.720000    3.632000   -1.967000

----------------------------
CARTESIAN COORDINATES (A.U.)
----------------------------
  NO LB      ZA    FRAG     MASS         X           Y           Z
   0 C     6.0000    0    12.011   -7.823466   10.801675    2.330032
   1 C     6.0000    0    12.011    2.785456    7.636383    0.107714
   2 C     6.0000    0    12.011   -5.295013    7.734649    0.092597
   3 C     6.0000    0    12.011   -5.807128    9.082024   -2.133501
   4 C     6.0000    0    12.011   -7.290563   11.224973   -2.057912
   5 C     6.0000    0    12.011   -9.803899   14.399713    0.179524
   6 C     6.0000    0    12.011    0.249444    8.139050    0.115273
   7 C     6.0000    0    12.011   -1.075254    5.775003    0.088817
   8 C     6.0000    0    12.011    3.116158    4.947303    0.043464
   9 C     6.0000    0    12.011   -6.340031    8.653056    2.350819
  10 N     7.0000    0    14.007   -8.280780   12.054563    0.149288
  11 N     7.0000    0    14.007    0.733214    3.906064    0.047243
  12 N     7.0000    0    14.007   -3.798350    0.746442   -0.141729
  13 N     7.0000    0    14.007   -0.733214   -3.919292   -0.051023
  14 N     7.0000    0    14.007    3.798350   -0.757780    0.122832
  15 C     6.0000    0    12.011   -3.703863    5.406506    0.045353
  16 C     6.0000    0    12.011   -4.956752    3.051908   -0.034015
  17 C     6.0000    0    12.011  -10.531444   -8.180624    2.014448
  18 C     6.0000    0    12.011   -7.696855    2.779787    0.105825
  19 C     6.0000    0    12.011   -7.759216   -5.208085   -0.049133
  20 C     6.0000    0    12.011   -9.439182   -5.209975   -2.099486
  21 C     6.0000    0    12.011  -11.587801   -6.693410   -2.033345
  22 C     6.0000    0    12.011  -14.458295   -9.662170    0.075589
  23 C     6.0000    0    12.011   -8.171176    0.266451    0.069920
  24 C     6.0000    0    12.011   -5.716422   -0.982658   -0.090707
  25 C     6.0000    0    12.011   -8.356369   -6.738763    2.031456
  26 N     7.0000    0    14.007  -12.107475   -8.150389    0.001890
  27 C     6.0000    0    12.011   -5.417845   -3.632054   -0.075589
  28 C     6.0000    0    12.011   -3.118048   -4.958641   -0.051023
  29 C     6.0000    0    12.011    6.742543  -11.606698   -1.965315
  30 C     6.0000    0    12.011   -2.789236   -7.651501   -0.064251
  31 C     6.0000    0    12.011    5.296902   -7.745987   -0.015118
  32 C     6.0000    0    12.011    6.910728   -8.284559    2.020117
  33 C     6.0000    0    12.011    8.365818  -10.450186    2.001220
  34 C     6.0000    0    12.011    9.911614  -14.339242    0.026456
  35 C     6.0000    0    12.011   -0.253223   -8.154168   -0.041574
  36 C     6.0000    0    12.011    1.073364   -5.790121   -0.051023
  37 C     6.0000    0    12.011    5.243990   -9.471307   -2.029566
  38 N     7.0000    0    14.007    8.269442  -12.077240    0.032125
  39 C     6.0000    0    12.011    3.701973   -5.421624   -0.017008
  40 C     6.0000    0    12.011    4.952972   -3.065136    0.017008
  41 C     6.0000    0    12.011   10.474752    8.199522   -2.135391
  42 C     6.0000    0    12.011    7.691185   -2.794905   -0.177634
  43 C     6.0000    0    12.011    7.755436    5.198637   -0.039684
  44 C     6.0000    0    12.011    9.499653    5.157063    1.957756
  45 C     6.0000    0    12.011   11.652051    6.631049    1.848152
  46 C     6.0000    0    12.011   14.397823    9.737759   -0.217319
  47 C     6.0000    0    12.011    8.165507   -0.279679   -0.173855
  48 C     6.0000    0    12.011    5.716422    0.971319    0.028346
  49 C     6.0000    0    12.011    8.290229    6.768999   -2.107045
  50 C     6.0000    0    12.011    5.415955    3.620715    0.024566
  51 N     7.0000    0    14.007   12.118814    8.118263   -0.179524
  52 H     1.0000    0     1.008   -8.687071   11.563234    4.021337
  53 H     1.0000    0     1.008    4.297237    9.006435    0.153068
  54 H     1.0000    0     1.008   -5.038010    8.477311   -3.932520
  55 H     1.0000    0     1.008   -7.721421   12.334242   -3.720871
  56 H     1.0000    0     1.008   -8.537783   16.019208    0.366607
  57 H     1.0000    0     1.008  -10.862146   14.524435   -1.581701
  58 H     1.0000    0     1.008  -11.100251   14.326014    1.778232
  59 H     1.0000    0     1.008   -0.627389    9.981533    0.130391
  60 H     1.0000    0     1.008   -6.037675    7.681737    4.129052
  61 H     1.0000    0     1.008    0.343930    2.025786    0.009449
  62 H     1.0000    0     1.008   -0.345820   -2.040904   -0.039684
  63 H     1.0000    0     1.008  -11.081354   -9.376821    3.581031
  64 H     1.0000    0     1.008   -9.059347    4.293458    0.262672
  65 H     1.0000    0     1.008   -9.070685   -4.081808   -3.768114
  66 H     1.0000    0     1.008  -12.927616   -6.768999   -3.577252
  67 H     1.0000    0     1.008  -15.926612   -8.571798    1.031790
  68 H     1.0000    0     1.008  -15.034661  -10.085468   -1.853821
  69 H     1.0000    0     1.008  -14.089798  -11.408277    1.103600
  70 H     1.0000    0     1.008   -9.990982   -0.650066    0.188973
  71 H     1.0000    0     1.008   -7.143165   -6.804904    3.679297
  72 H     1.0000    0     1.008    6.778448  -12.978639   -3.482765
  73 H     1.0000    0     1.008   -4.301017   -9.021553   -0.094486
  74 H     1.0000    0     1.008    7.018443   -7.037340    3.639613
  75 H     1.0000    0     1.008    9.622485  -10.950963    3.535678
  76 H     1.0000    0     1.008   11.725751  -13.849803   -0.829590
  77 H     1.0000    0     1.008   10.191293  -14.960962    1.969095
  78 H     1.0000    0     1.008    8.993207  -15.822677   -1.065806
  79 H     1.0000    0     1.008    0.621720   -9.996651   -0.015118
  80 H     1.0000    0     1.008    4.055352   -9.150054   -3.666069
  81 H     1.0000    0     1.008   10.975529    9.422175   -3.696304
  82 H     1.0000    0     1.008    9.048009   -4.310465   -0.349599
  83 H     1.0000    0     1.008    9.184069    3.994881    3.613156
  84 H     1.0000    0     1.008   13.041000    6.672623    3.348595
  85 H     1.0000    0     1.008   13.951848   11.544337    0.672743
  86 H     1.0000    0     1.008   15.900156    8.791006    0.822031
  87 H     1.0000    0     1.008   14.968521   10.034446   -2.173185
  88 H     1.0000    0     1.008    9.983423    0.634948   -0.338261
  89 H     1.0000    0     1.008    7.029781    6.863485   -3.717091

--------------------------------
INTERNAL COORDINATES (ANGSTROEM)
--------------------------------
 C      0   0   0     0.000000000000     0.00000000     0.00000000
 C      1   0   0     5.975416052460     0.00000000     0.00000000
 C      1   2   0     2.413758272901    36.31094815     0.00000000
 C      3   1   2     1.403386618149    87.88448290   257.41920790
 C      4   3   1     1.379775706410   120.20444802     0.11736632
 C      5   4   3     2.448092318521   152.51354245     1.69635426
 C      2   1   3     1.368114030335    12.40336897    29.13625756
 C      7   2   3     1.434084376876   108.05010202     0.84668783
 C      2   1   3     1.434123425651   113.41898987   321.65603398
 C      1   2   3     1.381707277248    40.28144649    49.31276071
 N      1   2   3     1.352719113490    97.90741796   279.87549348
 N      9   2   1     1.376127174356   106.58526707    11.29475875
 N     12   9   2     2.925062050624   168.53581413   171.12065651
 N     13  12   9     2.954513327098    91.55032014    11.12112580
 N     14  13  12     2.925371258490    88.43092389   359.84326247
 C      8   7   2     1.404790019896   127.24786865   181.11170171
 C     13  12   9     1.366535034311    81.72106996   188.00453233
 C     14  13  12     5.758810554272    80.56209567   166.76250791
 C     17  13  12     1.459010623676   111.08861209   183.82872609
 C     18  14  13     2.412235892279    27.27532823    36.33507194
 C     20  18  14     1.402692767501    87.95206320   148.94598259
 C     21  20  18     1.382106725257   120.14573887   359.70382047
 C     18  14  13     2.446510985056   144.15733107    82.80075377
 C     19  17  13     1.353610726908   106.29293361   359.75308708
 C     13  12   9     1.366813447402   172.21332906    33.46711076
 C     18  14  13     1.380960173213    15.08449437   309.23336894
 N     22  21  20     1.352773077792   120.73759875     0.27865223
 C     25  13  17     1.410897586645   125.60330303   182.37774668
 C     14  13  12     1.376642291955    80.24689249   177.85461986
 C     14  13  12     5.764089607215   164.51507311   312.20821879
 C     29  14  13     1.435600919476   106.58649366   178.76395472
 C     30  14  13     2.413316804732    27.10625047    82.12560436
 C     32  30  14     1.403734305344    87.90059683   149.76154742
 C     33  32  30     1.380694028378   120.14881443   359.74174632
 C     34  33  32     2.448777858443   152.49203239     2.45173620
 C     31  29  14     1.368160809262   108.16950133     0.70383075
 C     14  13  12     1.376239804685   169.26375223   353.09862627
 C     30  14  13     1.380907310430    14.68948582   353.70041132
 N     34  33  32     1.352658863128   120.85575621     0.19603406
 C     37  14  29     1.404717053360   126.01551127   180.90772073
 C     15  14  13     1.366491126938    81.61824056   183.09049352
 C      2   1   3     4.249062720177   159.23167709   129.21369938
 C     41  15  14     1.459677704153   111.05201287   175.08990246
 C     42   2   1     2.412953791518    41.78584867   167.77550189
 C     44  42   2     1.403446472082    87.95153797   233.97558675
 C     45  44  42     1.381696421071   120.11137308     0.19721020
 C     42   2   1     2.450019795838   135.97209175    78.09035099
 C     43  41  15     1.354461516618   106.26758155     0.30894352
 C     15  14  13     1.367461151185   171.87382904   332.35056460
 C     42   2   1     1.381886391857    32.59078432   216.63078108
 C      9   2   1     1.404988612053   126.98745415   192.29909628
 N     42   2   1     1.352765315936   113.57249190   105.82694018
 H      1   2   3     1.082720185459   131.57320779   143.25861947
 H      2   1   3     1.079907866440   120.22737420   153.36241412
 H      4   3   1     1.083675689494   120.98773264   179.54093270
 H      5   4   3     1.082105817376   122.82891886   179.39758387
 H      6   5   4     1.092314057403   104.41897956    99.99388197
 H      6   5   4     1.089302529144    84.66801787   209.51321450
 H      6   5   4     1.089877516054   133.85365064   322.32287104
 H      7   2  54     1.079807853278   126.66122480     1.30600390
 H     10   1   2     1.084101932477   118.74521742   118.00161797
 H     12   9   2     1.016297692608   125.29023241   180.00180175
 H     14  13  12     1.014936943854    44.97226959   359.42596618
 H     18  14  13     1.082871645210   128.03556573   234.20482432
 H     19  17  13     1.080893611786   126.41830519   178.11313280
 H     21  20  18     1.083569563987   121.05669627   180.67006309
 H     22  21  20     1.082483256222   122.73097286   180.59748951
 H     23  18  14     1.092105306278   103.92715769   234.93429879
 H     23  18  14     1.088871893291   134.19244188    12.25587044
 H     23  18  14     1.089833473518    84.85857450   125.45241208
 H     24  19  17     1.080075460327   127.28078426   178.44613241
 H     26  18  14     1.083408048706   118.76995697   244.94906660
 H     30  14  13     1.082703098730   127.99711412   279.66882698
 H     31  29  14     1.079759695488   125.22293469   180.92530585
 H     33  32  30     1.083188810873   121.01964473   180.74284758
 H     34  33  32     1.082494341787   122.70821597   180.59516895
 H     35  34  33     1.092652735319   105.73575241    97.19771933
 H     35  34  33     1.089462711615    84.05943581   206.43036958
 H     35  34  33     1.089268102902   133.08365142   318.50306270
 H     36  31  29     1.079439669458   126.61599965   178.98859863
 H     38  30  73     1.083742127999   118.77264435   359.90091293
 H     42   2   1     1.082178358682   119.31790784   322.45847064
 H     43  41  15     1.080281907652   126.36969097   182.06329380
 H     45  44  42     1.083277434455   121.10105945   179.58025624
 H     46  45  44     1.082194529648   122.72144639   179.46906377
 H     47  42   2     1.091546151109   106.65128841   315.16475048
 H     47  42   2     1.088818625851   132.46019523    94.52397119
 H     47  42   2     1.089531091801    83.63838232   206.04504406
 H     48  43  41     1.080402239909   127.23657387   181.62955349
 H     50  42   2     1.083186502870   118.77001737    94.71359229

---------------------------
INTERNAL COORDINATES (A.U.)
---------------------------
 C      0   0   0     0.000000000000     0.00000000     0.00000000
 C      1   0   0    11.291899875387     0.00000000     0.00000000
 C      1   2   0     4.561342089270    36.31094815     0.00000000
 C      3   1   2     2.652016368312    87.88448290   257.41920790
 C      4   3   1     2.607398211353   120.20444802     0.11736632
 C      5   4   3     4.626224032560   152.51354245     1.69635426
 C      2   1   3     2.585360837309    12.40336897    29.13625756
 C      7   2   3     2.710026725231   108.05010202     0.84668783
 C      2   1   3     2.710100516721   113.41898987   321.65603398
 C      1   2   3     2.611048351245    40.28144649    49.31276071
 N      1   2   3     2.556268660616    97.90741796   279.87549348
 N      9   2   1     2.600503484979   106.58526707    11.29475875
 N     12   9   2     5.527566200405   168.53581413   171.12065651
 N     13  12   9     5.583221047236    91.55032014    11.12112580
 N     14  13  12     5.528150518591    88.43092389   359.84326247
 C      8   7   2     2.654668413270   127.24786865   181.11170171
 C     13  12   9     2.582376967257    81.72106996   188.00453233
 C     14  13  12    10.882574804710    80.56209567   166.76250791
 C     17  13  12     2.757130505230   111.08861209   183.82872609
 C     18  14  13     4.558465206823    27.27532823    36.33507194
 C     20  18  14     2.650705180609    87.95206320   148.94598259
 C     21  20  18     2.611803198586   120.14573887   359.70382047
 C     18  14  13     4.623235745386   144.15733107    82.80075377
 C     19  17  13     2.557953565794   106.29293361   359.75308708
 C     13  12   9     2.582903091751   172.21332906    33.46711076
 C     18  14  13     2.609636529225    15.08449437   309.23336894
 N     22  21  20     2.556370638369   120.73759875     0.27865223
 C     25  13  17     2.666210041769   125.60330303   182.37774668
 C     14  13  12     2.601476916169    80.24689249   177.85461986
 C     14  13  12    10.892550769017   164.51507311   312.20821879
 C     29  14  13     2.712892575415   106.58649366   178.76395472
 C     30  14  13     4.560507835333    27.10625047    82.12560436
 C     32  30  14     2.652673401891    87.90059683   149.76154742
 C     33  32  30     2.609133588376   120.14881443   359.74174632
 C     34  33  32     4.627519515267   152.49203239     2.45173620
 C     31  29  14     2.585449236669   108.16950133     0.70383075
 C     14  13  12     2.600716325456   169.26375223   353.09862627
 C     30  14  13     2.609536633043    14.68948582   353.70041132
 N     34  33  32     2.556154803934   120.85575621     0.19603406
 C     37  14  29     2.654530526499   126.01551127   180.90772073
 C     15  14  13     2.582293994346    81.61824056   183.09049352
 C      2   1   3     8.029564866989   159.23167709   129.21369938
 C     41  15  14     2.758391104639   111.05201287   175.08990246
 C     42   2   1     4.559821839776    41.78584867   167.77550189
 C     44  42   2     2.652129475853    87.95153797   233.97558675
 C     45  44  42     2.611027836043   120.11137308     0.19721020
 C     42   2   1     4.629866436820   135.97209175    78.09035099
 C     43  41  15     2.559561325344   106.26758155     0.30894352
 C     15  14  13     2.584127074516   171.87382904   332.35056460
 C     42   2   1     2.611386828803    32.59078432   216.63078108
 C      9   2   1     2.655043698059   126.98745415   192.29909628
 N     42   2   1     2.556355970587   113.57249190   105.82694018
 H      1   2   3     2.046044630186   131.57320779   143.25861947
 H      2   1   3     2.040730117440   120.22737420   153.36241412
 H      4   3   1     2.047850271132   120.98773264   179.54093270
 H      5   4   3     2.044883642765   122.82891886   179.39758387
 H      6   5   4     2.064174420724   104.41897956    99.99388197
 H      6   5   4     2.058483457070    84.66801787   209.51321450
 H      6   5   4     2.059570024860   133.85365064   322.32287104
 H      7   2  54     2.040541119952   126.66122480     1.30600390
 H     10   1   2     2.048655753636   118.74521742   118.00161797
 H     12   9   2     1.920524309565   125.29023241   180.00180175
 H     14  13  12     1.917952867083    44.97226959   359.42596618
 H     18  14  13     2.046330847636   128.03556573   234.20482432
 H     19  17  13     2.042592906181   126.41830519   178.11313280
 H     21  20  18     2.047649722989   121.05669627   180.67006309
 H     22  21  20     2.045596898814   122.73097286   180.59748951
 H     23  18  14     2.063779938267   103.92715769   234.93429879
 H     23  18  14     2.057669673245   134.19244188    12.25587044
 H     23  18  14     2.059486796529    84.85857450   125.45241208
 H     24  19  17     2.041046823986   127.28078426   178.44613241
 H     26  18  14     2.047344503340   118.76995697   244.94906660
 H     30  14  13     2.046012340948   127.99711412   279.66882698
 H     31  29  14     2.040450114918   125.22293469   180.92530585
 H     33  32  30     2.046930203877   121.01964473   180.74284758
 H     34  33  32     2.045617847496   122.70821597   180.59516895
 H     35  34  33     2.064814429233   105.73575241    97.19771933
 H     35  34  33     2.058786158072    84.05943581   206.43036958
 H     35  34  33     2.058418400901   133.08365142   318.50306270
 H     36  31  29     2.039845353366   126.61599965   178.98859863
 H     38  30  73     2.047975821711   118.77264435   359.90091293
 H     42   2   1     2.045020725966   119.31790784   322.45847064
 H     43  41  15     2.041436952892   126.36969097   182.06329380
 H     45  44  42     2.047097678177   121.10105945   179.58025624
 H     46  45  44     2.045051284662   122.72144639   179.46906377
 H     47  42   2     2.062723288131   106.65128841   315.16475048
 H     47  42   2     2.057569012371   132.46019523    94.52397119
 H     47  42   2     2.058915377895    83.63838232   206.04504406
 H     48  43  41     2.041664347903   127.23657387   181.62955349
 H     50  42   2     2.046925842384   118.77001737    94.71359229

---------------------
BASIS SET INFORMATION
---------------------
There are 3 groups of distinct atoms

 Group   1 Type C   : 17s4p1d contracted to 3s2p1d pattern {881/31/1}
 Group   2 Type N   : 17s4p1d contracted to 3s2p1d pattern {881/31/1}
 Group   3 Type H   : 4s1p contracted to 2s1p pattern {31/1}

Atom   0C    basis set group =>   1
Atom   1N    basis set group =>   2
Atom   2C    basis set group =>   1
Atom   3N    basis set group =>   2
Atom   4C    basis set group =>   1
Atom   5N    basis set group =>   2
Atom   6C    basis set group =>   1
Atom   7N    basis set group =>   2
Atom   8C    basis set group =>   1
Atom   9N    basis set group =>   2
Atom  10C    basis set group =>   1
Atom  11N    basis set group =>   2
Atom  12C    basis set group =>   1
Atom  13N    basis set group =>   2
Atom  14C    basis set group =>   1
Atom  15N    basis set group =>   2
Atom  16C    basis set group =>   1
Atom  17C    basis set group =>   1
Atom  18C    basis set group =>   1
Atom  19C    basis set group =>   1
Atom  20C    basis set group =>   1
Atom  21C    basis set group =>   1
Atom  22C    basis set group =>   1
Atom  23C    basis set group =>   1
Atom  24C    basis set group =>   1
Atom  25C    basis set group =>   1
Atom  26C    basis set group =>   1
Atom  27C    basis set group =>   1
Atom  28C    basis set group =>   1
Atom  29C    basis set group =>   1
Atom  30C    basis set group =>   1
Atom  31C    basis set group =>   1
Atom  32C    basis set group =>   1
Atom  33C    basis set group =>   1
Atom  34C    basis set group =>   1
Atom  35C    basis set group =>   1
Atom  36C    basis set group =>   1
Atom  37C    basis set group =>   1
Atom  38C    basis set group =>   1
Atom  39C    basis set group =>   1
Atom  40C    basis set group =>   1
Atom  41C    basis set group =>   1
Atom  42C    basis set group =>   1
Atom  43C    basis set group =>   1
Atom  44C    basis set group =>   1
Atom  45C    basis set group =>   1
Atom  46C    basis set group =>   1
Atom  47C    basis set group =>   1
Atom  48C    basis set group =>   1
Atom  49C    basis set group =>   1
Atom  50C    basis set group =>   1
Atom  51C    basis set group =>   1
Atom  52H    basis set group =>   3
Atom  53H    basis set group =>   3
Atom  54H    basis set group =>   3
Atom  55H    basis set group =>   3
Atom  56H    basis set group =>   3
Atom  57H    basis set group =>   3
Atom  58H    basis set group =>   3
Atom  59H    basis set group =>   3
Atom  60H    basis set group =>   3
Atom  61H    basis set group =>   3
Atom  62H    basis set group =>   3
Atom  63H    basis set group =>   3
Atom  64H    basis set group =>   3
Atom  65H    basis set group =>   3
Atom  66H    basis set group =>   3
Atom  67H    basis set group =>   3
Atom  68H    basis set group =>   3
Atom  69H    basis set group =>   3
Atom  70H    basis set group =>   3
Atom  71H    basis set group =>   3
Atom  72H    basis set group =>   3
Atom  73H    basis set group =>   3
Atom  74H    basis set group =>   3
Atom  75H    basis set group =>   3
Atom  76H    basis set group =>   3
Atom  77H    basis set group =>   3
Atom  78H    basis set group =>   3
Atom  79H    basis set group =>   3
Atom  80H    basis set group =>   3
Atom  81H    basis set group =>   3
Atom  82H    basis set group =>   3
Atom  83H    basis set group =>   3
Atom  84H    basis set group =>   3
Atom  85H    basis set group =>   3
Atom  86H    basis set group =>   3
Atom  87H    basis set group =>   3
Atom  88H    basis set group =>   3
Atom  89H    basis set group =>   3


           ************************************************************
           *        Program running with 16 parallel MPI-processes    *
           *              working on a common directory               *
           ************************************************************
------------------------------------------------------------------------------
                           ORCA GTO INTEGRAL CALCULATION
------------------------------------------------------------------------------
------------------------------------------------------------------------------
                   ___                                                        
                  /   \      - P O W E R E D   B Y -                         
                 /     \                                                     
                 |  |  |   _    _      __       _____    __    __             
                 |  |  |  | |  | |    /  \     |  _  \  |  |  /  |          
                  \  \/   | |  | |   /    \    | | | |  |  | /  /          
                 / \  \   | |__| |  /  /\  \   | |_| |  |  |/  /          
                |  |  |   |  __  | /  /__\  \  |    /   |      \           
                |  |  |   | |  | | |   __   |  |    \   |  |\   \          
                \     /   | |  | | |  |  |  |  | |\  \  |  | \   \       
                 \___/    |_|  |_| |__|  |__|  |_| \__\ |__|  \__/        
                                                                              
                      - O R C A' S   B I G   F R I E N D -                    
                                      &                                       
                       - I N T E G R A L  F E E D E R -                       
                                                                              
 v1 FN, 2020, v2 2021                                                         
------------------------------------------------------------------------------


Reading SHARK input file /scratch/allen/tmpyp4_amber_gaff2/conf1/conf1/Conf263.orca.SHARKINP.tmp ... ok
----------------------
SHARK INTEGRAL PACKAGE
----------------------

Number of atoms                             ...     90
Number of basis functions                   ...   1230
Number of shells                            ...    738
Maximum angular momentum                    ...      2
Integral batch strategy                     ... SHARK/LIBINT Hybrid
RI-J (if used) integral strategy            ... SPLIT-RIJ (Revised 2003 algorithm where possible)
Printlevel                                  ...      1
Contraction scheme used                     ... PARTIAL GENERAL contraction
Coulomb Range Separation                    ... NOT USED
Exchange Range Separation                   ... NOT USED
Finite Nucleus Model                        ... NOT USED
Auxiliary Coulomb fitting basis             ... NOT available
Auxiliary J/K fitting basis                 ... NOT available
Auxiliary Correlation fitting basis         ... NOT available
Auxiliary 'external' fitting basis          ... NOT available
Integral threshold                          ...     2.500000e-11
Primitive cut-off                           ...     2.500000e-12
Primitive pair pre-selection threshold      ...     2.500000e-12

Calculating pre-screening integrals         ... done (  0.1 sec) Dimension = 738
Calculating pre-screening integrals (ORCA)  ... done (  0.3 sec) Dimension = 426
Organizing shell pair data                  ... done (  0.7 sec)
Shell pair information
Total number of shell pairs                 ...    272691
Shell pairs after pre-screening             ...     71598
Total number of primitive shell pairs       ...    422091
Primitive shell pairs kept                  ...     92343
          la=0 lb=0:  29416 shell pairs
          la=1 lb=0:  25962 shell pairs
          la=1 lb=1:   4686 shell pairs
          la=2 lb=0:   7892 shell pairs
          la=2 lb=1:   3111 shell pairs
          la=2 lb=2:    531 shell pairs

Calculating one electron integrals          ... done (  0.2 sec)
Calculating Nuclear repulsion               ... done (  0.0 sec) ENN=   6222.069253354678 Eh

SHARK setup successfully completed in   2.4 seconds

Maximum memory used throughout the entire GTOINT-calculation: 98.9 MB


           ************************************************************
           *        Program running with 16 parallel MPI-processes    *
           *              working on a common directory               *
           ************************************************************
-------------------------------------------------------------------------------
                                 ORCA SCF
-------------------------------------------------------------------------------

------------
SCF SETTINGS
------------
Hamiltonian:
 Ab initio Hamiltonian  Method          .... Hartree-Fock(GTOs)


General Settings:
 Integral files         IntName         .... /scratch/allen/tmpyp4_amber_gaff2/conf1/conf1/Conf263.orca
 Hartree-Fock type      HFTyp           .... RHF
 Total Charge           Charge          ....    0
 Multiplicity           Mult            ....    1
 Number of Electrons    NEL             ....  358
 Basis Dimension        Dim             ....  918
 Nuclear Repulsion      ENuc            ....   6222.0692533547 Eh

Convergence Acceleration:
 DIIS                   CNVDIIS         .... on
   Start iteration      DIISMaxIt       ....    12
   Startup error        DIISStart       ....  0.200000
   # of expansion vecs  DIISMaxEq       ....     5
   Bias factor          DIISBfac        ....   1.050
   Max. coefficient     DIISMaxC        ....  10.000
 Trust-Rad. Augm. Hess. CNVTRAH         .... auto
   Auto Start mean grad. ratio tolernc. ....  1.125000
   Auto Start start iteration           ....    20
   Auto Start num. interpolation iter.  ....    10
   Max. Number of Micro iterations      ....    16
   Max. Number of Macro iterations      .... Maxiter - #DIIS iter
   Number of Davidson start vectors     ....     2
   Converg. threshold I  (grad. norm)   ....   1.000e-05
   Converg. threshold II (energy diff.) ....   1.000e-08
   Grad. Scal. Fac. for Micro threshold ....   0.100
   Minimum threshold for Micro iter.    ....   0.010
   NR start threshold (gradient norm)   ....   0.001
   Initial trust radius                 ....   0.400
   Minimum AH scaling param. (alpha)    ....   1.000
   Maximum AH scaling param. (alpha)    .... 1000.000
   Orbital update algorithm             .... Taylor
   White noise on init. David. guess    .... on
   Maximum white noise                  ....   0.010
   Quad. conv. algorithm                .... NR
 SOSCF                  CNVSOSCF        .... on
   Start iteration      SOSCFMaxIt      ....   150
   Startup grad/error   SOSCFStart      ....  0.003300
 Level Shifting         CNVShift        .... on
   Level shift para.    LevelShift      ....    0.2500
   Turn off err/grad.   ShiftErr        ....    0.0010
 Zerner damping         CNVZerner       .... off
 Static damping         CNVDamp         .... on
   Fraction old density DampFac         ....    0.7000
   Max. Damping (<1)    DampMax         ....    0.9800
   Min. Damping (>=0)   DampMin         ....    0.0000
   Turn off err/grad.   DampErr         ....    0.1000
 Fernandez-Rico         CNVRico         .... off

SCF Procedure:
 Maximum # iterations   MaxIter         ....   125
 SCF integral mode      SCFMode         .... Direct
   Integral package                     .... SHARK and LIBINT hybrid scheme
 Reset frequency        DirectResetFreq ....    20
 Integral Threshold     Thresh          ....  2.500e-11 Eh
 Primitive CutOff       TCut            ....  2.500e-12 Eh

Convergence Tolerance:
 Convergence Check Mode ConvCheckMode   .... Total+1el-Energy
 Convergence forced     ConvForced      .... 1
 Energy Change          TolE            ....  1.000e-08 Eh
 1-El. energy change                    ....  1.000e-05 Eh
 Orbital Gradient       TolG            ....  1.000e-05
 Orbital Rotation angle TolX            ....  1.000e-05
 DIIS Error             TolErr          ....  5.000e-07


Diagonalization of the overlap matrix:
Smallest eigenvalue                        ... 2.262e-04
Time for diagonalization                   ...    0.435 sec
Threshold for overlap eigenvalues          ... 1.000e-08
Number of eigenvalues below threshold      ... 0
Time for construction of square roots      ...    0.266 sec
Total time needed                          ...    0.708 sec

Time for model grid setup =    1.299 sec

------------------------------
INITIAL GUESS: MODEL POTENTIAL
------------------------------
Loading Hartree-Fock densities                     ... done
Calculating cut-offs                               ... done
Initializing the effective Hamiltonian             ... done
Setting up the integral package (SHARK)            ... done
Starting the Coulomb interaction                   ... done (   1.4 sec)
Reading the grid                                   ... done
Mapping shells                                     ... done
Starting the XC term evaluation                    ... done (   0.2 sec)
Transforming the Hamiltonian                       ... done (   0.3 sec)
Diagonalizing the Hamiltonian                      ... done (   0.4 sec)
Back transforming the eigenvectors                 ... done (   0.1 sec)
Now organizing SCF variables                       ... done
                      ------------------
                      INITIAL GUESS DONE (   3.8 sec)
                      ------------------
--------------
SCF ITERATIONS
--------------
ITER       Energy         Delta-E        Max-DP      RMS-DP      [F,P]     Damp
               ***  Starting incremental Fock matrix formation  ***
  0  -2121.6422155534   0.000000000000 0.06933282  0.00121236  0.2350073 0.7000
  1  -2122.3112064150  -0.668990861546 0.05270467  0.00098251  0.1453644 0.7000
                               ***Turning on DIIS***
  2  -2122.7273726300  -0.416166215080 0.11738764  0.00222092  0.0806931 0.0000
  3  -2117.7571860904   4.970186539607 0.03416603  0.00068629  0.0442676 0.0000
  4  -2123.4110315564  -5.653845465959 0.00927582  0.00023061  0.0073542 0.0000
  5  -2123.5804262719  -0.169394715511 0.00537234  0.00013889  0.0051471 0.0000
  6  -2123.5598145744   0.020611697517 0.00452743  0.00009493  0.0024328 0.0000
  7  -2123.6647995703  -0.104984995944 0.00404666  0.00007990  0.0019107 0.0000
  8  -2123.6932452392  -0.028445668902 0.00392382  0.00008119  0.0017967 0.0000
                      *** Initiating the SOSCF procedure ***
                           *** Shutting down DIIS ***
                      *** Re-Reading the Fockian *** 
                      *** Removing any level shift *** 
ITER      Energy       Delta-E        Grad      Rot      Max-DP    RMS-DP
  9  -2123.65187959   0.0413656515  0.003225  0.003225  0.002951  0.000060
               *** Restarting incremental Fock matrix formation ***
 10  -2123.60834043   0.0435391583  0.002311  0.021866  0.006025  0.000098
 11  -2123.60899015  -0.0006497218  0.001444  0.073743  0.017183  0.000324
 12  -2123.61007359  -0.0010834379  0.001024  0.014263  0.005231  0.000072
 13  -2123.61034739  -0.0002738030  0.000801  0.016680  0.005232  0.000087
 14  -2123.61054059  -0.0001931947  0.000449  0.012430  0.004224  0.000057
 15  -2123.61062166  -0.0000810685  0.000311  0.011597  0.003509  0.000055
 16  -2123.61067844  -0.0000567887  0.000331  0.008210  0.001727  0.000032
 17  -2123.61070263  -0.0000241881  0.000191  0.002064  0.000812  0.000012
 18  -2123.61070926  -0.0000066296  0.000146  0.002312  0.000531  0.000009
 19  -2123.61071285  -0.0000035881  0.000095  0.002738  0.000570  0.000009
 20  -2123.61071532  -0.0000024676  0.000076  0.003866  0.000711  0.000012
 21  -2123.61071724  -0.0000019251  0.000060  0.003005  0.000561  0.000010
 22  -2123.61071827  -0.0000010280  0.000034  0.001708  0.000303  0.000006
 23  -2123.61071874  -0.0000004663  0.000029  0.000746  0.000199  0.000003
 24  -2123.61071897  -0.0000002314  0.000027  0.000680  0.000216  0.000003
 25  -2123.61071912  -0.0000001544  0.000023  0.000757  0.000253  0.000003
 26  -2123.61071924  -0.0000001144  0.000012  0.000653  0.000213  0.000003
 27  -2123.61071931  -0.0000000764  0.000012  0.000390  0.000110  0.000002
 28  -2123.61071934  -0.0000000314  0.000007  0.000114  0.000026  0.000001
 29  -2123.61071936  -0.0000000134  0.000004  0.000039  0.000012  0.000000
               *** Restarting incremental Fock matrix formation ***
                  ***Gradient check signals convergence***
              ***Rediagonalizing the Fockian in SOSCF/NRSCF***

               *****************************************************
               *                     SUCCESS                       *
               *           SCF CONVERGED AFTER  30 CYCLES          *
               *****************************************************


----------------
TOTAL SCF ENERGY
----------------

Total Energy       :        -2123.61071941 Eh          -57786.38548 eV

Components:
Nuclear Repulsion  :         6222.06925335 Eh          169311.11199 eV
Electronic Energy  :        -8345.67997276 Eh         -227097.49747 eV
One Electron Energy:       -15285.61780132 Eh         -415942.80650 eV
Two Electron Energy:         6939.93782856 Eh          188845.30903 eV

Virial components:
Potential Energy   :        -4245.59770303 Eh         -115528.58686 eV
Kinetic Energy     :         2121.98698362 Eh           57742.20138 eV
Virial Ratio       :            2.00076520


---------------
SCF CONVERGENCE
---------------

  Last Energy change         ...   -4.7681e-08  Tolerance :   1.0000e-08
  Last MAX-Density change    ...    1.3155e-05  Tolerance :   1.0000e-07
  Last RMS-Density change    ...    2.5105e-07  Tolerance :   5.0000e-09
  Last Orbital Gradient      ...    2.2574e-06  Tolerance :   1.0000e-05
  Last Orbital Rotation      ...    6.3862e-05  Tolerance :   1.0000e-05

             **** THE GBW FILE WAS UPDATED (/scratch/allen/tmpyp4_amber_gaff2/conf1/conf1/Conf263.orca.gbw) ****
             **** DENSITY /scratch/allen/tmpyp4_amber_gaff2/conf1/conf1/Conf263.orca.scfp WAS UPDATED ****
             **** ENERGY FILE WAS UPDATED (/scratch/allen/tmpyp4_amber_gaff2/conf1/conf1/Conf263.orca.en.tmp) ****
             **** THE GBW FILE WAS UPDATED (/scratch/allen/tmpyp4_amber_gaff2/conf1/conf1/Conf263.orca.gbw) ****
             **** DENSITY /scratch/allen/tmpyp4_amber_gaff2/conf1/conf1/Conf263.orca.scfp WAS UPDATED ****
----------------
ORBITAL ENERGIES
----------------

  NO   OCC          E(Eh)            E(eV) 
   0   2.0000     -15.713254      -427.5794 
   1   2.0000     -15.630059      -425.3155 
   2   2.0000     -15.618830      -425.0100 
   3   2.0000     -15.579866      -423.9497 
   4   2.0000     -15.520495      -422.3341 
   5   2.0000     -15.504968      -421.9116 
   6   2.0000     -15.450840      -420.4387 
   7   2.0000     -15.427680      -419.8085 
   8   2.0000     -11.352765      -308.9244 
   9   2.0000     -11.352061      -308.9053 
  10   2.0000     -11.346516      -308.7544 
  11   2.0000     -11.308155      -307.7105 
  12   2.0000     -11.297303      -307.4152 
  13   2.0000     -11.291572      -307.2593 
  14   2.0000     -11.289771      -307.2103 
  15   2.0000     -11.282915      -307.0237 
  16   2.0000     -11.282765      -307.0196 
  17   2.0000     -11.282072      -307.0008 
  18   2.0000     -11.281463      -306.9842 
  19   2.0000     -11.271822      -306.7219 
  20   2.0000     -11.265262      -306.5434 
  21   2.0000     -11.245862      -306.0155 
  22   2.0000     -11.242312      -305.9189 
  23   2.0000     -11.233705      -305.6847 
  24   2.0000     -11.227801      -305.5240 
  25   2.0000     -11.226906      -305.4996 
  26   2.0000     -11.223159      -305.3977 
  27   2.0000     -11.219180      -305.2894 
  28   2.0000     -11.218856      -305.2806 
  29   2.0000     -11.209867      -305.0360 
  30   2.0000     -11.208368      -304.9952 
  31   2.0000     -11.193843      -304.6000 
  32   2.0000     -11.192745      -304.5701 
  33   2.0000     -11.191704      -304.5417 
  34   2.0000     -11.190704      -304.5145 
  35   2.0000     -11.189929      -304.4935 
  36   2.0000     -11.186323      -304.3953 
  37   2.0000     -11.180854      -304.2465 
  38   2.0000     -11.180783      -304.2446 
  39   2.0000     -11.176099      -304.1171 
  40   2.0000     -11.168385      -303.9072 
  41   2.0000     -11.165031      -303.8159 
  42   2.0000     -11.164211      -303.7936 
  43   2.0000     -11.160830      -303.7016 
  44   2.0000     -11.160780      -303.7003 
  45   2.0000     -11.146112      -303.3011 
  46   2.0000     -11.145638      -303.2882 
  47   2.0000     -11.141565      -303.1774 
  48   2.0000     -11.139125      -303.1110 
  49   2.0000     -11.132230      -302.9234 
  50   2.0000     -11.118157      -302.5404 
  51   2.0000     -11.112821      -302.3952 
  52   2.0000      -1.386409       -37.7261 
  53   2.0000      -1.318037       -35.8656 
  54   2.0000      -1.307821       -35.5876 
  55   2.0000      -1.274692       -34.6861 
  56   2.0000      -1.223644       -33.2971 
  57   2.0000      -1.201018       -32.6814 
  58   2.0000      -1.176543       -32.0154 
  59   2.0000      -1.161781       -31.6137 
  60   2.0000      -1.138076       -30.9686 
  61   2.0000      -1.107058       -30.1246 
  62   2.0000      -1.104996       -30.0685 
  63   2.0000      -1.097625       -29.8679 
  64   2.0000      -1.068494       -29.0752 
  65   2.0000      -1.054246       -28.6875 
  66   2.0000      -1.042369       -28.3643 
  67   2.0000      -1.032771       -28.1031 
  68   2.0000      -1.014690       -27.6111 
  69   2.0000      -1.004221       -27.3262 
  70   2.0000      -1.001712       -27.2580 
  71   2.0000      -0.993677       -27.0393 
  72   2.0000      -0.984856       -26.7993 
  73   2.0000      -0.977318       -26.5942 
  74   2.0000      -0.963911       -26.2293 
  75   2.0000      -0.962003       -26.1774 
  76   2.0000      -0.951090       -25.8805 
  77   2.0000      -0.940967       -25.6050 
  78   2.0000      -0.930873       -25.3304 
  79   2.0000      -0.920841       -25.0574 
  80   2.0000      -0.913316       -24.8526 
  81   2.0000      -0.890100       -24.2208 
  82   2.0000      -0.885362       -24.0919 
  83   2.0000      -0.869308       -23.6551 
  84   2.0000      -0.860263       -23.4089 
  85   2.0000      -0.847296       -23.0561 
  86   2.0000      -0.830206       -22.5911 
  87   2.0000      -0.827743       -22.5240 
  88   2.0000      -0.820816       -22.3356 
  89   2.0000      -0.794640       -21.6232 
  90   2.0000      -0.786520       -21.4023 
  91   2.0000      -0.769299       -20.9337 
  92   2.0000      -0.736015       -20.0280 
  93   2.0000      -0.733596       -19.9622 
  94   2.0000      -0.728370       -19.8200 
  95   2.0000      -0.722697       -19.6656 
  96   2.0000      -0.716457       -19.4958 
  97   2.0000      -0.708183       -19.2706 
  98   2.0000      -0.705312       -19.1925 
  99   2.0000      -0.703335       -19.1387 
 100   2.0000      -0.695729       -18.9317 
 101   2.0000      -0.688732       -18.7413 
 102   2.0000      -0.684164       -18.6170 
 103   2.0000      -0.675021       -18.3682 
 104   2.0000      -0.673344       -18.3226 
 105   2.0000      -0.667582       -18.1658 
 106   2.0000      -0.667094       -18.1526 
 107   2.0000      -0.662612       -18.0306 
 108   2.0000      -0.652592       -17.7579 
 109   2.0000      -0.649724       -17.6799 
 110   2.0000      -0.648436       -17.6448 
 111   2.0000      -0.642347       -17.4791 
 112   2.0000      -0.640375       -17.4255 
 113   2.0000      -0.635473       -17.2921 
 114   2.0000      -0.631079       -17.1725 
 115   2.0000      -0.630211       -17.1489 
 116   2.0000      -0.626622       -17.0512 
 117   2.0000      -0.616767       -16.7831 
 118   2.0000      -0.611410       -16.6373 
 119   2.0000      -0.609984       -16.5985 
 120   2.0000      -0.609199       -16.5771 
 121   2.0000      -0.600930       -16.3521 
 122   2.0000      -0.589860       -16.0509 
 123   2.0000      -0.589164       -16.0320 
 124   2.0000      -0.584920       -15.9165 
 125   2.0000      -0.578990       -15.7551 
 126   2.0000      -0.575438       -15.6585 
 127   2.0000      -0.572268       -15.5722 
 128   2.0000      -0.570982       -15.5372 
 129   2.0000      -0.566825       -15.4241 
 130   2.0000      -0.556415       -15.1408 
 131   2.0000      -0.545091       -14.8327 
 132   2.0000      -0.541675       -14.7397 
 133   2.0000      -0.539428       -14.6786 
 134   2.0000      -0.533821       -14.5260 
 135   2.0000      -0.529554       -14.4099 
 136   2.0000      -0.518790       -14.1170 
 137   2.0000      -0.516097       -14.0437 
 138   2.0000      -0.513253       -13.9663 
 139   2.0000      -0.512819       -13.9545 
 140   2.0000      -0.510343       -13.8871 
 141   2.0000      -0.503118       -13.6905 
 142   2.0000      -0.501199       -13.6383 
 143   2.0000      -0.498496       -13.5648 
 144   2.0000      -0.495298       -13.4777 
 145   2.0000      -0.493597       -13.4314 
 146   2.0000      -0.489258       -13.3134 
 147   2.0000      -0.474453       -12.9105 
 148   2.0000      -0.471823       -12.8389 
 149   2.0000      -0.466127       -12.6840 
 150   2.0000      -0.461896       -12.5688 
 151   2.0000      -0.460216       -12.5231 
 152   2.0000      -0.451869       -12.2960 
 153   2.0000      -0.441031       -12.0011 
 154   2.0000      -0.433859       -11.8059 
 155   2.0000      -0.432080       -11.7575 
 156   2.0000      -0.418833       -11.3970 
 157   2.0000      -0.415618       -11.3095 
 158   2.0000      -0.412491       -11.2245 
 159   2.0000      -0.406277       -11.0554 
 160   2.0000      -0.381738       -10.3876 
 161   2.0000      -0.369824       -10.0634 
 162   2.0000      -0.354204        -9.6384 
 163   2.0000      -0.352563        -9.5937 
 164   2.0000      -0.345910        -9.4127 
 165   2.0000      -0.340886        -9.2760 
 166   2.0000      -0.338509        -9.2113 
 167   2.0000      -0.319236        -8.6868 
 168   2.0000      -0.312921        -8.5150 
 169   2.0000      -0.303839        -8.2679 
 170   2.0000      -0.298244        -8.1156 
 171   2.0000      -0.282909        -7.6983 
 172   2.0000      -0.276267        -7.5176 
 173   2.0000      -0.266013        -7.2386 
 174   2.0000      -0.230261        -6.2657 
 175   2.0000      -0.183326        -4.9886 
 176   2.0000      -0.173498        -4.7211 
 177   2.0000      -0.062608        -1.7037 
 178   2.0000      -0.050732        -1.3805 
 179   0.0000       0.035358         0.9621 
 180   0.0000       0.055655         1.5145 
 181   0.0000       0.077987         2.1221 
 182   0.0000       0.098231         2.6730 
 183   0.0000       0.102087         2.7779 
 184   0.0000       0.126124         3.4320 
 185   0.0000       0.140458         3.8221 
 186   0.0000       0.148899         4.0517 
 187   0.0000       0.162456         4.4207 
 188   0.0000       0.166571         4.5326 
 189   0.0000       0.167354         4.5539 
 190   0.0000       0.168682         4.5901 
 191   0.0000       0.173055         4.7091 
 192   0.0000       0.177920         4.8414 
 193   0.0000       0.194017         5.2795 
 194   0.0000       0.202637         5.5140 
 195   0.0000       0.205373         5.5885 
 196   0.0000       0.211413         5.7528 
 197   0.0000       0.212315         5.7774 
 198   0.0000       0.217736         5.9249 
 199   0.0000       0.219928         5.9846 
 200   0.0000       0.232511         6.3269 
 201   0.0000       0.235039         6.3957 
 202   0.0000       0.238106         6.4792 
 203   0.0000       0.240276         6.5382 
 204   0.0000       0.241488         6.5712 
 205   0.0000       0.246767         6.7149 
 206   0.0000       0.249072         6.7776 
 207   0.0000       0.250954         6.8288 
 208   0.0000       0.253735         6.9045 
 209   0.0000       0.258264         7.0277 
 210   0.0000       0.263627         7.1736 
 211   0.0000       0.266794         7.2598 
 212   0.0000       0.267228         7.2716 
 213   0.0000       0.273756         7.4493 
 214   0.0000       0.279203         7.5975 
 215   0.0000       0.280293         7.6272 
 216   0.0000       0.283757         7.7214 
 217   0.0000       0.284682         7.7466 
 218   0.0000       0.288283         7.8446 
 219   0.0000       0.289048         7.8654 
 220   0.0000       0.290461         7.9038 
 221   0.0000       0.294239         8.0066 
 222   0.0000       0.298256         8.1160 
 223   0.0000       0.299088         8.1386 
 224   0.0000       0.300552         8.1784 
 225   0.0000       0.305123         8.3028 
 226   0.0000       0.305838         8.3223 
 227   0.0000       0.306604         8.3431 
 228   0.0000       0.316742         8.6190 
 229   0.0000       0.319434         8.6922 
 230   0.0000       0.327020         8.8987 
 231   0.0000       0.328909         8.9501 
 232   0.0000       0.331608         9.0235 
 233   0.0000       0.335500         9.1294 
 234   0.0000       0.339557         9.2398 
 235   0.0000       0.357281         9.7221 
 236   0.0000       0.358322         9.7504 
 237   0.0000       0.361620         9.8402 
 238   0.0000       0.377379        10.2690 
 239   0.0000       0.389892        10.6095 
 240   0.0000       0.396997        10.8028 
 241   0.0000       0.398667        10.8483 
 242   0.0000       0.408210        11.1080 
 243   0.0000       0.418971        11.4008 
 244   0.0000       0.423802        11.5322 
 245   0.0000       0.429556        11.6888 
 246   0.0000       0.436506        11.8779 
 247   0.0000       0.438356        11.9283 
 248   0.0000       0.442690        12.0462 
 249   0.0000       0.445234        12.1154 
 250   0.0000       0.451610        12.2889 
 251   0.0000       0.456101        12.4111 
 252   0.0000       0.461107        12.5474 
 253   0.0000       0.468535        12.7495 
 254   0.0000       0.470288        12.7972 
 255   0.0000       0.476989        12.9795 
 256   0.0000       0.477632        12.9970 
 257   0.0000       0.483778        13.1643 
 258   0.0000       0.485937        13.2230 
 259   0.0000       0.492748        13.4084 
 260   0.0000       0.501965        13.6592 
 261   0.0000       0.504786        13.7359 
 262   0.0000       0.508137        13.8271 
 263   0.0000       0.508934        13.8488 
 264   0.0000       0.511664        13.9231 
 265   0.0000       0.516925        14.0662 
 266   0.0000       0.521112        14.1802 
 267   0.0000       0.525304        14.2942 
 268   0.0000       0.531697        14.4682 
 269   0.0000       0.540753        14.7146 
 270   0.0000       0.543483        14.7889 
 271   0.0000       0.544849        14.8261 
 272   0.0000       0.547904        14.9092 
 273   0.0000       0.549404        14.9500 
 274   0.0000       0.551982        15.0202 
 275   0.0000       0.559885        15.2352 
 276   0.0000       0.567985        15.4557 
 277   0.0000       0.571338        15.5469 
 278   0.0000       0.578240        15.7347 
 279   0.0000       0.585429        15.9303 
 280   0.0000       0.588614        16.0170 
 281   0.0000       0.594206        16.1692 
 282   0.0000       0.596417        16.2293 
 283   0.0000       0.598636        16.2897 
 284   0.0000       0.601270        16.3614 
 285   0.0000       0.602802        16.4031 
 286   0.0000       0.605128        16.4664 
 287   0.0000       0.607821        16.5396 
 288   0.0000       0.613082        16.6828 
 289   0.0000       0.619872        16.8676 
 290   0.0000       0.626121        17.0376 
 291   0.0000       0.629390        17.1266 
 292   0.0000       0.631183        17.1754 
 293   0.0000       0.636779        17.3276 
 294   0.0000       0.643009        17.4972 
 295   0.0000       0.646905        17.6032 
 296   0.0000       0.652185        17.7469 
 297   0.0000       0.656558        17.8658 
 298   0.0000       0.659934        17.9577 
 299   0.0000       0.662720        18.0335 
 300   0.0000       0.665650        18.1133 
 301   0.0000       0.668766        18.1981 
 302   0.0000       0.671306        18.2672 
 303   0.0000       0.674521        18.3546 
 304   0.0000       0.677743        18.4423 
 305   0.0000       0.679489        18.4898 
 306   0.0000       0.683550        18.6003 
 307   0.0000       0.687661        18.7122 
 308   0.0000       0.691129        18.8066 
 309   0.0000       0.696098        18.9418 
 310   0.0000       0.698079        18.9957 
 311   0.0000       0.700897        19.0724 
 312   0.0000       0.706000        19.2112 
 313   0.0000       0.706690        19.2300 
 314   0.0000       0.714624        19.4459 
 315   0.0000       0.714691        19.4477 
 316   0.0000       0.715254        19.4630 
 317   0.0000       0.717939        19.5361 
 318   0.0000       0.718604        19.5542 
 319   0.0000       0.723330        19.6828 
 320   0.0000       0.725608        19.7448 
 321   0.0000       0.729361        19.8469 
 322   0.0000       0.731537        19.9061 
 323   0.0000       0.736695        20.0465 
 324   0.0000       0.740474        20.1493 
 325   0.0000       0.742590        20.2069 
 326   0.0000       0.745141        20.2763 
 327   0.0000       0.747619        20.3437 
 328   0.0000       0.751314        20.4443 
 329   0.0000       0.756294        20.5798 
 330   0.0000       0.758639        20.6436 
 331   0.0000       0.760779        20.7018 
 332   0.0000       0.761923        20.7330 
 333   0.0000       0.764227        20.7957 
 334   0.0000       0.766039        20.8450 
 335   0.0000       0.767804        20.8930 
 336   0.0000       0.771404        20.9910 
 337   0.0000       0.777198        21.1486 
 338   0.0000       0.782171        21.2840 
 339   0.0000       0.786976        21.4147 
 340   0.0000       0.790759        21.5176 
 341   0.0000       0.791231        21.5305 
 342   0.0000       0.792827        21.5739 
 343   0.0000       0.794140        21.6096 
 344   0.0000       0.796442        21.6723 
 345   0.0000       0.799858        21.7652 
 346   0.0000       0.803889        21.8749 
 347   0.0000       0.805735        21.9252 
 348   0.0000       0.812695        22.1145 
 349   0.0000       0.815329        22.1862 
 350   0.0000       0.817198        22.2371 
 351   0.0000       0.823188        22.4001 
 352   0.0000       0.824391        22.4328 
 353   0.0000       0.825868        22.4730 
 354   0.0000       0.828370        22.5411 
 355   0.0000       0.830008        22.5857 
 356   0.0000       0.831444        22.6247 
 357   0.0000       0.836669        22.7669 
 358   0.0000       0.839457        22.8428 
 359   0.0000       0.840208        22.8632 
 360   0.0000       0.844408        22.9775 
 361   0.0000       0.846518        23.0349 
 362   0.0000       0.848326        23.0841 
 363   0.0000       0.850224        23.1358 
 364   0.0000       0.851923        23.1820 
 365   0.0000       0.854965        23.2648 
 366   0.0000       0.858399        23.3582 
 367   0.0000       0.859612        23.3912 
 368   0.0000       0.862872        23.4799 
 369   0.0000       0.864618        23.5275 
 370   0.0000       0.866763        23.5858 
 371   0.0000       0.868582        23.6353 
 372   0.0000       0.871045        23.7023 
 373   0.0000       0.872034        23.7292 
 374   0.0000       0.874831        23.8054 
 375   0.0000       0.876736        23.8572 
 376   0.0000       0.877327        23.8733 
 377   0.0000       0.879933        23.9442 
 378   0.0000       0.885305        24.0904 
 379   0.0000       0.889073        24.1929 
 380   0.0000       0.889781        24.2122 
 381   0.0000       0.892827        24.2951 
 382   0.0000       0.901133        24.5211 
 383   0.0000       0.903528        24.5863 
 384   0.0000       0.904807        24.6210 
 385   0.0000       0.907506        24.6945 
 386   0.0000       0.908896        24.7323 
 387   0.0000       0.915716        24.9179 
 388   0.0000       0.917849        24.9759 
 389   0.0000       0.918482        24.9932 
 390   0.0000       0.920818        25.0567 
 391   0.0000       0.923463        25.1287 
 392   0.0000       0.928071        25.2541 
 393   0.0000       0.932537        25.3756 
 394   0.0000       0.933313        25.3967 
 395   0.0000       0.934322        25.4242 
 396   0.0000       0.938154        25.5285 
 397   0.0000       0.938916        25.5492 
 398   0.0000       0.940286        25.5865 
 399   0.0000       0.943045        25.6616 
 400   0.0000       0.947139        25.7729 
 401   0.0000       0.949417        25.8349 
 402   0.0000       0.951488        25.8913 
 403   0.0000       0.956145        26.0180 
 404   0.0000       0.957826        26.0638 
 405   0.0000       0.959630        26.1129 
 406   0.0000       0.963748        26.2249 
 407   0.0000       0.967227        26.3196 
 408   0.0000       0.967714        26.3328 
 409   0.0000       0.974815        26.5261 
 410   0.0000       0.979237        26.6464 
 411   0.0000       0.982927        26.7468 
 412   0.0000       0.988585        26.9008 
 413   0.0000       0.995547        27.0902 
 414   0.0000       0.996366        27.1125 
 415   0.0000       0.999198        27.1896 
 416   0.0000       1.002857        27.2891 
 417   0.0000       1.005729        27.3673 
 418   0.0000       1.008392        27.4398 
 419   0.0000       1.017299        27.6821 
 420   0.0000       1.018690        27.7200 
 421   0.0000       1.025056        27.8932 
 422   0.0000       1.033710        28.1287 
 423   0.0000       1.036881        28.2150 
 424   0.0000       1.040562        28.3151 
 425   0.0000       1.045348        28.4454 
 426   0.0000       1.056694        28.7541 
 427   0.0000       1.064488        28.9662 
 428   0.0000       1.069358        29.0987 
 429   0.0000       1.072222        29.1767 
 430   0.0000       1.072820        29.1929 
 431   0.0000       1.081151        29.4196 
 432   0.0000       1.084834        29.5198 
 433   0.0000       1.088074        29.6080 
 434   0.0000       1.094088        29.7717 
 435   0.0000       1.096425        29.8352 
 436   0.0000       1.103111        30.0172 
 437   0.0000       1.110929        30.2299 
 438   0.0000       1.114251        30.3203 
 439   0.0000       1.116209        30.3736 
 440   0.0000       1.116498        30.3815 
 441   0.0000       1.121256        30.5109 
 442   0.0000       1.126148        30.6440 
 443   0.0000       1.129380        30.7320 
 444   0.0000       1.132050        30.8046 
 445   0.0000       1.134513        30.8717 
 446   0.0000       1.141324        31.0570 
 447   0.0000       1.143362        31.1125 
 448   0.0000       1.145425        31.1686 
 449   0.0000       1.148926        31.2639 
 450   0.0000       1.154915        31.4268 
 451   0.0000       1.156394        31.4671 
 452   0.0000       1.158589        31.5268 
 453   0.0000       1.161344        31.6018 
 454   0.0000       1.164761        31.6948 
 455   0.0000       1.166893        31.7528 
 456   0.0000       1.174418        31.9575 
 457   0.0000       1.177904        32.0524 
 458   0.0000       1.184846        32.2413 
 459   0.0000       1.186294        32.2807 
 460   0.0000       1.189624        32.3713 
 461   0.0000       1.192193        32.4412 
 462   0.0000       1.198644        32.6168 
 463   0.0000       1.202534        32.7226 
 464   0.0000       1.206486        32.8302 
 465   0.0000       1.207623        32.8611 
 466   0.0000       1.210467        32.9385 
 467   0.0000       1.212681        32.9987 
 468   0.0000       1.219344        33.1800 
 469   0.0000       1.223105        33.2824 
 470   0.0000       1.227748        33.4087 
 471   0.0000       1.231503        33.5109 
 472   0.0000       1.233508        33.5655 
 473   0.0000       1.236397        33.6441 
 474   0.0000       1.237911        33.6853 
 475   0.0000       1.242945        33.8222 
 476   0.0000       1.246563        33.9207 
 477   0.0000       1.249575        34.0027 
 478   0.0000       1.255087        34.1527 
 479   0.0000       1.257274        34.2122 
 480   0.0000       1.259956        34.2851 
 481   0.0000       1.264567        34.4106 
 482   0.0000       1.265732        34.4423 
 483   0.0000       1.269708        34.5505 
 484   0.0000       1.275037        34.6955 
 485   0.0000       1.280472        34.8434 
 486   0.0000       1.284183        34.9444 
 487   0.0000       1.286391        35.0045 
 488   0.0000       1.289530        35.0899 
 489   0.0000       1.291789        35.1514 
 490   0.0000       1.295942        35.2644 
 491   0.0000       1.299485        35.3608 
 492   0.0000       1.302379        35.4395 
 493   0.0000       1.307721        35.5849 
 494   0.0000       1.310616        35.6637 
 495   0.0000       1.315304        35.7912 
 496   0.0000       1.319525        35.9061 
 497   0.0000       1.322968        35.9998 
 498   0.0000       1.326474        36.0952 
 499   0.0000       1.328838        36.1595 
 500   0.0000       1.332346        36.2550 
 501   0.0000       1.337704        36.4008 
 502   0.0000       1.341351        36.5000 
 503   0.0000       1.343155        36.5491 
 504   0.0000       1.345229        36.6055 
[...]
      pz      :     0.021754  p :     0.079253
      px      :     0.042824
      py      :     0.014675
 77 H s       :     0.895955  s :     0.895955
      pz      :     0.047091  p :     0.078308
      px      :     0.015002
      py      :     0.016214
 78 H s       :     0.896351  s :     0.896351
      pz      :     0.025430  p :     0.078219
      px      :     0.020716
      py      :     0.032073
 79 H s       :     0.907139  s :     0.907139
      pz      :     0.022645  p :     0.087305
      px      :     0.021906
      py      :     0.042753
 80 H s       :     0.880268  s :     0.880268
      pz      :     0.038113  p :     0.083131
      px      :     0.029456
      py      :     0.015562
 81 H s       :     0.888982  s :     0.888982
      pz      :     0.037528  p :     0.083268
      px      :     0.016081
      py      :     0.029660
 82 H s       :     0.914128  s :     0.914128
      pz      :     0.022512  p :     0.087169
      px      :     0.030895
      py      :     0.033762
 83 H s       :     0.872363  s :     0.872363
      pz      :     0.039159  p :     0.083604
      px      :     0.015248
      py      :     0.029197
 84 H s       :     0.888979  s :     0.888979
      pz      :     0.035803  p :     0.084487
      px      :     0.031807
      py      :     0.016877
 85 H s       :     0.896343  s :     0.896343
      pz      :     0.022506  p :     0.079593
      px      :     0.014164
      py      :     0.042922
 86 H s       :     0.890862  s :     0.890862
      pz      :     0.024694  p :     0.078884
      px      :     0.032985
      py      :     0.021205
 87 H s       :     0.891501  s :     0.891501
      pz      :     0.047785  p :     0.078569
      px      :     0.015661
      py      :     0.015123
 88 H s       :     0.918430  s :     0.918430
      pz      :     0.022538  p :     0.086819
      px      :     0.041957
      py      :     0.022325
 89 H s       :     0.875779  s :     0.875779
      pz      :     0.037779  p :     0.084020
      px      :     0.030447
      py      :     0.015794


                      *****************************
                      * MAYER POPULATION ANALYSIS *
                      *****************************

  NA   - Mulliken gross atomic population
  ZA   - Total nuclear charge
  QA   - Mulliken gross atomic charge
  VA   - Mayer's total valence
  BVA  - Mayer's bonded valence
  FA   - Mayer's free valence

  ATOM       NA         ZA         QA         VA         BVA        FA
  0 C      5.7638     6.0000     0.2362     3.8008     3.8008    -0.0000
  1 N      7.4138     7.0000    -0.4138     3.4761     3.4761     0.0000
  2 C      6.0663     6.0000    -0.0663     3.9207     3.9207    -0.0000
  3 N      7.3434     7.0000    -0.3434     3.4214     3.4214    -0.0000
  4 C      6.0666     6.0000    -0.0666     3.9559     3.9559     0.0000
  5 N      7.5661     7.0000    -0.5661     3.0667     3.0667    -0.0000
  6 C      6.0288     6.0000    -0.0288     3.9610     3.9610     0.0000
  7 N      7.3367     7.0000    -0.3367     3.4459     3.4459    -0.0000
  8 C      5.7649     6.0000     0.2351     3.8019     3.8019     0.0000
  9 N      7.5664     7.0000    -0.5664     3.0920     3.0920    -0.0000
 10 C      5.8962     6.0000     0.1038     3.8597     3.8597     0.0000
 11 N      7.4398     7.0000    -0.4398     3.3728     3.3728    -0.0000
 12 C      6.0591     6.0000    -0.0591     3.9087     3.9087    -0.0000
 13 N      7.4513     7.0000    -0.4513     3.3162     3.3162     0.0000
 14 C      5.7787     6.0000     0.2213     3.8099     3.8099    -0.0000
 15 N      7.4418     7.0000    -0.4418     3.3620     3.3620    -0.0000
 16 C      5.7436     6.0000     0.2564     3.8063     3.8063    -0.0000
 17 C      6.0326     6.0000    -0.0326     3.9622     3.9622     0.0000
 18 C      6.1799     6.0000    -0.1799     3.6769     3.6769    -0.0000
 19 C      5.7672     6.0000     0.2328     3.8995     3.8995     0.0000
 20 C      5.8121     6.0000     0.1879     3.8209     3.8209    -0.0000
 21 C      6.0693     6.0000    -0.0693     3.8914     3.8914    -0.0000
 22 C      6.0912     6.0000    -0.0912     3.9852     3.9852    -0.0000
 23 C      6.0677     6.0000    -0.0677     3.9882     3.9882    -0.0000
 24 C      5.7826     6.0000     0.2174     3.8303     3.8303    -0.0000
 25 C      5.8850     6.0000     0.1150     3.8938     3.8938    -0.0000
 26 C      6.0653     6.0000    -0.0653     3.9102     3.9102     0.0000
 27 C      5.7517     6.0000     0.2483     3.9034     3.9034     0.0000
 28 C      6.0396     6.0000    -0.0396     3.9905     3.9905    -0.0000
 29 C      6.1972     6.0000    -0.1972     3.7273     3.7273    -0.0000
 30 C      5.7797     6.0000     0.2203     3.7784     3.7784    -0.0000
 31 C      5.8128     6.0000     0.1872     3.8337     3.8337    -0.0000
 32 C      6.0649     6.0000    -0.0649     3.9127     3.9127    -0.0000
 33 C      6.1031     6.0000    -0.1031     3.9843     3.9843     0.0000
 34 C      6.0506     6.0000    -0.0506     3.9997     3.9997    -0.0000
 35 C      5.8221     6.0000     0.1779     3.8301     3.8301    -0.0000
 36 C      5.8788     6.0000     0.1212     3.9110     3.9110     0.0000
 37 C      6.0708     6.0000    -0.0708     3.9136     3.9136     0.0000
 38 C      5.7555     6.0000     0.2445     3.7941     3.7941     0.0000
 39 C      6.0653     6.0000    -0.0653     3.9991     3.9991    -0.0000
 40 C      6.2049     6.0000    -0.2049     3.7528     3.7528    -0.0000
 41 C      5.7835     6.0000     0.2165     3.8738     3.8738    -0.0000
 42 C      5.7880     6.0000     0.2120     3.8331     3.8331     0.0000
 43 C      6.0774     6.0000    -0.0774     3.9050     3.9050     0.0000
 44 C      6.0928     6.0000    -0.0928     3.9829     3.9829    -0.0000
 45 C      6.0379     6.0000    -0.0379     3.9966     3.9966     0.0000
 46 C      5.8169     6.0000     0.1831     3.8199     3.8199    -0.0000
 47 C      5.8831     6.0000     0.1169     3.8975     3.8975     0.0000
 48 C      6.0819     6.0000    -0.0819     3.8976     3.8976    -0.0000
 49 C      5.7925     6.0000     0.2075     3.8619     3.8619     0.0000
 50 C      6.0680     6.0000    -0.0680     3.9904     3.9904    -0.0000
 51 C      6.1887     6.0000    -0.1887     3.7429     3.7429     0.0000
 52 H      0.9175     1.0000     0.0825     0.9820     0.9820     0.0000
 53 H      1.0067     1.0000    -0.0067     1.0025     1.0025    -0.0000
 54 H      0.9326     1.0000     0.0674     1.0045     1.0045     0.0000
 55 H      0.9195     1.0000     0.0805     0.9829     0.9829    -0.0000
 56 H      0.9148     1.0000     0.0852     0.9727     0.9727     0.0000
 57 H      0.9237     1.0000     0.0763     0.9849     0.9849     0.0000
 58 H      0.9251     1.0000     0.0749     0.9868     0.9868     0.0000
 59 H      1.0293     1.0000    -0.0293     0.9961     0.9961     0.0000
 60 H      0.9319     1.0000     0.0681     1.0054     1.0054    -0.0000
 61 H      0.8227     1.0000     0.1773     1.0438     1.0438    -0.0000
 62 H      0.8324     1.0000     0.1676     1.0433     1.0433    -0.0000
 63 H      0.9475     1.0000     0.0525     0.9863     0.9863    -0.0000
 64 H      1.0343     1.0000    -0.0343     0.9927     0.9927    -0.0000
 65 H      0.9594     1.0000     0.0406     1.0076     1.0076    -0.0000
 66 H      0.9453     1.0000     0.0547     0.9847     0.9847    -0.0000
 67 H      0.9421     1.0000     0.0579     0.9716     0.9716    -0.0000
 68 H      0.9441     1.0000     0.0559     0.9864     0.9864    -0.0000
 69 H      0.9411     1.0000     0.0589     0.9830     0.9830    -0.0000
 70 H      1.0132     1.0000    -0.0132     0.9983     0.9983     0.0000
 71 H      0.9535     1.0000     0.0465     1.0077     1.0077     0.0000
 72 H      0.9631     1.0000     0.0369     0.9861     0.9861    -0.0000
 73 H      1.0197     1.0000    -0.0197     0.9961     0.9961    -0.0000
 74 H      0.9711     1.0000     0.0289     1.0090     1.0090     0.0000
 75 H      0.9644     1.0000     0.0356     0.9868     0.9868     0.0000
 76 H      0.9543     1.0000     0.0457     0.9701     0.9701     0.0000
 77 H      0.9543     1.0000     0.0457     0.9842     0.9842    -0.0000
 78 H      0.9551     1.0000     0.0449     0.9835     0.9835     0.0000
 79 H      1.0118     1.0000    -0.0118     1.0019     1.0019     0.0000
 80 H      0.9714     1.0000     0.0286     1.0062     1.0062    -0.0000
 81 H      0.9502     1.0000     0.0498     0.9852     0.9852     0.0000
 82 H      1.0229     1.0000    -0.0229     0.9952     0.9952    -0.0000
 83 H      0.9576     1.0000     0.0424     1.0108     1.0108     0.0000
 84 H      0.9511     1.0000     0.0489     0.9865     0.9865     0.0000
 85 H      0.9462     1.0000     0.0538     0.9713     0.9713    -0.0000
 86 H      0.9438     1.0000     0.0562     0.9841     0.9841    -0.0000
 87 H      0.9459     1.0000     0.0541     0.9852     0.9852    -0.0000
 88 H      1.0305     1.0000    -0.0305     0.9910     0.9910    -0.0000
 89 H      0.9618     1.0000     0.0382     1.0059     1.0059     0.0000

  Mayer bond orders larger than 0.100000
B(  0-C ,  1-N ) :   1.2035 B(  0-C , 17-C ) :   1.5187 B(  0-C , 52-H ) :   0.9669 
B(  1-N ,  8-C ) :   1.2000 B(  1-N , 10-C ) :   0.9263 B(  2-C , 12-C ) :   1.5784 
B(  2-C , 16-C ) :   1.2755 B(  2-C , 53-H ) :   0.9792 B(  3-N , 14-C ) :   1.1756 
B(  3-N , 16-C ) :   1.2027 B(  3-N , 61-H ) :   0.8952 B(  4-C ,  6-C ) :   1.3523 
B(  4-C , 17-C ) :   1.3599 B(  4-C , 18-C ) :   1.0615 B(  5-N , 19-C ) :   1.3664 
B(  5-N , 27-C ) :   1.4469 B(  6-C ,  8-C ) :   1.5247 B(  6-C , 54-H ) :   0.9707 
B(  7-N , 30-C ) :   1.1845 B(  7-N , 38-C ) :   1.2152 B(  7-N , 62-H ) :   0.9014 
B(  8-C , 55-H ) :   0.9676 B(  9-N , 41-C ) :   1.4347 B(  9-N , 49-C ) :   1.3927 
B( 10-C , 56-H ) :   0.9767 B( 10-C , 57-H ) :   0.9807 B( 10-C , 58-H ) :   0.9817 
B( 11-N , 20-C ) :   1.0980 B( 11-N , 24-C ) :   1.1346 B( 11-N , 25-C ) :   0.9620 
B( 12-C , 14-C ) :   1.2756 B( 12-C , 59-H ) :   0.9767 B( 13-N , 31-C ) :   1.0828 
B( 13-N , 35-C ) :   1.0727 B( 13-N , 36-C ) :   0.9820 B( 14-C , 18-C ) :   1.2591 
B( 15-N , 42-C ) :   1.1256 B( 15-N , 46-C ) :   1.0891 B( 15-N , 47-C ) :   0.9666 
B( 16-C , 51-C ) :   1.2448 B( 17-C , 60-H ) :   0.9707 B( 18-C , 19-C ) :   1.3087 
B( 19-C , 21-C ) :   1.1627 B( 20-C , 28-C ) :   1.6285 B( 20-C , 63-H ) :   0.9709 
B( 21-C , 26-C ) :   1.6825 B( 21-C , 64-H ) :   0.9716 B( 22-C , 23-C ) :   1.2567 
B( 22-C , 28-C ) :   1.2800 B( 22-C , 29-C ) :   1.2557 B( 23-C , 24-C ) :   1.6339 
B( 23-C , 65-H ) :   0.9722 B( 24-C , 66-H ) :   0.9690 B( 25-C , 67-H ) :   0.9763 
B( 25-C , 68-H ) :   0.9834 B( 25-C , 69-H ) :   0.9819 B( 26-C , 27-C ) :   1.1723 
B( 26-C , 70-H ) :   0.9756 B( 27-C , 29-C ) :   1.2436 B( 28-C , 71-H ) :   0.9709 
B( 29-C , 30-C ) :   1.1746 B( 30-C , 32-C ) :   1.3514 B( 31-C , 39-C ) :   1.6839 
B( 31-C , 72-H ) :   0.9709 B( 32-C , 37-C ) :   1.5085 B( 32-C , 73-H ) :   0.9771 
B( 33-C , 34-C ) :   1.2332 B( 33-C , 39-C ) :   1.2256 B( 33-C , 40-C ) :   1.3562 
B( 34-C , 35-C ) :   1.6824 B( 34-C , 74-H ) :   0.9710 B( 35-C , 75-H ) :   0.9708 
B( 36-C , 76-H ) :   0.9755 B( 36-C , 77-H ) :   0.9826 B( 36-C , 78-H ) :   0.9838 
B( 37-C , 38-C ) :   1.3454 B( 37-C , 79-H ) :   0.9792 B( 38-C , 40-C ) :   1.1781 
B( 39-C , 80-H ) :   0.9721 B( 40-C , 41-C ) :   1.1698 B( 41-C , 43-C ) :   1.2546 
B( 42-C , 50-C ) :   1.6425 B( 42-C , 81-H ) :   0.9697 B( 43-C , 48-C ) :   1.5964 
B( 43-C , 82-H ) :   0.9756 B( 44-C , 45-C ) :   1.2805 B( 44-C , 50-C ) :   1.2488 
B( 44-C , 51-C ) :   1.2478 B( 45-C , 46-C ) :   1.6335 B( 45-C , 83-H ) :   0.9702 
B( 46-C , 84-H ) :   0.9709 B( 47-C , 85-H ) :   0.9759 B( 47-C , 86-H ) :   0.9826 
B( 47-C , 87-H ) :   0.9830 B( 48-C , 49-C ) :   1.2491 B( 48-C , 88-H ) :   0.9726 
B( 49-C , 51-C ) :   1.1917 B( 50-C , 89-H ) :   0.9722 

-------
TIMINGS
-------

Total SCF time: 0 days 0 hours 31 min 22 sec 

Total time                  ....    1882.422 sec
Sum of individual times     ....    1877.580 sec  ( 99.7%)

Fock matrix formation       ....    1849.603 sec  ( 98.3%)
Diagonalization             ....       7.366 sec  (  0.4%)
Density matrix formation    ....       0.569 sec  (  0.0%)
Population analysis         ....       0.633 sec  (  0.0%)
Initial guess               ....       2.518 sec  (  0.1%)
Orbital Transformation      ....       0.000 sec  (  0.0%)
Orbital Orthonormalization  ....       0.000 sec  (  0.0%)
DIIS solution               ....       3.247 sec  (  0.2%)
SOSCF solution              ....      12.346 sec  (  0.7%)

Maximum memory used throughout the entire SCF-calculation: 302.6 MB


           ************************************************************
           *        Program running with 16 parallel MPI-processes    *
           *              working on a common directory               *
           ************************************************************

------------------------------------------------------------------------------
                                ORCA  MP2 
------------------------------------------------------------------------------

Freezing NCore=104 chemical core electrons

----------
MP2 ENERGY (disk based algorithm)
----------

Dimension of the basis                    ...  918
Memory devoted to MP2                     ... 2000 MB   
Data format for buffers                   ... DOUBLE
Compression type for matrix containers    ... UNCOMPRESSED

-------------------------------
PARTIAL EXCHANGE TRANSFORMATION
-------------------------------

Transformation type                        ... one-operator
Generation of integrals (i,mue|j,nue)      ... ON
Generation of integrals (mue,kappa|nue,tau)... OFF
Generation of integrals (i,mue|a,nue)      ... OFF
Dimension of the basis                     ...  918
Number of internal MOs                     ...  127 (  52- 178)
Pair cutoff                                ... 2.500e-12 Eh
Number of AO pairs in the trafo            ... 421821
Total Number of distinct AO pairs          ... 421821
Memory devoted for trafo                   ... 2000.0 MB 
Max. Number of MO pairs treated together   ...  311      
Number Format for Storage                  ... Double (8 Byte)
Integral package used                      ... LIBINT

Starting integral evaluation:
    ... done with AO integral generation
Closing buffer AOK     (37.82 GB; CompressionRatio= 1.34)
Collecting buffer AOK 
Number of MO pairs included in the trafo   ... 8128
------------------------
SORTING OF (i,mue|j,nue)
------------------------

IBATCH = 1 of  2
IBATCH = 2 of  2
Closing buffer KAO     (51.03 GB; CompressionRatio= 1.00)
Collecting buffer KAO 
N(AO-Batches) Done                         ...  85564234 
N(AO-Batches) Skipped                      ...  81937505 
N(IJ)-pairs Skipped                        ...         0 
TOTAL TIME for half transformation         ...  2353.101 sec
AO-integral generation                     ...   207.920 sec
Half transformation                        ...   423.260 sec
K-integral sorting                         ...  1498.103 sec

Finished integral transformation - now doing MP2 part

OPERATOR COMBINATION   0   0: ij=( 52..178, 52..178)
Process 10:   Internal MO 132
Process 13:   Internal MO 156
Process  4:   Internal MO  84
Process  1:   Internal MO  60
Process  7:   Internal MO 108
Process  0:   Internal MO  54
Process  2:   Internal MO  69
Process  0:   Internal MO  57
Process  1:   Internal MO  63
Process  8:   Internal MO 117
Process  3:   Internal MO  78
Process  6:   Internal MO 102
Process  5:   Internal MO  93
Process  1:   Internal MO  66
Process  2:   Internal MO  72
Process 14:   Internal MO 165
Process 11:   Internal MO 141
Process  4:   Internal MO  87
Process  2:   Internal MO  75
Process  3:   Internal MO  81
Process  9:   Internal MO 126
Process  7:   Internal MO 111
Process 12:   Internal MO 150
Process  6:   Internal MO 105
Process  4:   Internal MO  90
Process 15:   Internal MO 174
Process  5:   Internal MO  96
Process 10:   Internal MO 135
Process  8:   Internal MO 120
Process  7:   Internal MO 114
Process  5:   Internal MO  99
Process 11:   Internal MO 144
Process  9:   Internal MO 129
Process 13:   Internal MO 159
Process 14:   Internal MO 168
Process  8:   Internal MO 123
Process 12:   Internal MO 153
Process 10:   Internal MO 138
Process 15:   Internal MO 177
Process 11:   Internal MO 147
Process 13:   Internal MO 162
Process 14:   Internal MO 171
-----------------------------------------------
 MP2 CORRELATION ENERGY   :     -7.263163449 Eh
-----------------------------------------------


-------
TIMINGS
-------
Total time                : 2657.980 sec
Integral trafo            : 2355.645 sec ( 88.6%)
K(i,j)                    :    7.324 sec (  0.3%)
T(i,j)                    :    0.061 sec (  0.0%)

---------------------------------------
MP2 TOTAL ENERGY:    -2130.873882854 Eh
---------------------------------------

Maximum memory used throughout the entire MP2-calculation: 2275.2 MB

-------------------------   --------------------
FINAL SINGLE POINT ENERGY     -2130.873882854487
-------------------------   --------------------


                            ***************************************
                            *     ORCA property calculations      *
                            ***************************************


  WARNING: The energy has been calculated at the MP2 level but the densities
           used in the property calculations are still SCF densities
           MP2 response densities have not been calculated 
           use %mp2 Density relaxed end
           or  %mp2 Density unrelaxed end

                                    ---------------------
                                    Active property flags
                                    ---------------------
   (+) Dipole Moment


------------------------------------------------------------------------------
                       ORCA ELECTRIC PROPERTIES CALCULATION
------------------------------------------------------------------------------

Dipole Moment Calculation                       ... on
Quadrupole Moment Calculation                   ... off
Polarizability Calculation                      ... off
GBWName                                         ... /scratch/allen/tmpyp4_amber_gaff2/conf1/conf1/Conf263.orca.gbw
Electron density                                ... /scratch/allen/tmpyp4_amber_gaff2/conf1/conf1/Conf263.orca.scfp
The origin for moment calculation is the CENTER OF MASS  = ( 0.000553, -0.003599 -0.001695)

-------------
DIPOLE MOMENT
-------------
                                X             Y             Z
Electronic contribution:     -4.54620       5.06226      -0.07311
Nuclear contribution   :      0.06273       0.22817       0.09858
                        -----------------------------------------
Total Dipole Moment    :     -4.48347       5.29043       0.02547
                        -----------------------------------------
Magnitude (a.u.)       :      6.93476
Magnitude (Debye)      :     17.62676



--------------------
Rotational spectrum 
--------------------
 
Rotational constants in cm-1:     0.001498     0.001472     0.000763 
Rotational constants in MHz :    44.911401    44.134710    22.866000 

 Dipole components along the rotational axes: 
x,y,z [a.u.] :    -6.159613     3.185803     0.026660 
x,y,z [Debye]:   -15.656491     8.097669     0.067764 

 

Timings for individual modules:

Sum of individual times         ...     4559.584 sec (=  75.993 min)
GTO integral calculation        ...        3.600 sec (=   0.060 min)   0.1 %
SCF iterations                  ...     1883.621 sec (=  31.394 min)  41.3 %
MP2 module                      ...     2672.362 sec (=  44.539 min)  58.6 %
                             ****ORCA TERMINATED NORMALLY****
TOTAL RUN TIME: 0 days 1 hours 16 minutes 2 seconds 992 msec
# of primitive gaussian functions

