
                                 *****************
                                 * O   R   C   A *
                                 *****************

                                            #,                                       
                                            ###                                      
                                            ####                                     
                                            #####                                    
                                            ######                                   
                                           ########,                                 
                                     ,,################,,,,,                         
                               ,,#################################,,                 
                          ,,##########################################,,             
                       ,#########################################, ''#####,          
                    ,#############################################,,   '####,        
                  ,##################################################,,,,####,       
                ,###########''''           ''''###############################       
              ,#####''   ,,,,##########,,,,          '''####'''          '####       
            ,##' ,,,,###########################,,,                        '##       
           ' ,,###''''                  '''############,,,                           
         ,,##''                                '''############,,,,        ,,,,,,###''
      ,#''                                            '''#######################'''  
     '                                                          ''''####''''         
             ,#######,   #######,   ,#######,      ##                                
            ,#'     '#,  ##    ##  ,#'     '#,    #''#        ######   ,####,        
            ##       ##  ##   ,#'  ##            #'  '#       #        #'  '#        
            ##       ##  #######   ##           ,######,      #####,   #    #        
            '#,     ,#'  ##    ##  '#,     ,#' ,#      #,         ##   #,  ,#        
             '#######'   ##     ##  '#######'  #'      '#     #####' # '####'        



                  #######################################################
                  #                        -***-                        #
                  #          Department of theory and spectroscopy      #
                  #    Directorship and core code : Frank Neese         #
                  #        Max Planck Institute fuer Kohlenforschung    #
                  #                Kaiser Wilhelm Platz 1               #
                  #                 D-45470 Muelheim/Ruhr               #
                  #                      Germany                        #
                  #                                                     #
                  #                  All rights reserved                #
                  #                        -***-                        #
                  #######################################################


                         Program Version 5.0.4 -  RELEASE  -


 With contributions from (in alphabetic order):
   Daniel Aravena         : Magnetic Suceptibility
   Michael Atanasov       : Ab Initio Ligand Field Theory (pilot matlab implementation)
   Alexander A. Auer      : GIAO ZORA, VPT2 properties, NMR spectrum
   Ute Becker             : Parallelization
   Giovanni Bistoni       : ED, misc. LED, open-shell LED, HFLD
   Martin Brehm           : Molecular dynamics
   Dmytro Bykov           : SCF Hessian
   Vijay G. Chilkuri      : MRCI spin determinant printing, contributions to CSF-ICE
   Dipayan Datta          : RHF DLPNO-CCSD density
   Achintya Kumar Dutta   : EOM-CC, STEOM-CC
   Dmitry Ganyushin       : Spin-Orbit,Spin-Spin,Magnetic field MRCI
   Miquel Garcia          : C-PCM and meta-GGA Hessian, CC/C-PCM, Gaussian charge scheme
   Yang Guo               : DLPNO-NEVPT2, F12-NEVPT2, CIM, IAO-localization
   Andreas Hansen         : Spin unrestricted coupled pair/coupled cluster methods
   Benjamin Helmich-Paris : MC-RPA, TRAH-SCF, COSX integrals
   Lee Huntington         : MR-EOM, pCC
   Robert Izsak           : Overlap fitted RIJCOSX, COSX-SCS-MP3, EOM
   Marcus Kettner         : VPT2
   Christian Kollmar      : KDIIS, OOCD, Brueckner-CCSD(T), CCSD density, CASPT2, CASPT2-K
   Simone Kossmann        : Meta GGA functionals, TD-DFT gradient, OOMP2, MP2 Hessian
   Martin Krupicka        : Initial AUTO-CI
   Lucas Lang             : DCDCAS
   Marvin Lechner         : AUTO-CI (C++ implementation), FIC-MRCC
   Dagmar Lenk            : GEPOL surface, SMD
   Dimitrios Liakos       : Extrapolation schemes; Compound Job, initial MDCI parallelization
   Dimitrios Manganas     : Further ROCIS development; embedding schemes
   Dimitrios Pantazis     : SARC Basis sets
   Anastasios Papadopoulos: AUTO-CI, single reference methods and gradients
   Taras Petrenko         : DFT Hessian,TD-DFT gradient, ASA, ECA, R-Raman, ABS, FL, XAS/XES, NRVS
   Peter Pinski           : DLPNO-MP2, DLPNO-MP2 Gradient
   Christoph Reimann      : Effective Core Potentials
   Marius Retegan         : Local ZFS, SOC
   Christoph Riplinger    : Optimizer, TS searches, QM/MM, DLPNO-CCSD(T), (RO)-DLPNO pert. Triples
   Tobias Risthaus        : Range-separated hybrids, TD-DFT gradient, RPA, STAB
   Michael Roemelt        : Original ROCIS implementation
   Masaaki Saitow         : Open-shell DLPNO-CCSD energy and density
   Barbara Sandhoefer     : DKH picture change effects
   Avijit Sen             : IP-ROCIS
   Kantharuban Sivalingam : CASSCF convergence, NEVPT2, FIC-MRCI
   Bernardo de Souza      : ESD, SOC TD-DFT
   Georgi Stoychev        : AutoAux, RI-MP2 NMR, DLPNO-MP2 response
   Willem Van den Heuvel  : Paramagnetic NMR
   Boris Wezisla          : Elementary symmetry handling
   Frank Wennmohs         : Technical directorship


 We gratefully acknowledge several colleagues who have allowed us to
 interface, adapt or use parts of their codes:
   Stefan Grimme, W. Hujo, H. Kruse, P. Pracht,  : VdW corrections, initial TS optimization,
                  C. Bannwarth, S. Ehlert          DFT functionals, gCP, sTDA/sTD-DF
   Ed Valeev, F. Pavosevic, A. Kumar             : LibInt (2-el integral package), F12 methods
   Garnet Chan, S. Sharma, J. Yang, R. Olivares  : DMRG
   Ulf Ekstrom                                   : XCFun DFT Library
   Mihaly Kallay                                 : mrcc  (arbitrary order and MRCC methods)
   Jiri Pittner, Ondrej Demel                    : Mk-CCSD
   Frank Weinhold                                : gennbo (NPA and NBO analysis)
   Christopher J. Cramer and Donald G. Truhlar   : smd solvation model
   Lars Goerigk                                  : TD-DFT with DH, B97 family of functionals
   V. Asgeirsson, H. Jonsson                     : NEB implementation
   FAccTs GmbH                                   : IRC, NEB, NEB-TS, DLPNO-Multilevel, CI-OPT
                                                   MM, QMMM, 2- and 3-layer-ONIOM, Crystal-QMMM,
                                                   LR-CPCM, SF, NACMEs, symmetry and pop. for TD-DFT,
                                                   nearIR, NL-DFT gradient (VV10), updates on ESD,
                                                   ML-optimized integration grids
   S Lehtola, MJT Oliveira, MAL Marques          : LibXC Library
   Liviu Ungur et al                             : ANISO software


 Your calculation uses the libint2 library for the computation of 2-el integrals
 For citations please refer to: http://libint.valeyev.net

 Your ORCA version has been built with support for libXC version: 5.1.0
 For citations please refer to: https://tddft.org/programs/libxc/

 This ORCA versions uses:
   CBLAS   interface :  Fast vector & matrix operations
   LAPACKE interface :  Fast linear algebra routines
   SCALAPACK package :  Parallel linear algebra routines
   Shared memory     :  Shared parallel matrices
   BLAS/LAPACK       :  OpenBLAS 0.3.15  USE64BITINT DYNAMIC_ARCH NO_AFFINITY Sandybridge SINGLE_THREADED
        Core in use  :  Sandybridge
   Copyright (c) 2011-2014, The OpenBLAS Project


================================================================================

----- Orbital basis set information -----
Your calculation utilizes the basis: cc-pVDZ 
       H, B-Ne : Obtained from the ccRepo (grant-hill.group.shef.ac.uk/ccrepo) Feb. 2017
                 T. H. Dunning, Jr., J. Chem. Phys. 90, 1007 (1989)
            He : Obtained from the ccRepo (grant-hill.group.shef.ac.uk/ccrepo) Feb. 2017
                 D. E. Woon, T. H. Dunning, Jr., J. Chem. Phys. 100, 2975 (1994)
  Li-Be, Na-Mg : Obtained from the ccRepo (grant-hill.group.shef.ac.uk/ccrepo) Feb. 2017
                 B. P. Prascher, D. E. Woon, K. A. Peterson, T. H. Dunning, Jr., A. K. Wilson, Theor. Chem. Acc. 128, 69 (2011)
         Al-Ar : Obtained from the ccRepo (grant-hill.group.shef.ac.uk/ccrepo) Feb. 2017
                 D. E. Woon, T. H. Dunning, Jr., J. Chem. Phys. 98, 1358 (1993)
            Ca : Obtained from the Peterson Research Group Website (tyr0.chem.wsu.edu/~kipeters) Feb. 2017
                 J. Koput, K. A. Peterson, J. Phys. Chem. 106, 9595 (2002)
         Sc-Zn : Obtained from the ccRepo (grant-hill.group.shef.ac.uk/ccrepo) Feb. 2017
                 N. B. Balabanov, K. A. Peterson, J. Chem. Phys. 123, 064107 (2005)
                 N. B. Balabanov, K. A. Peterson, J. Chem. Phys. 125, 074110 (2006)
         Ga-Kr : Obtained from the ccRepo (grant-hill.group.shef.ac.uk/ccrepo) Feb. 2017
                 A. K. Wilson, D. E. Woon, K. A. Peterson, T. H. Dunning, Jr., J. Chem. Phys. 110, 7667 (1999)

================================================================================
                                        WARNINGS
                       Please study these warnings very carefully!
================================================================================


WARNING: No MP2 level density has been requested!
         To caclulate MP2 level properties use
         %mp2 Density relaxed end
         or
         %mp2 Density unrelaxed end

WARNING: Post HF methods need fully converged wavefunctions
  ===> : Setting SCFConvForced true
         You can overwrite this default with %scf ConvForced false 


INFO   : the flag for use of the SHARK integral package has been found!

================================================================================
                                       INPUT FILE
================================================================================
NAME = /scratch/allen/tmpyp4_amber_gaff2/2.Mdgx/conf11/conf11/Conf243.orca
|  1> ! PAL2
|  2> ! mp2 cc-pvdz TightSCF  NoKeepInts
|  3> 
|  4> %scf
|  5>   MaxCore 2000
|  6> end
|  7> %mp2
|  8>   MaxCore 2000
|  9> end
| 10> * xyz 0 1
| 11>    C       -4.46600         5.49600         1.09200
| 12>    C        1.47400         4.04100         0.05700
| 13>    C       -2.80200         4.09300         0.04900
| 14>    C       -2.73400         5.03400        -0.99000
| 15>    C       -3.52300         6.16600        -0.95300
| 16>    C       -5.18100         7.62400         0.10400
| 17>    C        0.13200         4.30700         0.06100
| 18>    C       -0.56900         3.05600         0.04700
| 19>    C        1.64900         2.61800         0.02300
| 20>    C       -3.69200         4.35200         1.10300
| 21>    N       -4.37600         6.38300         0.07500
| 22>    N        0.38800         2.06700         0.02500
| 23>    N       -2.01000         0.39500        -0.07500
| 24>    N       -0.38800        -2.07400        -0.02700
| 25>    N        2.01000        -0.40100         0.06500
| 26>    C       -1.96000         2.86100         0.02400
| 27>    C       -2.62300         1.61500        -0.01800
| 28>    C       -5.57300        -4.32900         1.06600
| 29>    C       -4.07300         1.47100         0.05600
| 30>    C       -4.10600        -2.75600        -0.02600
| 31>    C       -4.99500        -2.75700        -1.11100
| 32>    C       -6.13200        -3.54200        -1.07600
| 33>    C       -7.65100        -5.11300         0.04000
| 34>    C       -4.32400         0.14100         0.03700
| 35>    C       -3.02500        -0.52000        -0.04800
| 36>    C       -4.42200        -3.56600         1.07500
| 37>    N       -6.40700        -4.31300         0.00100
| 38>    C       -2.86700        -1.92200        -0.04000
| 39>    C       -1.65000        -2.62400        -0.02700
| 40>    C        3.56800        -6.14200        -1.04000
| 41>    C       -1.47600        -4.04900        -0.03400
| 42>    C        2.80300        -4.09900        -0.00800
| 43>    C        3.65700        -4.38400         1.06900
| 44>    C        4.42700        -5.53000         1.05900
| 45>    C        5.24500        -7.58800         0.01400
| 46>    C       -0.13400        -4.31500        -0.02200
| 47>    C        0.56800        -3.06400        -0.02700
| 48>    C        2.77500        -5.01200        -1.07400
| 49>    N        4.37600        -6.39100         0.01700
| 50>    C        1.95900        -2.86900        -0.00900
| 51>    C        2.62100        -1.62200         0.00900
| 52>    C        5.54300         4.33900        -1.13000
| 53>    C        4.07000        -1.47900        -0.09400
| 54>    C        4.10400         2.75100        -0.02100
| 55>    C        5.02700         2.72900         1.03600
| 56>    C        6.16600         3.50900         0.97800
| 57>    C        7.61900         5.15300        -0.11500
| 58>    C        4.32100        -0.14800        -0.09200
| 59>    C        3.02500         0.51400         0.01500
| 60>    C        4.38700         3.58200        -1.11500
| 61>    C        2.86600         1.91600         0.01300
| 62>    N        6.41300         4.29600        -0.09500
| 63>    H       -5.17400         5.72900         1.87700
| 64>    H        2.27400         4.76600         0.08100
| 65>    H       -2.05900         4.89600        -1.82600
| 66>    H       -3.49900         6.92400        -1.72600
| 67>    H       -4.59100         8.42000         0.56300
| 68>    H       -5.44600         7.89400        -0.91800
| 69>    H       -6.08300         7.44300         0.68800
| 70>    H       -0.33200         5.28200         0.06900
| 71>    H       -3.80100         3.65600         1.92700
| 72>    H        0.18200         1.07200         0.00500
| 73>    H       -0.18300        -1.08000        -0.02100
| 74>    H       -5.86400        -4.96200         1.89500
| 75>    H       -4.79400         2.27200         0.13900
| 76>    H       -4.80000        -2.16000        -1.99400
| 77>    H       -6.84100        -3.58200        -1.89300
| 78>    H       -8.42800        -4.53600         0.54600
| 79>    H       -7.95600        -5.33700        -0.98100
| 80>    H       -7.45600        -6.03700         0.58400
| 81>    H       -5.28700        -0.34400         0.10000
| 82>    H       -3.78000        -3.60100         1.94700
| 83>    H        3.58700        -6.86800        -1.84300
| 84>    H       -2.27600        -4.77400        -0.05000
| 85>    H        3.71400        -3.72400         1.92600
| 86>    H        5.09200        -5.79500         1.87100
| 87>    H        6.20500        -7.32900        -0.43900
| 88>    H        5.39300        -7.91700         1.04200
| 89>    H        4.75900        -8.37300        -0.56400
| 90>    H        0.32900        -5.29000        -0.00800
| 91>    H        2.14600        -4.84200        -1.94000
| 92>    H        5.80800         4.98600        -1.95600
| 93>    H        4.78800        -2.28100        -0.18500
| 94>    H        4.86000         2.11400         1.91200
| 95>    H        6.90100         3.53100         1.77200
| 96>    H        7.38300         6.10900         0.35600
| 97>    H        8.41400         4.65200         0.43500
| 98>    H        7.92100         5.31000        -1.15000
| 99>    H        5.28300         0.33600        -0.17900
|100>    H        3.72000         3.63200        -1.96700
|101> *
|102> 
|103>                          ****END OF INPUT****
================================================================================

                       ****************************
                       * Single Point Calculation *
                       ****************************

---------------------------------
CARTESIAN COORDINATES (ANGSTROEM)
---------------------------------
  C     -4.466000    5.496000    1.092000
  C      1.474000    4.041000    0.057000
  C     -2.802000    4.093000    0.049000
  C     -2.734000    5.034000   -0.990000
  C     -3.523000    6.166000   -0.953000
  C     -5.181000    7.624000    0.104000
  C      0.132000    4.307000    0.061000
  C     -0.569000    3.056000    0.047000
  C      1.649000    2.618000    0.023000
  C     -3.692000    4.352000    1.103000
  N     -4.376000    6.383000    0.075000
  N      0.388000    2.067000    0.025000
  N     -2.010000    0.395000   -0.075000
  N     -0.388000   -2.074000   -0.027000
  N      2.010000   -0.401000    0.065000
  C     -1.960000    2.861000    0.024000
  C     -2.623000    1.615000   -0.018000
  C     -5.573000   -4.329000    1.066000
  C     -4.073000    1.471000    0.056000
  C     -4.106000   -2.756000   -0.026000
  C     -4.995000   -2.757000   -1.111000
  C     -6.132000   -3.542000   -1.076000
  C     -7.651000   -5.113000    0.040000
  C     -4.324000    0.141000    0.037000
  C     -3.025000   -0.520000   -0.048000
  C     -4.422000   -3.566000    1.075000
  N     -6.407000   -4.313000    0.001000
  C     -2.867000   -1.922000   -0.040000
  C     -1.650000   -2.624000   -0.027000
  C      3.568000   -6.142000   -1.040000
  C     -1.476000   -4.049000   -0.034000
  C      2.803000   -4.099000   -0.008000
  C      3.657000   -4.384000    1.069000
  C      4.427000   -5.530000    1.059000
  C      5.245000   -7.588000    0.014000
  C     -0.134000   -4.315000   -0.022000
  C      0.568000   -3.064000   -0.027000
  C      2.775000   -5.012000   -1.074000
  N      4.376000   -6.391000    0.017000
  C      1.959000   -2.869000   -0.009000
  C      2.621000   -1.622000    0.009000
  C      5.543000    4.339000   -1.130000
  C      4.070000   -1.479000   -0.094000
  C      4.104000    2.751000   -0.021000
  C      5.027000    2.729000    1.036000
  C      6.166000    3.509000    0.978000
  C      7.619000    5.153000   -0.115000
  C      4.321000   -0.148000   -0.092000
  C      3.025000    0.514000    0.015000
  C      4.387000    3.582000   -1.115000
  C      2.866000    1.916000    0.013000
  N      6.413000    4.296000   -0.095000
  H     -5.174000    5.729000    1.877000
  H      2.274000    4.766000    0.081000
  H     -2.059000    4.896000   -1.826000
  H     -3.499000    6.924000   -1.726000
  H     -4.591000    8.420000    0.563000
  H     -5.446000    7.894000   -0.918000
  H     -6.083000    7.443000    0.688000
  H     -0.332000    5.282000    0.069000
  H     -3.801000    3.656000    1.927000
  H      0.182000    1.072000    0.005000
  H     -0.183000   -1.080000   -0.021000
  H     -5.864000   -4.962000    1.895000
  H     -4.794000    2.272000    0.139000
  H     -4.800000   -2.160000   -1.994000
  H     -6.841000   -3.582000   -1.893000
  H     -8.428000   -4.536000    0.546000
  H     -7.956000   -5.337000   -0.981000
  H     -7.456000   -6.037000    0.584000
  H     -5.287000   -0.344000    0.100000
  H     -3.780000   -3.601000    1.947000
  H      3.587000   -6.868000   -1.843000
  H     -2.276000   -4.774000   -0.050000
  H      3.714000   -3.724000    1.926000
  H      5.092000   -5.795000    1.871000
  H      6.205000   -7.329000   -0.439000
  H      5.393000   -7.917000    1.042000
  H      4.759000   -8.373000   -0.564000
  H      0.329000   -5.290000   -0.008000
  H      2.146000   -4.842000   -1.940000
  H      5.808000    4.986000   -1.956000
  H      4.788000   -2.281000   -0.185000
  H      4.860000    2.114000    1.912000
  H      6.901000    3.531000    1.772000
  H      7.383000    6.109000    0.356000
  H      8.414000    4.652000    0.435000
  H      7.921000    5.310000   -1.150000
  H      5.283000    0.336000   -0.179000
  H      3.720000    3.632000   -1.967000

----------------------------
CARTESIAN COORDINATES (A.U.)
----------------------------
  NO LB      ZA    FRAG     MASS         X           Y           Z
   0 C     6.0000    0    12.011   -8.439517   10.385935    2.063581
   1 C     6.0000    0    12.011    2.785456    7.636383    0.107714
   2 C     6.0000    0    12.011   -5.295013    7.734649    0.092597
   3 C     6.0000    0    12.011   -5.166511    9.512881   -1.870829
   4 C     6.0000    0    12.011   -6.657505   11.652051   -1.800909
   5 C     6.0000    0    12.011   -9.790671   14.407272    0.196532
   6 C     6.0000    0    12.011    0.249444    8.139050    0.115273
   7 C     6.0000    0    12.011   -1.075254    5.775003    0.088817
   8 C     6.0000    0    12.011    3.116158    4.947303    0.043464
   9 C     6.0000    0    12.011   -6.976869    8.224088    2.084368
  10 N     7.0000    0    14.007   -8.269442   12.062122    0.141729
  11 N     7.0000    0    14.007    0.733214    3.906064    0.047243
  12 N     7.0000    0    14.007   -3.798350    0.746442   -0.141729
  13 N     7.0000    0    14.007   -0.733214   -3.919292   -0.051023
  14 N     7.0000    0    14.007    3.798350   -0.757780    0.122832
  15 C     6.0000    0    12.011   -3.703863    5.406506    0.045353
  16 C     6.0000    0    12.011   -4.956752    3.051908   -0.034015
  17 C     6.0000    0    12.011  -10.531444   -8.180624    2.014448
  18 C     6.0000    0    12.011   -7.696855    2.779787    0.105825
  19 C     6.0000    0    12.011   -7.759216   -5.208085   -0.049133
  20 C     6.0000    0    12.011   -9.439182   -5.209975   -2.099486
  21 C     6.0000    0    12.011  -11.587801   -6.693410   -2.033345
  22 C     6.0000    0    12.011  -14.458295   -9.662170    0.075589
  23 C     6.0000    0    12.011   -8.171176    0.266451    0.069920
  24 C     6.0000    0    12.011   -5.716422   -0.982658   -0.090707
  25 C     6.0000    0    12.011   -8.356369   -6.738763    2.031456
  26 N     7.0000    0    14.007  -12.107475   -8.150389    0.001890
  27 C     6.0000    0    12.011   -5.417845   -3.632054   -0.075589
  28 C     6.0000    0    12.011   -3.118048   -4.958641   -0.051023
  29 C     6.0000    0    12.011    6.742543  -11.606698   -1.965315
  30 C     6.0000    0    12.011   -2.789236   -7.651501   -0.064251
  31 C     6.0000    0    12.011    5.296902   -7.745987   -0.015118
  32 C     6.0000    0    12.011    6.910728   -8.284559    2.020117
  33 C     6.0000    0    12.011    8.365818  -10.450186    2.001220
  34 C     6.0000    0    12.011    9.911614  -14.339242    0.026456
  35 C     6.0000    0    12.011   -0.253223   -8.154168   -0.041574
  36 C     6.0000    0    12.011    1.073364   -5.790121   -0.051023
  37 C     6.0000    0    12.011    5.243990   -9.471307   -2.029566
  38 N     7.0000    0    14.007    8.269442  -12.077240    0.032125
  39 C     6.0000    0    12.011    3.701973   -5.421624   -0.017008
  40 C     6.0000    0    12.011    4.952972   -3.065136    0.017008
  41 C     6.0000    0    12.011   10.474752    8.199522   -2.135391
  42 C     6.0000    0    12.011    7.691185   -2.794905   -0.177634
  43 C     6.0000    0    12.011    7.755436    5.198637   -0.039684
  44 C     6.0000    0    12.011    9.499653    5.157063    1.957756
  45 C     6.0000    0    12.011   11.652051    6.631049    1.848152
  46 C     6.0000    0    12.011   14.397823    9.737759   -0.217319
  47 C     6.0000    0    12.011    8.165507   -0.279679   -0.173855
  48 C     6.0000    0    12.011    5.716422    0.971319    0.028346
  49 C     6.0000    0    12.011    8.290229    6.768999   -2.107045
  50 C     6.0000    0    12.011    5.415955    3.620715    0.024566
  51 N     7.0000    0    14.007   12.118814    8.118263   -0.179524
  52 H     1.0000    0     1.008   -9.777443   10.826241    3.547016
  53 H     1.0000    0     1.008    4.297237    9.006435    0.153068
  54 H     1.0000    0     1.008   -3.890946    9.252099   -3.450640
  55 H     1.0000    0     1.008   -6.612152   13.084464   -3.261667
  56 H     1.0000    0     1.008   -8.675733   15.911494    1.063916
  57 H     1.0000    0     1.008  -10.291449   14.917498   -1.734769
  58 H     1.0000    0     1.008  -11.495204   14.065232    1.300132
  59 H     1.0000    0     1.008   -0.627389    9.981533    0.130391
  60 H     1.0000    0     1.008   -7.182849    6.908839    3.641502
  61 H     1.0000    0     1.008    0.343930    2.025786    0.009449
  62 H     1.0000    0     1.008   -0.345820   -2.040904   -0.039684
  63 H     1.0000    0     1.008  -11.081354   -9.376821    3.581031
  64 H     1.0000    0     1.008   -9.059347    4.293458    0.262672
  65 H     1.0000    0     1.008   -9.070685   -4.081808   -3.768114
  66 H     1.0000    0     1.008  -12.927616   -6.768999   -3.577252
  67 H     1.0000    0     1.008  -15.926612   -8.571798    1.031790
  68 H     1.0000    0     1.008  -15.034661  -10.085468   -1.853821
  69 H     1.0000    0     1.008  -14.089798  -11.408277    1.103600
  70 H     1.0000    0     1.008   -9.990982   -0.650066    0.188973
  71 H     1.0000    0     1.008   -7.143165   -6.804904    3.679297
  72 H     1.0000    0     1.008    6.778448  -12.978639   -3.482765
  73 H     1.0000    0     1.008   -4.301017   -9.021553   -0.094486
  74 H     1.0000    0     1.008    7.018443   -7.037340    3.639613
  75 H     1.0000    0     1.008    9.622485  -10.950963    3.535678
  76 H     1.0000    0     1.008   11.725751  -13.849803   -0.829590
  77 H     1.0000    0     1.008   10.191293  -14.960962    1.969095
  78 H     1.0000    0     1.008    8.993207  -15.822677   -1.065806
  79 H     1.0000    0     1.008    0.621720   -9.996651   -0.015118
  80 H     1.0000    0     1.008    4.055352   -9.150054   -3.666069
  81 H     1.0000    0     1.008   10.975529    9.422175   -3.696304
  82 H     1.0000    0     1.008    9.048009   -4.310465   -0.349599
  83 H     1.0000    0     1.008    9.184069    3.994881    3.613156
  84 H     1.0000    0     1.008   13.041000    6.672623    3.348595
  85 H     1.0000    0     1.008   13.951848   11.544337    0.672743
  86 H     1.0000    0     1.008   15.900156    8.791006    0.822031
  87 H     1.0000    0     1.008   14.968521   10.034446   -2.173185
  88 H     1.0000    0     1.008    9.983423    0.634948   -0.338261
  89 H     1.0000    0     1.008    7.029781    6.863485   -3.717091

--------------------------------
INTERNAL COORDINATES (ANGSTROEM)
--------------------------------
 C      0   0   0     0.000000000000     0.00000000     0.00000000
 C      1   0   0     6.202568016556     0.00000000     0.00000000
 C      1   2   0     2.413535580844    29.68830860     0.00000000
 C      3   1   2     1.403433646454    87.91230434   275.13488844
 C      4   3   1     1.380331119696   120.15433146     0.19537800
 C      5   4   3     2.447851506934   152.52403956     1.51179266
 C      2   1   3     1.368114030335     9.77395816    38.77188802
 C      7   2   3     1.434084376876   108.05010202     0.84668783
 C      2   1   3     1.434123425651   110.70625625   321.78576162
 C      1   2   3     1.381279479323    43.14848178    47.11157774
 N      1   2   3     1.352463677886    87.97370903   265.23422945
 N      9   2   1     1.376127174356   106.58526707     9.26573464
 N     12   9   2     2.925062050624   168.53581413   171.12065651
 N     13  12   9     2.954513327098    91.55032014    11.12112580
 N     14  13  12     2.925371258490    88.43092389   359.84326247
 C      8   7   2     1.404790019896   127.24786865   181.11170171
 C     13  12   9     1.366535034311    81.72106996   188.00453233
 C     14  13  12     5.758810554272    80.56209567   166.76250791
 C     17  13  12     1.459010623676   111.08861209   183.82872609
 C     18  14  13     2.412235892279    27.27532823    36.33507194
 C     20  18  14     1.402692767501    87.95206320   148.94598259
 C     21  20  18     1.382106725257   120.14573887   359.70382047
 C     18  14  13     2.446510985056   144.15733107    82.80075377
 C     19  17  13     1.353610726908   106.29293361   359.75308708
 C     13  12   9     1.366813447402   172.21332906    33.46711076
 C     18  14  13     1.380960173213    15.08449437   309.23336894
 N     22  21  20     1.352773077792   120.73759875     0.27865223
 C     25  13  17     1.410897586645   125.60330303   182.37774668
 C     14  13  12     1.376642291955    80.24689249   177.85461986
 C     14  13  12     5.764089607215   164.51507311   312.20821879
 C     29  14  13     1.435600919476   106.58649366   178.76395472
 C     30  14  13     2.413316804732    27.10625047    82.12560436
 C     32  30  14     1.403734305344    87.90059683   149.76154742
 C     33  32  30     1.380694028378   120.14881443   359.74174632
 C     34  33  32     2.448777858443   152.49203239     2.45173620
 C     31  29  14     1.368160809262   108.16950133     0.70383075
 C     14  13  12     1.376239804685   169.26375223   353.09862627
 C     30  14  13     1.380907310430    14.68948582   353.70041132
 N     34  33  32     1.352658863128   120.85575621     0.19603406
 C     37  14  29     1.404717053360   126.01551127   180.90772073
 C     15  14  13     1.366491126938    81.61824056   183.09049352
 C      2   1   3     4.249062720177   161.30673382   121.40793580
 C     41  15  14     1.459677704153   111.05201287   175.08990246
 C     42   2   1     2.412953791518    41.78584867   175.39344879
 C     44  42   2     1.403446472082    87.95153797   233.97558675
 C     45  44  42     1.381696421071   120.11137308     0.19721020
 C     42   2   1     2.450019795838   135.97209175    85.70829789
 C     43  41  15     1.354461516618   106.26758155     0.30894352
 C     15  14  13     1.367461151185   171.87382904   332.35056460
 C     42   2   1     1.381886391857    32.59078432   224.24872798
 C      9   2   1     1.404988612053   126.98745415   190.27007217
 N     42   2   1     1.352765315936   113.57249190   113.44488708
 H      1   2   3     1.082486951423   142.92650282   131.10851475
 H      2   1   3     1.079907866440   123.24699491   151.90494926
 H      4   3   1     1.083312051073   121.07056751   179.47353822
 H      5   4   3     1.082898425523   122.83631100   179.43131763
 H      6   5   4     1.091969321913   104.46127029   100.14370563
 H      6   5   4     1.089774747368    84.68240687   209.64358231
 H      6   5   4     1.089688487596   133.88000075   322.45351596
 H      7   2  54     1.079807853278   126.66122480     1.30600390
 H     10   1   2     1.084100087630   118.77914291   134.98799826
 H     12   9   2     1.016297692608   125.29023241   180.00180175
 H     14  13  12     1.014936943854    44.97226959   359.42596618
 H     18  14  13     1.082871645210   128.03556573   234.20482432
 H     19  17  13     1.080893611786   126.41830519   178.11313280
 H     21  20  18     1.083569563987   121.05669627   180.67006309
 H     22  21  20     1.082483256222   122.73097286   180.59748951
 H     23  18  14     1.092105306278   103.92715769   234.93429879
 H     23  18  14     1.088871893291   134.19244188    12.25587044
 H     23  18  14     1.089833473518    84.85857450   125.45241208
 H     24  19  17     1.080075460327   127.28078426   178.44613241
 H     26  18  14     1.083408048706   118.76995697   244.94906660
 H     30  14  13     1.082703098730   127.99711412   279.66882698
 H     31  29  14     1.079759695488   125.22293469   180.92530585
 H     33  32  30     1.083188810873   121.01964473   180.74284758
 H     34  33  32     1.082494341787   122.70821597   180.59516895
 H     35  34  33     1.092652735319   105.73575241    97.19771933
 H     35  34  33     1.089462711615    84.05943581   206.43036958
 H     35  34  33     1.089268102902   133.08365142   318.50306270
 H     36  31  29     1.079439669458   126.61599965   178.98859863
 H     38  30  73     1.083742127999   118.77264435   359.90091293
 H     42   2   1     1.082178358682   119.31790784   330.07641754
 H     43  41  15     1.080281907652   126.36969097   182.06329380
 H     45  44  42     1.083277434455   121.10105945   179.58025624
 H     46  45  44     1.082194529648   122.72144639   179.46906377
 H     47  42   2     1.091546151109   106.65128841   315.16475048
 H     47  42   2     1.088818625851   132.46019523    94.52397119
 H     47  42   2     1.089531091801    83.63838232   206.04504406
 H     48  43  41     1.080402239909   127.23657387   181.62955349
 H     50  42   2     1.083186502870   118.77001737    94.71359229

---------------------------
INTERNAL COORDINATES (A.U.)
---------------------------
 C      0   0   0     0.000000000000     0.00000000     0.00000000
 C      1   0   0    11.721154878309     0.00000000     0.00000000
 C      1   2   0     4.560921262270    29.68830860     0.00000000
 C      3   1   2     2.652105238929    87.91230434   275.13488844
 C      4   3   1     2.608447790353   120.15433146     0.19537800
 C      5   4   3     4.625768964612   152.52403956     1.51179266
 C      2   1   3     2.585360837309     9.77395816    38.77188802
 C      7   2   3     2.710026725231   108.05010202     0.84668783
 C      2   1   3     2.710100516721   110.70625625   321.78576162
 C      1   2   3     2.610239930327    43.14848178    47.11157774
 N      1   2   3     2.555785957280    87.97370903   265.23422945
 N      9   2   1     2.600503484979   106.58526707     9.26573464
 N     12   9   2     5.527566200405   168.53581413   171.12065651
 N     13  12   9     5.583221047236    91.55032014    11.12112580
 N     14  13  12     5.528150518591    88.43092389   359.84326247
 C      8   7   2     2.654668413270   127.24786865   181.11170171
 C     13  12   9     2.582376967257    81.72106996   188.00453233
 C     14  13  12    10.882574804710    80.56209567   166.76250791
 C     17  13  12     2.757130505230   111.08861209   183.82872609
 C     18  14  13     4.558465206823    27.27532823    36.33507194
 C     20  18  14     2.650705180609    87.95206320   148.94598259
 C     21  20  18     2.611803198586   120.14573887   359.70382047
 C     18  14  13     4.623235745386   144.15733107    82.80075377
 C     19  17  13     2.557953565794   106.29293361   359.75308708
 C     13  12   9     2.582903091751   172.21332906    33.46711076
 C     18  14  13     2.609636529225    15.08449437   309.23336894
 N     22  21  20     2.556370638369   120.73759875     0.27865223
 C     25  13  17     2.666210041769   125.60330303   182.37774668
 C     14  13  12     2.601476916169    80.24689249   177.85461986
 C     14  13  12    10.892550769017   164.51507311   312.20821879
 C     29  14  13     2.712892575415   106.58649366   178.76395472
 C     30  14  13     4.560507835333    27.10625047    82.12560436
 C     32  30  14     2.652673401891    87.90059683   149.76154742
 C     33  32  30     2.609133588376   120.14881443   359.74174632
 C     34  33  32     4.627519515267   152.49203239     2.45173620
 C     31  29  14     2.585449236669   108.16950133     0.70383075
 C     14  13  12     2.600716325456   169.26375223   353.09862627
 C     30  14  13     2.609536633043    14.68948582   353.70041132
 N     34  33  32     2.556154803934   120.85575621     0.19603406
 C     37  14  29     2.654530526499   126.01551127   180.90772073
 C     15  14  13     2.582293994346    81.61824056   183.09049352
 C      2   1   3     8.029564866989   161.30673382   121.40793580
 C     41  15  14     2.758391104639   111.05201287   175.08990246
 C     42   2   1     4.559821839776    41.78584867   175.39344879
 C     44  42   2     2.652129475853    87.95153797   233.97558675
 C     45  44  42     2.611027836043   120.11137308     0.19721020
 C     42   2   1     4.629866436820   135.97209175    85.70829789
 C     43  41  15     2.559561325344   106.26758155     0.30894352
 C     15  14  13     2.584127074516   171.87382904   332.35056460
 C     42   2   1     2.611386828803    32.59078432   224.24872798
 C      9   2   1     2.655043698059   126.98745415   190.27007217
 N     42   2   1     2.556355970587   113.57249190   113.44488708
 H      1   2   3     2.045603881732   142.92650282   131.10851475
 H      2   1   3     2.040730117440   123.24699491   151.90494926
 H      4   3   1     2.047163094104   121.07056751   179.47353822
 H      5   4   3     2.046381455093   122.83631100   179.43131763
 H      6   5   4     2.063522965060   104.46127029   100.14370563
 H      6   5   4     2.059375820188    84.68240687   209.64358231
 H      6   5   4     2.059212812844   133.88000075   322.45351596
 H      7   2  54     2.040541119952   126.66122480     1.30600390
 H     10   1   2     2.048652267381   118.77914291   134.98799826
 H     12   9   2     1.920524309565   125.29023241   180.00180175
 H     14  13  12     1.917952867083    44.97226959   359.42596618
 H     18  14  13     2.046330847636   128.03556573   234.20482432
 H     19  17  13     2.042592906181   126.41830519   178.11313280
 H     21  20  18     2.047649722989   121.05669627   180.67006309
 H     22  21  20     2.045596898814   122.73097286   180.59748951
 H     23  18  14     2.063779938267   103.92715769   234.93429879
 H     23  18  14     2.057669673245   134.19244188    12.25587044
 H     23  18  14     2.059486796529    84.85857450   125.45241208
 H     24  19  17     2.041046823986   127.28078426   178.44613241
 H     26  18  14     2.047344503340   118.76995697   244.94906660
 H     30  14  13     2.046012340948   127.99711412   279.66882698
 H     31  29  14     2.040450114918   125.22293469   180.92530585
 H     33  32  30     2.046930203877   121.01964473   180.74284758
 H     34  33  32     2.045617847496   122.70821597   180.59516895
 H     35  34  33     2.064814429233   105.73575241    97.19771933
 H     35  34  33     2.058786158072    84.05943581   206.43036958
 H     35  34  33     2.058418400901   133.08365142   318.50306270
 H     36  31  29     2.039845353366   126.61599965   178.98859863
 H     38  30  73     2.047975821711   118.77264435   359.90091293
 H     42   2   1     2.045020725966   119.31790784   330.07641754
 H     43  41  15     2.041436952892   126.36969097   182.06329380
 H     45  44  42     2.047097678177   121.10105945   179.58025624
 H     46  45  44     2.045051284662   122.72144639   179.46906377
 H     47  42   2     2.062723288131   106.65128841   315.16475048
 H     47  42   2     2.057569012371   132.46019523    94.52397119
 H     47  42   2     2.058915377895    83.63838232   206.04504406
 H     48  43  41     2.041664347903   127.23657387   181.62955349
 H     50  42   2     2.046925842384   118.77001737    94.71359229

---------------------
BASIS SET INFORMATION
---------------------
There are 3 groups of distinct atoms

 Group   1 Type C   : 17s4p1d contracted to 3s2p1d pattern {881/31/1}
 Group   2 Type N   : 17s4p1d contracted to 3s2p1d pattern {881/31/1}
 Group   3 Type H   : 4s1p contracted to 2s1p pattern {31/1}

Atom   0C    basis set group =>   1
Atom   1N    basis set group =>   2
Atom   2C    basis set group =>   1
Atom   3N    basis set group =>   2
Atom   4C    basis set group =>   1
Atom   5N    basis set group =>   2
Atom   6C    basis set group =>   1
Atom   7N    basis set group =>   2
Atom   8C    basis set group =>   1
Atom   9N    basis set group =>   2
Atom  10C    basis set group =>   1
Atom  11N    basis set group =>   2
Atom  12C    basis set group =>   1
Atom  13N    basis set group =>   2
Atom  14C    basis set group =>   1
Atom  15N    basis set group =>   2
Atom  16C    basis set group =>   1
Atom  17C    basis set group =>   1
Atom  18C    basis set group =>   1
Atom  19C    basis set group =>   1
Atom  20C    basis set group =>   1
Atom  21C    basis set group =>   1
Atom  22C    basis set group =>   1
Atom  23C    basis set group =>   1
Atom  24C    basis set group =>   1
Atom  25C    basis set group =>   1
Atom  26C    basis set group =>   1
Atom  27C    basis set group =>   1
Atom  28C    basis set group =>   1
Atom  29C    basis set group =>   1
Atom  30C    basis set group =>   1
Atom  31C    basis set group =>   1
Atom  32C    basis set group =>   1
Atom  33C    basis set group =>   1
Atom  34C    basis set group =>   1
Atom  35C    basis set group =>   1
Atom  36C    basis set group =>   1
Atom  37C    basis set group =>   1
Atom  38C    basis set group =>   1
Atom  39C    basis set group =>   1
Atom  40C    basis set group =>   1
Atom  41C    basis set group =>   1
Atom  42C    basis set group =>   1
Atom  43C    basis set group =>   1
Atom  44C    basis set group =>   1
Atom  45C    basis set group =>   1
Atom  46C    basis set group =>   1
Atom  47C    basis set group =>   1
Atom  48C    basis set group =>   1
Atom  49C    basis set group =>   1
Atom  50C    basis set group =>   1
Atom  51C    basis set group =>   1
Atom  52H    basis set group =>   3
Atom  53H    basis set group =>   3
Atom  54H    basis set group =>   3
Atom  55H    basis set group =>   3
Atom  56H    basis set group =>   3
Atom  57H    basis set group =>   3
Atom  58H    basis set group =>   3
Atom  59H    basis set group =>   3
Atom  60H    basis set group =>   3
Atom  61H    basis set group =>   3
Atom  62H    basis set group =>   3
Atom  63H    basis set group =>   3
Atom  64H    basis set group =>   3
Atom  65H    basis set group =>   3
Atom  66H    basis set group =>   3
Atom  67H    basis set group =>   3
Atom  68H    basis set group =>   3
Atom  69H    basis set group =>   3
Atom  70H    basis set group =>   3
Atom  71H    basis set group =>   3
Atom  72H    basis set group =>   3
Atom  73H    basis set group =>   3
Atom  74H    basis set group =>   3
Atom  75H    basis set group =>   3
Atom  76H    basis set group =>   3
Atom  77H    basis set group =>   3
Atom  78H    basis set group =>   3
Atom  79H    basis set group =>   3
Atom  80H    basis set group =>   3
Atom  81H    basis set group =>   3
Atom  82H    basis set group =>   3
Atom  83H    basis set group =>   3
Atom  84H    basis set group =>   3
Atom  85H    basis set group =>   3
Atom  86H    basis set group =>   3
Atom  87H    basis set group =>   3
Atom  88H    basis set group =>   3
Atom  89H    basis set group =>   3


           ************************************************************
           *        Program running with 16 parallel MPI-processes    *
           *              working on a common directory               *
           ************************************************************
------------------------------------------------------------------------------
                           ORCA GTO INTEGRAL CALCULATION
------------------------------------------------------------------------------
------------------------------------------------------------------------------
                   ___                                                        
                  /   \      - P O W E R E D   B Y -                         
                 /     \                                                     
                 |  |  |   _    _      __       _____    __    __             
                 |  |  |  | |  | |    /  \     |  _  \  |  |  /  |          
                  \  \/   | |  | |   /    \    | | | |  |  | /  /          
                 / \  \   | |__| |  /  /\  \   | |_| |  |  |/  /          
                |  |  |   |  __  | /  /__\  \  |    /   |      \           
                |  |  |   | |  | | |   __   |  |    \   |  |\   \          
                \     /   | |  | | |  |  |  |  | |\  \  |  | \   \       
                 \___/    |_|  |_| |__|  |__|  |_| \__\ |__|  \__/        
                                                                              
                      - O R C A' S   B I G   F R I E N D -                    
                                      &                                       
                       - I N T E G R A L  F E E D E R -                       
                                                                              
 v1 FN, 2020, v2 2021                                                         
------------------------------------------------------------------------------


Reading SHARK input file /scratch/allen/tmpyp4_amber_gaff2/conf1/conf1/Conf243.orca.SHARKINP.tmp ... ok
----------------------
SHARK INTEGRAL PACKAGE
----------------------

Number of atoms                             ...     90
Number of basis functions                   ...   1230
Number of shells                            ...    738
Maximum angular momentum                    ...      2
Integral batch strategy                     ... SHARK/LIBINT Hybrid
RI-J (if used) integral strategy            ... SPLIT-RIJ (Revised 2003 algorithm where possible)
Printlevel                                  ...      1
Contraction scheme used                     ... PARTIAL GENERAL contraction
Coulomb Range Separation                    ... NOT USED
Exchange Range Separation                   ... NOT USED
Finite Nucleus Model                        ... NOT USED
Auxiliary Coulomb fitting basis             ... NOT available
Auxiliary J/K fitting basis                 ... NOT available
Auxiliary Correlation fitting basis         ... NOT available
Auxiliary 'external' fitting basis          ... NOT available
Integral threshold                          ...     2.500000e-11
Primitive cut-off                           ...     2.500000e-12
Primitive pair pre-selection threshold      ...     2.500000e-12

Calculating pre-screening integrals         ... done (  0.1 sec) Dimension = 738
Calculating pre-screening integrals (ORCA)  ... done (  0.3 sec) Dimension = 426
Organizing shell pair data                  ... done (  0.7 sec)
Shell pair information
Total number of shell pairs                 ...    272691
Shell pairs after pre-screening             ...     71589
Total number of primitive shell pairs       ...    422091
Primitive shell pairs kept                  ...     92335
          la=0 lb=0:  29402 shell pairs
          la=1 lb=0:  25963 shell pairs
          la=1 lb=1:   4696 shell pairs
          la=2 lb=0:   7875 shell pairs
          la=2 lb=1:   3122 shell pairs
          la=2 lb=2:    531 shell pairs

Calculating one electron integrals          ... done (  0.2 sec)
Calculating Nuclear repulsion               ... done (  0.0 sec) ENN=   6224.625312402793 Eh

SHARK setup successfully completed in   2.2 seconds

Maximum memory used throughout the entire GTOINT-calculation: 98.9 MB


           ************************************************************
           *        Program running with 16 parallel MPI-processes    *
           *              working on a common directory               *
           ************************************************************
-------------------------------------------------------------------------------
                                 ORCA SCF
-------------------------------------------------------------------------------

------------
SCF SETTINGS
------------
Hamiltonian:
 Ab initio Hamiltonian  Method          .... Hartree-Fock(GTOs)


General Settings:
 Integral files         IntName         .... /scratch/allen/tmpyp4_amber_gaff2/conf1/conf1/Conf243.orca
 Hartree-Fock type      HFTyp           .... RHF
 Total Charge           Charge          ....    0
 Multiplicity           Mult            ....    1
 Number of Electrons    NEL             ....  358
 Basis Dimension        Dim             ....  918
 Nuclear Repulsion      ENuc            ....   6224.6253124028 Eh

Convergence Acceleration:
 DIIS                   CNVDIIS         .... on
   Start iteration      DIISMaxIt       ....    12
   Startup error        DIISStart       ....  0.200000
   # of expansion vecs  DIISMaxEq       ....     5
   Bias factor          DIISBfac        ....   1.050
   Max. coefficient     DIISMaxC        ....  10.000
 Trust-Rad. Augm. Hess. CNVTRAH         .... auto
   Auto Start mean grad. ratio tolernc. ....  1.125000
   Auto Start start iteration           ....    20
   Auto Start num. interpolation iter.  ....    10
   Max. Number of Micro iterations      ....    16
   Max. Number of Macro iterations      .... Maxiter - #DIIS iter
   Number of Davidson start vectors     ....     2
   Converg. threshold I  (grad. norm)   ....   1.000e-05
   Converg. threshold II (energy diff.) ....   1.000e-08
   Grad. Scal. Fac. for Micro threshold ....   0.100
   Minimum threshold for Micro iter.    ....   0.010
   NR start threshold (gradient norm)   ....   0.001
   Initial trust radius                 ....   0.400
   Minimum AH scaling param. (alpha)    ....   1.000
   Maximum AH scaling param. (alpha)    .... 1000.000
   Orbital update algorithm             .... Taylor
   White noise on init. David. guess    .... on
   Maximum white noise                  ....   0.010
   Quad. conv. algorithm                .... NR
 SOSCF                  CNVSOSCF        .... on
   Start iteration      SOSCFMaxIt      ....   150
   Startup grad/error   SOSCFStart      ....  0.003300
 Level Shifting         CNVShift        .... on
   Level shift para.    LevelShift      ....    0.2500
   Turn off err/grad.   ShiftErr        ....    0.0010
 Zerner damping         CNVZerner       .... off
 Static damping         CNVDamp         .... on
   Fraction old density DampFac         ....    0.7000
   Max. Damping (<1)    DampMax         ....    0.9800
   Min. Damping (>=0)   DampMin         ....    0.0000
   Turn off err/grad.   DampErr         ....    0.1000
 Fernandez-Rico         CNVRico         .... off

SCF Procedure:
 Maximum # iterations   MaxIter         ....   125
 SCF integral mode      SCFMode         .... Direct
   Integral package                     .... SHARK and LIBINT hybrid scheme
 Reset frequency        DirectResetFreq ....    20
 Integral Threshold     Thresh          ....  2.500e-11 Eh
 Primitive CutOff       TCut            ....  2.500e-12 Eh

Convergence Tolerance:
 Convergence Check Mode ConvCheckMode   .... Total+1el-Energy
 Convergence forced     ConvForced      .... 1
 Energy Change          TolE            ....  1.000e-08 Eh
 1-El. energy change                    ....  1.000e-05 Eh
 Orbital Gradient       TolG            ....  1.000e-05
 Orbital Rotation angle TolX            ....  1.000e-05
 DIIS Error             TolErr          ....  5.000e-07


Diagonalization of the overlap matrix:
Smallest eigenvalue                        ... 2.251e-04
Time for diagonalization                   ...    0.483 sec
Threshold for overlap eigenvalues          ... 1.000e-08
Number of eigenvalues below threshold      ... 0
Time for construction of square roots      ...    0.269 sec
Total time needed                          ...    0.758 sec

Time for model grid setup =    1.300 sec

------------------------------
INITIAL GUESS: MODEL POTENTIAL
------------------------------
Loading Hartree-Fock densities                     ... done
Calculating cut-offs                               ... done
Initializing the effective Hamiltonian             ... done
Setting up the integral package (SHARK)            ... done
Starting the Coulomb interaction                   ... done (   1.5 sec)
Reading the grid                                   ... done
Mapping shells                                     ... done
Starting the XC term evaluation                    ... done (   0.2 sec)
Transforming the Hamiltonian                       ... done (   0.3 sec)
Diagonalizing the Hamiltonian                      ... done (   0.4 sec)
Back transforming the eigenvectors                 ... done (   0.1 sec)
Now organizing SCF variables                       ... done
                      ------------------
                      INITIAL GUESS DONE (   3.8 sec)
                      ------------------
--------------
SCF ITERATIONS
--------------
ITER       Energy         Delta-E        Max-DP      RMS-DP      [F,P]     Damp
               ***  Starting incremental Fock matrix formation  ***
  0  -2121.6647103608   0.000000000000 0.06911926  0.00121244  0.2332173 0.7000
  1  -2122.3314112637  -0.666700902979 0.05245855  0.00098400  0.1442493 0.7000
                               ***Turning on DIIS***
  2  -2122.7455660085  -0.414154744793 0.11649054  0.00222761  0.0802834 0.0000
  3  -2117.7052305704   5.040335438178 0.03101490  0.00068772  0.0442980 0.0000
  4  -2123.4054581897  -5.700227619380 0.00880801  0.00022997  0.0069529 0.0000
  5  -2123.5874098216  -0.181951631903 0.00510865  0.00013691  0.0049169 0.0000
  6  -2123.5703308101   0.017079011506 0.00330456  0.00008975  0.0019431 0.0000
  7  -2123.6770224529  -0.106691642775 0.00278253  0.00007186  0.0014801 0.0000
  8  -2123.6993059619  -0.022283508955 0.00264126  0.00006858  0.0013831 0.0000
  9  -2123.6612398530   0.038066108875 0.00212471  0.00004709  0.0010873 0.0000
 10  -2123.6788262331  -0.017586380087 0.00444206  0.00009447  0.0008232 0.0000
                      *** Initiating the SOSCF procedure ***
                           *** Shutting down DIIS ***
                      *** Re-Reading the Fockian *** 
                      *** Removing any level shift *** 
ITER      Energy       Delta-E        Grad      Rot      Max-DP    RMS-DP
 11  -2123.54983863   0.1289876077  0.000375  0.000375  0.000295  0.000007
               *** Restarting incremental Fock matrix formation ***
 12  -2123.62074309  -0.0709044647  0.001077  0.007393  0.001089  0.000028
 13  -2123.62081206  -0.0000689720  0.001113  0.027601  0.003321  0.000083
 14  -2123.62088756  -0.0000754958  0.000439  0.003146  0.000481  0.000012
 15  -2123.62089751  -0.0000099514  0.000106  0.001087  0.000198  0.000005
 16  -2123.62089934  -0.0000018264  0.000092  0.001003  0.000320  0.000005
 17  -2123.62090029  -0.0000009534  0.000082  0.000986  0.000197  0.000004
 18  -2123.62090066  -0.0000003728  0.000033  0.000529  0.000111  0.000002
 19  -2123.62090094  -0.0000002780  0.000028  0.001005  0.000221  0.000004
 20  -2123.62090116  -0.0000002194  0.000015  0.000565  0.000083  0.000002
 21  -2123.62090122  -0.0000000602  0.000016  0.000816  0.000101  0.000002
 22  -2123.62090128  -0.0000000654  0.000018  0.000561  0.000057  0.000002
 23  -2123.62090133  -0.0000000416  0.000012  0.000326  0.000059  0.000001
 24  -2123.62090135  -0.0000000192  0.000007  0.000123  0.000038  0.000001
 25  -2123.62090136  -0.0000000119  0.000003  0.000038  0.000013  0.000000
                  ***Gradient check signals convergence***
              ***Rediagonalizing the Fockian in SOSCF/NRSCF***

               *****************************************************
               *                     SUCCESS                       *
               *           SCF CONVERGED AFTER  26 CYCLES          *
               *****************************************************


----------------
TOTAL SCF ENERGY
----------------

Total Energy       :        -2123.62090136 Eh          -57786.66254 eV

Components:
Nuclear Repulsion  :         6224.62531240 Eh          169380.66590 eV
Electronic Energy  :        -8348.24621376 Eh         -227167.32844 eV
One Electron Energy:       -15290.46236012 Eh         -416074.63364 eV
Two Electron Energy:         6942.21614636 Eh          188907.30520 eV

Virial components:
Potential Energy   :        -4245.62152766 Eh         -115529.23516 eV
Kinetic Energy     :         2122.00062630 Eh           57742.57262 eV
Virial Ratio       :            2.00076356


---------------
SCF CONVERGENCE
---------------

  Last Energy change         ...    1.0095e-09  Tolerance :   1.0000e-08
  Last MAX-Density change    ...    1.3897e-05  Tolerance :   1.0000e-07
  Last RMS-Density change    ...    1.9775e-07  Tolerance :   5.0000e-09
  Last Orbital Gradient      ...    2.4373e-06  Tolerance :   1.0000e-05
  Last Orbital Rotation      ...    3.7390e-05  Tolerance :   1.0000e-05

             **** THE GBW FILE WAS UPDATED (/scratch/allen/tmpyp4_amber_gaff2/conf1/conf1/Conf243.orca.gbw) ****
             **** DENSITY /scratch/allen/tmpyp4_amber_gaff2/conf1/conf1/Conf243.orca.scfp WAS UPDATED ****
             **** ENERGY FILE WAS UPDATED (/scratch/allen/tmpyp4_amber_gaff2/conf1/conf1/Conf243.orca.en.tmp) ****
             **** THE GBW FILE WAS UPDATED (/scratch/allen/tmpyp4_amber_gaff2/conf1/conf1/Conf243.orca.gbw) ****
             **** DENSITY /scratch/allen/tmpyp4_amber_gaff2/conf1/conf1/Conf243.orca.scfp WAS UPDATED ****
----------------
ORBITAL ENERGIES
----------------

  NO   OCC          E(Eh)            E(eV) 
   0   2.0000     -15.639009      -425.5591 
   1   2.0000     -15.636246      -425.4839 
   2   2.0000     -15.629454      -425.2991 
   3   2.0000     -15.628417      -425.2708 
   4   2.0000     -15.516749      -422.2322 
   5   2.0000     -15.516687      -422.2305 
   6   2.0000     -15.444783      -420.2739 
   7   2.0000     -15.441602      -420.1874 
   8   2.0000     -11.302388      -307.5536 
   9   2.0000     -11.300958      -307.5147 
  10   2.0000     -11.296633      -307.3970 
  11   2.0000     -11.295780      -307.3738 
  12   2.0000     -11.294205      -307.3310 
  13   2.0000     -11.293887      -307.3223 
  14   2.0000     -11.292925      -307.2961 
  15   2.0000     -11.291941      -307.2693 
  16   2.0000     -11.287668      -307.1531 
  17   2.0000     -11.285965      -307.1067 
  18   2.0000     -11.285168      -307.0850 
  19   2.0000     -11.284672      -307.0715 
  20   2.0000     -11.242216      -305.9162 
  21   2.0000     -11.240891      -305.8802 
  22   2.0000     -11.234327      -305.7016 
  23   2.0000     -11.234125      -305.6961 
  24   2.0000     -11.233331      -305.6745 
  25   2.0000     -11.232744      -305.6585 
  26   2.0000     -11.232472      -305.6511 
  27   2.0000     -11.231420      -305.6225 
  28   2.0000     -11.227308      -305.5106 
  29   2.0000     -11.226450      -305.4872 
  30   2.0000     -11.226444      -305.4871 
  31   2.0000     -11.226240      -305.4815 
  32   2.0000     -11.196849      -304.6818 
  33   2.0000     -11.196813      -304.6808 
  34   2.0000     -11.196520      -304.6728 
  35   2.0000     -11.196177      -304.6635 
  36   2.0000     -11.174064      -304.0617 
  37   2.0000     -11.173315      -304.0414 
  38   2.0000     -11.170525      -303.9654 
  39   2.0000     -11.170451      -303.9634 
  40   2.0000     -11.168143      -303.9006 
  41   2.0000     -11.168041      -303.8979 
  42   2.0000     -11.166442      -303.8543 
  43   2.0000     -11.166205      -303.8479 
  44   2.0000     -11.156391      -303.5808 
  45   2.0000     -11.155568      -303.5584 
  46   2.0000     -11.154260      -303.5228 
  47   2.0000     -11.153887      -303.5127 
  48   2.0000     -11.145563      -303.2862 
  49   2.0000     -11.143804      -303.2383 
  50   2.0000     -11.139373      -303.1177 
  51   2.0000     -11.137915      -303.0781 
  52   2.0000      -1.325462       -36.0677 
  53   2.0000      -1.323381       -36.0110 
  54   2.0000      -1.317378       -35.8477 
  55   2.0000      -1.316275       -35.8177 
  56   2.0000      -1.215574       -33.0775 
  57   2.0000      -1.213556       -33.0225 
  58   2.0000      -1.162172       -31.6243 
  59   2.0000      -1.155607       -31.4457 
  60   2.0000      -1.114960       -30.3396 
  61   2.0000      -1.110411       -30.2158 
  62   2.0000      -1.107604       -30.1394 
  63   2.0000      -1.103757       -30.0348 
  64   2.0000      -1.049221       -28.5508 
  65   2.0000      -1.047790       -28.5118 
  66   2.0000      -1.041949       -28.3529 
  67   2.0000      -1.040859       -28.3232 
  68   2.0000      -1.025954       -27.9176 
  69   2.0000      -1.010410       -27.4947 
  70   2.0000      -1.007762       -27.4226 
  71   2.0000      -0.998961       -27.1831 
  72   2.0000      -0.979167       -26.6445 
  73   2.0000      -0.977427       -26.5971 
  74   2.0000      -0.967061       -26.3151 
  75   2.0000      -0.962315       -26.1859 
  76   2.0000      -0.951890       -25.9022 
  77   2.0000      -0.944180       -25.6924 
  78   2.0000      -0.938707       -25.5435 
  79   2.0000      -0.923422       -25.1276 
  80   2.0000      -0.892248       -24.2793 
  81   2.0000      -0.876642       -23.8546 
  82   2.0000      -0.874427       -23.7944 
  83   2.0000      -0.869571       -23.6622 
  84   2.0000      -0.866727       -23.5848 
  85   2.0000      -0.856515       -23.3070 
  86   2.0000      -0.849412       -23.1137 
  87   2.0000      -0.843425       -22.9508 
  88   2.0000      -0.821971       -22.3670 
  89   2.0000      -0.798148       -21.7187 
  90   2.0000      -0.797900       -21.7120 
  91   2.0000      -0.738935       -20.1075 
  92   2.0000      -0.727843       -19.8056 
  93   2.0000      -0.727573       -19.7983 
  94   2.0000      -0.722658       -19.6645 
  95   2.0000      -0.718238       -19.5442 
  96   2.0000      -0.711676       -19.3657 
  97   2.0000      -0.711098       -19.3499 
  98   2.0000      -0.697961       -18.9925 
  99   2.0000      -0.690932       -18.8012 
 100   2.0000      -0.683290       -18.5933 
 101   2.0000      -0.680412       -18.5150 
 102   2.0000      -0.678595       -18.4655 
 103   2.0000      -0.673933       -18.3387 
 104   2.0000      -0.669615       -18.2212 
 105   2.0000      -0.667544       -18.1648 
 106   2.0000      -0.662364       -18.0238 
 107   2.0000      -0.658612       -17.9217 
 108   2.0000      -0.656192       -17.8559 
 109   2.0000      -0.653662       -17.7870 
 110   2.0000      -0.652631       -17.7590 
 111   2.0000      -0.651257       -17.7216 
 112   2.0000      -0.649033       -17.6611 
 113   2.0000      -0.647687       -17.6245 
 114   2.0000      -0.634211       -17.2578 
 115   2.0000      -0.623828       -16.9752 
 116   2.0000      -0.616154       -16.7664 
 117   2.0000      -0.615015       -16.7354 
 118   2.0000      -0.610077       -16.6010 
 119   2.0000      -0.609118       -16.5749 
 120   2.0000      -0.608201       -16.5500 
 121   2.0000      -0.607119       -16.5205 
 122   2.0000      -0.602861       -16.4047 
 123   2.0000      -0.594965       -16.1898 
 124   2.0000      -0.584872       -15.9152 
 125   2.0000      -0.583064       -15.8660 
 126   2.0000      -0.578861       -15.7516 
 127   2.0000      -0.578074       -15.7302 
 128   2.0000      -0.568419       -15.4675 
 129   2.0000      -0.564379       -15.3575 
 130   2.0000      -0.553483       -15.0610 
 131   2.0000      -0.541119       -14.7246 
 132   2.0000      -0.539950       -14.6928 
 133   2.0000      -0.535513       -14.5720 
 134   2.0000      -0.534703       -14.5500 
 135   2.0000      -0.530448       -14.4342 
 136   2.0000      -0.524737       -14.2788 
 137   2.0000      -0.523136       -14.2352 
 138   2.0000      -0.516435       -14.0529 
 139   2.0000      -0.514310       -13.9951 
 140   2.0000      -0.510750       -13.8982 
 141   2.0000      -0.507717       -13.8157 
 142   2.0000      -0.503012       -13.6877 
 143   2.0000      -0.502425       -13.6717 
 144   2.0000      -0.498483       -13.5644 
 145   2.0000      -0.497893       -13.5484 
 146   2.0000      -0.495991       -13.4966 
 147   2.0000      -0.494845       -13.4654 
 148   2.0000      -0.491099       -13.3635 
 149   2.0000      -0.468426       -12.7465 
 150   2.0000      -0.459980       -12.5167 
 151   2.0000      -0.451190       -12.2775 
 152   2.0000      -0.447159       -12.1678 
 153   2.0000      -0.445516       -12.1231 
 154   2.0000      -0.444957       -12.1079 
 155   2.0000      -0.439895       -11.9702 
 156   2.0000      -0.435150       -11.8410 
 157   2.0000      -0.430996       -11.7280 
 158   2.0000      -0.391533       -10.6542 
 159   2.0000      -0.379327       -10.3220 
 160   2.0000      -0.376705       -10.2507 
 161   2.0000      -0.375234       -10.2106 
 162   2.0000      -0.359569        -9.7844 
 163   2.0000      -0.357937        -9.7400 
 164   2.0000      -0.353574        -9.6212 
 165   2.0000      -0.352527        -9.5927 
 166   2.0000      -0.337440        -9.1822 
 167   2.0000      -0.332328        -9.0431 
 168   2.0000      -0.327844        -8.9211 
 169   2.0000      -0.300312        -8.1719 
 170   2.0000      -0.291929        -7.9438 
 171   2.0000      -0.291178        -7.9233 
 172   2.0000      -0.287422        -7.8211 
 173   2.0000      -0.255581        -6.9547 
 174   2.0000      -0.247211        -6.7270 
 175   2.0000      -0.187499        -5.1021 
 176   2.0000      -0.177317        -4.8250 
 177   2.0000      -0.065246        -1.7754 
 178   2.0000      -0.053421        -1.4537 
 179   0.0000       0.031766         0.8644 
 180   0.0000       0.070509         1.9187 
 181   0.0000       0.092438         2.5154 
 182   0.0000       0.095746         2.6054 
 183   0.0000       0.134339         3.6555 
 184   0.0000       0.136240         3.7073 
 185   0.0000       0.141359         3.8466 
 186   0.0000       0.142026         3.8647 
 187   0.0000       0.160757         4.3744 
 188   0.0000       0.162613         4.4249 
 189   0.0000       0.163695         4.4544 
 190   0.0000       0.167410         4.5555 
 191   0.0000       0.168050         4.5729 
 192   0.0000       0.202177         5.5015 
 193   0.0000       0.203476         5.5369 
 194   0.0000       0.206095         5.6081 
 195   0.0000       0.206695         5.6245 
 196   0.0000       0.207386         5.6432 
 197   0.0000       0.208102         5.6628 
 198   0.0000       0.210678         5.7328 
 199   0.0000       0.211509         5.7555 
 200   0.0000       0.237025         6.4498 
 201   0.0000       0.238341         6.4856 
 202   0.0000       0.241510         6.5718 
 203   0.0000       0.242536         6.5997 
 204   0.0000       0.254244         6.9183 
 205   0.0000       0.255027         6.9396 
 206   0.0000       0.258128         7.0240 
 207   0.0000       0.259540         7.0624 
 208   0.0000       0.260597         7.0912 
 209   0.0000       0.264440         7.1958 
 210   0.0000       0.267209         7.2711 
 211   0.0000       0.271018         7.3748 
 212   0.0000       0.274219         7.4619 
 213   0.0000       0.274639         7.4733 
 214   0.0000       0.278438         7.5767 
 215   0.0000       0.279746         7.6123 
 216   0.0000       0.280798         7.6409 
 217   0.0000       0.284047         7.7293 
 218   0.0000       0.284890         7.7522 
 219   0.0000       0.290428         7.9029 
 220   0.0000       0.291361         7.9283 
 221   0.0000       0.292776         7.9668 
 222   0.0000       0.294692         8.0190 
 223   0.0000       0.295135         8.0310 
 224   0.0000       0.299395         8.1470 
 225   0.0000       0.299855         8.1595 
 226   0.0000       0.301519         8.2048 
 227   0.0000       0.302045         8.2191 
 228   0.0000       0.307349         8.3634 
 229   0.0000       0.308932         8.4065 
 230   0.0000       0.313540         8.5319 
 231   0.0000       0.318195         8.6585 
 232   0.0000       0.326571         8.8864 
 233   0.0000       0.327285         8.9059 
 234   0.0000       0.332113         9.0373 
 235   0.0000       0.335551         9.1308 
 236   0.0000       0.356899         9.7117 
 237   0.0000       0.387822        10.5532 
 238   0.0000       0.395347        10.7579 
 239   0.0000       0.402380        10.9493 
 240   0.0000       0.404002        10.9935 
 241   0.0000       0.409126        11.1329 
 242   0.0000       0.421398        11.4668 
 243   0.0000       0.425720        11.5844 
 244   0.0000       0.430041        11.7020 
 245   0.0000       0.434636        11.8271 
 246   0.0000       0.437368        11.9014 
 247   0.0000       0.437979        11.9180 
 248   0.0000       0.439440        11.9578 
 249   0.0000       0.443713        12.0740 
 250   0.0000       0.444618        12.0987 
 251   0.0000       0.445139        12.1128 
 252   0.0000       0.455067        12.3830 
 253   0.0000       0.469741        12.7823 
 254   0.0000       0.471816        12.8388 
 255   0.0000       0.475957        12.9514 
 256   0.0000       0.477868        13.0034 
 257   0.0000       0.487183        13.2569 
 258   0.0000       0.488623        13.2961 
 259   0.0000       0.498605        13.5677 
 260   0.0000       0.501093        13.6354 
 261   0.0000       0.505117        13.7449 
 262   0.0000       0.506160        13.7733 
 263   0.0000       0.510039        13.8789 
 264   0.0000       0.511959        13.9311 
 265   0.0000       0.514558        14.0018 
 266   0.0000       0.516097        14.0437 
 267   0.0000       0.521231        14.1834 
 268   0.0000       0.536115        14.5884 
 269   0.0000       0.538213        14.6455 
 270   0.0000       0.540482        14.7073 
 271   0.0000       0.545455        14.8426 
 272   0.0000       0.550131        14.9698 
 273   0.0000       0.553125        15.0513 
 274   0.0000       0.561407        15.2767 
 275   0.0000       0.562732        15.3127 
 276   0.0000       0.572074        15.5669 
 277   0.0000       0.575421        15.6580 
 278   0.0000       0.583306        15.8726 
 279   0.0000       0.588511        16.0142 
 280   0.0000       0.589359        16.0373 
 281   0.0000       0.590762        16.0754 
 282   0.0000       0.595390        16.2014 
 283   0.0000       0.596495        16.2315 
 284   0.0000       0.598931        16.2977 
 285   0.0000       0.602615        16.3980 
 286   0.0000       0.604482        16.4488 
 287   0.0000       0.608037        16.5455 
 288   0.0000       0.608562        16.5598 
 289   0.0000       0.613439        16.6925 
 290   0.0000       0.616464        16.7748 
 291   0.0000       0.627726        17.0813 
 292   0.0000       0.637377        17.3439 
 293   0.0000       0.642047        17.4710 
 294   0.0000       0.644785        17.5455 
 295   0.0000       0.650249        17.6942 
 296   0.0000       0.657035        17.8788 
 297   0.0000       0.658069        17.9070 
 298   0.0000       0.662438        18.0258 
 299   0.0000       0.663374        18.0513 
 300   0.0000       0.671611        18.2755 
 301   0.0000       0.672842        18.3090 
 302   0.0000       0.674732        18.3604 
 303   0.0000       0.680878        18.5276 
 304   0.0000       0.682604        18.5746 
 305   0.0000       0.685958        18.6659 
 306   0.0000       0.689603        18.7650 
 307   0.0000       0.698212        18.9993 
 308   0.0000       0.700111        19.0510 
 309   0.0000       0.701996        19.1023 
 310   0.0000       0.703014        19.1300 
 311   0.0000       0.705709        19.2033 
 312   0.0000       0.707059        19.2400 
 313   0.0000       0.709152        19.2970 
 314   0.0000       0.712490        19.3878 
 315   0.0000       0.713909        19.4264 
 316   0.0000       0.716572        19.4989 
 317   0.0000       0.718091        19.5402 
 318   0.0000       0.720178        19.5970 
 319   0.0000       0.721344        19.6288 
 320   0.0000       0.723554        19.6889 
 321   0.0000       0.726101        19.7582 
 322   0.0000       0.730768        19.8852 
 323   0.0000       0.734843        19.9961 
 324   0.0000       0.739512        20.1231 
 325   0.0000       0.741811        20.1857 
 326   0.0000       0.744146        20.2493 
 327   0.0000       0.746528        20.3141 
 328   0.0000       0.748075        20.3562 
 329   0.0000       0.750643        20.4260 
 330   0.0000       0.751312        20.4442 
 331   0.0000       0.755101        20.5473 
 332   0.0000       0.757874        20.6228 
 333   0.0000       0.759991        20.6804 
 334   0.0000       0.763994        20.7893 
 335   0.0000       0.767785        20.8925 
 336   0.0000       0.773051        21.0358 
 337   0.0000       0.778119        21.1737 
 338   0.0000       0.784757        21.3543 
 339   0.0000       0.787450        21.4276 
 340   0.0000       0.792595        21.5676 
 341   0.0000       0.793967        21.6050 
 342   0.0000       0.796823        21.6827 
 343   0.0000       0.799608        21.7584 
 344   0.0000       0.804214        21.8838 
 345   0.0000       0.805467        21.9179 
 346   0.0000       0.808370        21.9969 
 347   0.0000       0.814225        22.1562 
 348   0.0000       0.815256        22.1842 
 349   0.0000       0.815540        22.1920 
 350   0.0000       0.818378        22.2692 
 351   0.0000       0.822309        22.3762 
 352   0.0000       0.825001        22.4494 
 353   0.0000       0.829249        22.5650 
 354   0.0000       0.830577        22.6011 
 355   0.0000       0.832871        22.6636 
 356   0.0000       0.834582        22.7101 
 357   0.0000       0.836821        22.7711 
 358   0.0000       0.838180        22.8080 
 359   0.0000       0.839549        22.8453 
 360   0.0000       0.840646        22.8751 
 361   0.0000       0.843077        22.9413 
 362   0.0000       0.843378        22.9495 
 363   0.0000       0.846713        23.0402 
 364   0.0000       0.847775        23.0691 
 365   0.0000       0.849337        23.1116 
 366   0.0000       0.849900        23.1270 
 367   0.0000       0.850913        23.1545 
 368   0.0000       0.855902        23.2903 
 369   0.0000       0.857916        23.3451 
 370   0.0000       0.864442        23.5227 
 371   0.0000       0.867288        23.6001 
 372   0.0000       0.870165        23.6784 
 373   0.0000       0.876371        23.8473 
 374   0.0000       0.880069        23.9479 
 375   0.0000       0.881839        23.9961 
 376   0.0000       0.883354        24.0373 
 377   0.0000       0.890157        24.2224 
 378   0.0000       0.892164        24.2770 
 379   0.0000       0.895057        24.3557 
 380   0.0000       0.898681        24.4543 
 381   0.0000       0.900875        24.5140 
 382   0.0000       0.902608        24.5612 
 383   0.0000       0.903951        24.5978 
 384   0.0000       0.906470        24.6663 
 385   0.0000       0.908101        24.7107 
 386   0.0000       0.908602        24.7243 
 387   0.0000       0.910101        24.7651 
 388   0.0000       0.911863        24.8131 
 389   0.0000       0.913967        24.8703 
 390   0.0000       0.918435        24.9919 
 391   0.0000       0.921051        25.0631 
 392   0.0000       0.922146        25.0929 
 393   0.0000       0.922740        25.1090 
 394   0.0000       0.928239        25.2587 
 395   0.0000       0.931538        25.3484 
 396   0.0000       0.934517        25.4295 
 397   0.0000       0.936601        25.4862 
 398   0.0000       0.938035        25.5252 
 399   0.0000       0.941006        25.6061 
 400   0.0000       0.944105        25.6904 
 401   0.0000       0.945752        25.7352 
 402   0.0000       0.948333        25.8055 
 403   0.0000       0.950275        25.8583 
 404   0.0000       0.952477        25.9182 
 405   0.0000       0.955829        26.0094 
 406   0.0000       0.957842        26.0642 
 407   0.0000       0.965678        26.2774 
 408   0.0000       0.968454        26.3530 
 409   0.0000       0.970587        26.4110 
 410   0.0000       0.975283        26.5388 
 411   0.0000       0.979179        26.6448 
 412   0.0000       0.981022        26.6950 
 413   0.0000       0.988621        26.9017 
 414   0.0000       0.990600        26.9556 
 415   0.0000       0.991393        26.9772 
 416   0.0000       0.992083        26.9959 
 417   0.0000       1.004631        27.3374 
 418   0.0000       1.006829        27.3972 
 419   0.0000       1.012460        27.5504 
 420   0.0000       1.023818        27.8595 
 421   0.0000       1.031639        28.0723 
 422   0.0000       1.032481        28.0952 
 423   0.0000       1.036242        28.1976 
 424   0.0000       1.040111        28.3029 
 425   0.0000       1.045946        28.4616 
 426   0.0000       1.052854        28.6496 
 427   0.0000       1.066470        29.0201 
 428   0.0000       1.070930        29.1415 
 429   0.0000       1.072750        29.1910 
 430   0.0000       1.077823        29.3291 
 431   0.0000       1.081500        29.4291 
 432   0.0000       1.083710        29.4892 
 433   0.0000       1.087546        29.5936 
 434   0.0000       1.093630        29.7592 
 435   0.0000       1.099817        29.9275 
 436   0.0000       1.110552        30.2197 
 437   0.0000       1.113891        30.3105 
 438   0.0000       1.117204        30.4007 
 439   0.0000       1.118384        30.4328 
 440   0.0000       1.122623        30.5481 
 441   0.0000       1.124686        30.6043 
 442   0.0000       1.128151        30.6986 
 443   0.0000       1.133484        30.8437 
 444   0.0000       1.134739        30.8778 
 445   0.0000       1.135468        30.8976 
 446   0.0000       1.138347        30.9760 
 447   0.0000       1.141826        31.0707 
 448   0.0000       1.143738        31.1227 
 449   0.0000       1.145488        31.1703 
 450   0.0000       1.149114        31.2690 
 451   0.0000       1.149571        31.2814 
 452   0.0000       1.152070        31.3494 
 453   0.0000       1.160259        31.5723 
 454   0.0000       1.160878        31.5891 
 455   0.0000       1.165597        31.7175 
 456   0.0000       1.174726        31.9659 
 457   0.0000       1.178711        32.0744 
 458   0.0000       1.181702        32.1557 
 459   0.0000       1.182408        32.1750 
 460   0.0000       1.188906        32.3518 
 461   0.0000       1.194262        32.4975 
 462   0.0000       1.198718        32.6188 
 463   0.0000       1.205749        32.8101 
 464   0.0000       1.207829        32.8667 
 465   0.0000       1.212152        32.9843 
 466   0.0000       1.213346        33.0168 
 467   0.0000       1.218476        33.1564 
 468   0.0000       1.223452        33.2918 
 469   0.0000       1.227665        33.4065 
 470   0.0000       1.234070        33.5807 
 471   0.0000       1.237626        33.6775 
 472   0.0000       1.237947        33.6862 
 473   0.0000       1.240223        33.7482 
 474   0.0000       1.242397        33.8073 
 475   0.0000       1.247840        33.9555 
 476   0.0000       1.248029        33.9606 
 477   0.0000       1.249744        34.0073 
 478   0.0000       1.252222        34.0747 
 479   0.0000       1.256264        34.1847 
 480   0.0000       1.259983        34.2859 
 481   0.0000       1.266004        34.4497 
 482   0.0000       1.267747        34.4972 
 483   0.0000       1.270756        34.5790 
 484   0.0000       1.275967        34.7208 
 485   0.0000       1.279764        34.8242 
 486   0.0000       1.281248        34.8645 
 487   0.0000       1.286892        35.0181 
 488   0.0000       1.289438        35.0874 
 489   0.0000       1.290258        35.1097 
 490   0.0000       1.291381        35.1403 
 491   0.0000       1.292776        35.1782 
 492   0.0000       1.301519        35.4161 
 493   0.0000       1.307789        35.5867 
 494   0.0000       1.313812        35.7506 
 495   0.0000       1.314784        35.7771 
 496   0.0000       1.321070        35.9481 
 497   0.0000       1.321520        35.9604 
 498   0.0000       1.325004        36.0552 
 499   0.0000       1.328435        36.1486 
 500   0.0000       1.336900        36.3789 
 501   0.0000       1.339644        36.4536 
 502   0.0000       1.344604        36.5885 
 503   0.0000       1.345669        36.6175 
 504   0.0000       1.346551        36.6415 
 505   0.0000       1.351327        36.7715 
 506   0.0000       1.352113        36.7929 
 507   0.0000       1.355906        36.8961 
 508   0.0000       1.358382        36.9635 
 509   0.0000       1.361262        37.0418 
 510   0.0000       1.365802        37.1654 
 511   0.0000       1.368756        37.2457 
 512   0.0000       1.370724        37.2993 
[...]
      pz      :     0.021933  p :     0.079510
      px      :     0.043214
      py      :     0.014363
 77 H s       :     0.890303  s :     0.890303
      pz      :     0.047531  p :     0.078784
      px      :     0.015010
      py      :     0.016244
 78 H s       :     0.890689  s :     0.890689
      pz      :     0.025655  p :     0.078720
      px      :     0.020585
      py      :     0.032480
 79 H s       :     0.908797  s :     0.908797
      pz      :     0.022212  p :     0.086810
      px      :     0.021795
      py      :     0.042804
 80 H s       :     0.872410  s :     0.872410
      pz      :     0.038736  p :     0.083928
      px      :     0.029832
      py      :     0.015360
 81 H s       :     0.887369  s :     0.887369
      pz      :     0.037723  p :     0.083767
      px      :     0.016125
      py      :     0.029919
 82 H s       :     0.914794  s :     0.914794
      pz      :     0.022149  p :     0.086913
      px      :     0.031293
      py      :     0.033471
 83 H s       :     0.872303  s :     0.872303
      pz      :     0.039266  p :     0.083943
      px      :     0.015245
      py      :     0.029431
 84 H s       :     0.887144  s :     0.887144
      pz      :     0.035812  p :     0.083846
      px      :     0.031748
      py      :     0.016286
 85 H s       :     0.893860  s :     0.893860
      pz      :     0.022507  p :     0.079723
      px      :     0.014092
      py      :     0.043124
 86 H s       :     0.890589  s :     0.890589
      pz      :     0.024727  p :     0.078881
      px      :     0.033006
      py      :     0.021148
 87 H s       :     0.890265  s :     0.890265
      pz      :     0.047944  p :     0.078694
      px      :     0.015618
      py      :     0.015132
 88 H s       :     0.914577  s :     0.914577
      pz      :     0.022096  p :     0.086909
      px      :     0.042449
      py      :     0.022365
 89 H s       :     0.872854  s :     0.872854
      pz      :     0.037884  p :     0.083921
      px      :     0.030497
      py      :     0.015540


                      *****************************
                      * MAYER POPULATION ANALYSIS *
                      *****************************

  NA   - Mulliken gross atomic population
  ZA   - Total nuclear charge
  QA   - Mulliken gross atomic charge
  VA   - Mayer's total valence
  BVA  - Mayer's bonded valence
  FA   - Mayer's free valence

  ATOM       NA         ZA         QA         VA         BVA        FA
  0 C      5.7870     6.0000     0.2130     3.8251     3.8251    -0.0000
  1 N      7.4397     7.0000    -0.4397     3.3801     3.3801    -0.0000
  2 C      6.0647     6.0000    -0.0647     3.9177     3.9177     0.0000
  3 N      7.3381     7.0000    -0.3381     3.4420     3.4420     0.0000
  4 C      6.0677     6.0000    -0.0677     3.9812     3.9812    -0.0000
  5 N      7.5640     7.0000    -0.5640     3.0822     3.0822    -0.0000
  6 C      6.0587     6.0000    -0.0587     3.9915     3.9915    -0.0000
  7 N      7.3377     7.0000    -0.3377     3.4423     3.4423     0.0000
  8 C      5.7933     6.0000     0.2067     3.8262     3.8262    -0.0000
  9 N      7.5637     7.0000    -0.5637     3.0846     3.0846    -0.0000
 10 C      5.8862     6.0000     0.1138     3.8910     3.8910    -0.0000
 11 N      7.4373     7.0000    -0.4373     3.3845     3.3845     0.0000
 12 C      6.0698     6.0000    -0.0698     3.9166     3.9166     0.0000
 13 N      7.4410     7.0000    -0.4410     3.3725     3.3725    -0.0000
 14 C      5.7593     6.0000     0.2407     3.7921     3.7921    -0.0000
 15 N      7.4407     7.0000    -0.4407     3.3715     3.3715     0.0000
 16 C      5.7635     6.0000     0.2365     3.7943     3.7943    -0.0000
 17 C      6.0671     6.0000    -0.0671     3.9930     3.9930    -0.0000
 18 C      6.2117     6.0000    -0.2117     3.7455     3.7455     0.0000
 19 C      5.7589     6.0000     0.2411     3.8724     3.8724    -0.0000
 20 C      5.7935     6.0000     0.2065     3.8247     3.8247    -0.0000
 21 C      6.0822     6.0000    -0.0822     3.9059     3.9059    -0.0000
 22 C      6.0865     6.0000    -0.0865     3.9841     3.9841    -0.0000
 23 C      6.0506     6.0000    -0.0506     3.9897     3.9897    -0.0000
 24 C      5.7925     6.0000     0.2075     3.8239     3.8239    -0.0000
 25 C      5.8862     6.0000     0.1138     3.8898     3.8898     0.0000
 26 C      6.0712     6.0000    -0.0712     3.9070     3.9070    -0.0000
 27 C      5.7738     6.0000     0.2262     3.8864     3.8864     0.0000
 28 C      6.0510     6.0000    -0.0510     3.9876     3.9876    -0.0000
 29 C      6.1870     6.0000    -0.1870     3.7333     3.7333    -0.0000
 30 C      5.7662     6.0000     0.2338     3.7921     3.7921    -0.0000
 31 C      5.7919     6.0000     0.2081     3.8277     3.8277    -0.0000
 32 C      6.0658     6.0000    -0.0658     3.9167     3.9167     0.0000
 33 C      6.0835     6.0000    -0.0835     3.9848     3.9848     0.0000
 34 C      6.0506     6.0000    -0.0506     3.9927     3.9927    -0.0000
 35 C      5.7981     6.0000     0.2019     3.8257     3.8257    -0.0000
 36 C      5.8851     6.0000     0.1149     3.8936     3.8936     0.0000
 37 C      6.0673     6.0000    -0.0673     3.9173     3.9173     0.0000
 38 C      5.7626     6.0000     0.2374     3.7982     3.7982    -0.0000
 39 C      6.0615     6.0000    -0.0615     3.9919     3.9919    -0.0000
 40 C      6.1915     6.0000    -0.1915     3.7421     3.7421     0.0000
 41 C      5.7789     6.0000     0.2211     3.8807     3.8807     0.0000
 42 C      5.7953     6.0000     0.2047     3.8281     3.8281    -0.0000
 43 C      6.0738     6.0000    -0.0738     3.9036     3.9036     0.0000
 44 C      6.0888     6.0000    -0.0888     3.9849     3.9849    -0.0000
 45 C      6.0507     6.0000    -0.0507     3.9934     3.9934    -0.0000
 46 C      5.7986     6.0000     0.2014     3.8248     3.8248    -0.0000
 47 C      5.8844     6.0000     0.1156     3.8938     3.8938    -0.0000
 48 C      6.0750     6.0000    -0.0750     3.9033     3.9033     0.0000
 49 C      5.7756     6.0000     0.2244     3.8816     3.8816    -0.0000
 50 C      6.0546     6.0000    -0.0546     3.9901     3.9901    -0.0000
 51 C      6.1891     6.0000    -0.1891     3.7368     3.7368    -0.0000
 52 H      0.9428     1.0000     0.0572     0.9848     0.9848    -0.0000
 53 H      1.0133     1.0000    -0.0133     0.9993     0.9993     0.0000
 54 H      0.9520     1.0000     0.0480     1.0075     1.0075     0.0000
 55 H      0.9446     1.0000     0.0554     0.9857     0.9857    -0.0000
 56 H      0.9382     1.0000     0.0618     0.9715     0.9715    -0.0000
 57 H      0.9413     1.0000     0.0587     0.9841     0.9841     0.0000
 58 H      0.9423     1.0000     0.0577     0.9856     0.9856     0.0000
 59 H      1.0142     1.0000    -0.0142     0.9990     0.9990     0.0000
 60 H      0.9498     1.0000     0.0502     1.0090     1.0090    -0.0000
 61 H      0.8266     1.0000     0.1734     1.0427     1.0427     0.0000
 62 H      0.8278     1.0000     0.1722     1.0434     1.0434     0.0000
 63 H      0.9434     1.0000     0.0566     0.9855     0.9855     0.0000
 64 H      1.0204     1.0000    -0.0204     0.9954     0.9954    -0.0000
 65 H      0.9529     1.0000     0.0471     1.0088     1.0088    -0.0000
 66 H      0.9421     1.0000     0.0579     0.9849     0.9849    -0.0000
 67 H      0.9374     1.0000     0.0626     0.9719     0.9719    -0.0000
 68 H      0.9417     1.0000     0.0583     0.9867     0.9867    -0.0000
 69 H      0.9409     1.0000     0.0591     0.9830     0.9830    -0.0000
 70 H      1.0235     1.0000    -0.0235     0.9947     0.9947    -0.0000
 71 H      0.9520     1.0000     0.0480     1.0068     1.0068    -0.0000
 72 H      0.9457     1.0000     0.0543     0.9851     0.9851     0.0000
 73 H      1.0152     1.0000    -0.0152     0.9983     0.9983     0.0000
 74 H      0.9553     1.0000     0.0447     1.0098     1.0098    -0.0000
 75 H      0.9467     1.0000     0.0533     0.9857     0.9857    -0.0000
 76 H      0.9398     1.0000     0.0602     0.9714     0.9714     0.0000
 77 H      0.9432     1.0000     0.0568     0.9850     0.9850     0.0000
 78 H      0.9440     1.0000     0.0560     0.9846     0.9846     0.0000
 79 H      1.0138     1.0000    -0.0138     0.9997     0.9997     0.0000
 80 H      0.9549     1.0000     0.0451     1.0070     1.0070    -0.0000
 81 H      0.9468     1.0000     0.0532     0.9854     0.9854     0.0000
 82 H      1.0232     1.0000    -0.0232     0.9944     0.9944     0.0000
 83 H      0.9566     1.0000     0.0434     1.0094     1.0094    -0.0000
 84 H      0.9469     1.0000     0.0531     0.9856     0.9856    -0.0000
 85 H      0.9412     1.0000     0.0588     0.9716     0.9716    -0.0000
 86 H      0.9435     1.0000     0.0565     0.9840     0.9840     0.0000
 87 H      0.9435     1.0000     0.0565     0.9855     0.9855     0.0000
 88 H      1.0226     1.0000    -0.0226     0.9941     0.9941     0.0000
 89 H      0.9564     1.0000     0.0436     1.0070     1.0070    -0.0000

  Mayer bond orders larger than 0.100000
B(  0-C ,  1-N ) :   1.1242 B(  0-C , 17-C ) :   1.6280 B(  0-C , 52-H ) :   0.9691 
B(  1-N ,  8-C ) :   1.1189 B(  1-N , 10-C ) :   0.9592 B(  2-C , 12-C ) :   1.5375 
B(  2-C , 16-C ) :   1.3218 B(  2-C , 53-H ) :   0.9778 B(  3-N , 14-C ) :   1.1999 
B(  3-N , 16-C ) :   1.1971 B(  3-N , 61-H ) :   0.8979 B(  4-C ,  6-C ) :   1.2710 
B(  4-C , 17-C ) :   1.2719 B(  4-C , 18-C ) :   1.2573 B(  5-N , 19-C ) :   1.4154 
B(  5-N , 27-C ) :   1.4076 B(  6-C ,  8-C ) :   1.6297 B(  6-C , 54-H ) :   0.9710 
B(  7-N , 30-C ) :   1.1929 B(  7-N , 38-C ) :   1.2029 B(  7-N , 62-H ) :   0.8987 
B(  8-C , 55-H ) :   0.9698 B(  9-N , 41-C ) :   1.4119 B(  9-N , 49-C ) :   1.4119 
B( 10-C , 56-H ) :   0.9764 B( 10-C , 57-H ) :   0.9817 B( 10-C , 58-H ) :   0.9834 
B( 11-N , 20-C ) :   1.1233 B( 11-N , 24-C ) :   1.1252 B( 11-N , 25-C ) :   0.9580 
B( 12-C , 14-C ) :   1.3222 B( 12-C , 59-H ) :   0.9767 B( 13-N , 31-C ) :   1.1192 
B( 13-N , 35-C ) :   1.1126 B( 13-N , 36-C ) :   0.9621 B( 14-C , 18-C ) :   1.1973 
B( 15-N , 42-C ) :   1.1175 B( 15-N , 46-C ) :   1.1120 B( 15-N , 47-C ) :   0.9624 
B( 16-C , 51-C ) :   1.2015 B( 17-C , 60-H ) :   0.9709 B( 18-C , 19-C ) :   1.2194 
B( 19-C , 21-C ) :   1.2052 B( 20-C , 28-C ) :   1.6224 B( 20-C , 63-H ) :   0.9703 
B( 21-C , 26-C ) :   1.6472 B( 21-C , 64-H ) :   0.9719 B( 22-C , 23-C ) :   1.2821 
B( 22-C , 28-C ) :   1.2760 B( 22-C , 29-C ) :   1.2303 B( 23-C , 24-C ) :   1.6186 
B( 23-C , 65-H ) :   0.9710 B( 24-C , 66-H ) :   0.9691 B( 25-C , 67-H ) :   0.9762 
B( 25-C , 68-H ) :   0.9829 B( 25-C , 69-H ) :   0.9821 B( 26-C , 27-C ) :   1.2059 
B( 26-C , 70-H ) :   0.9734 B( 27-C , 29-C ) :   1.2338 B( 28-C , 71-H ) :   0.9713 
B( 29-C , 30-C ) :   1.2055 B( 30-C , 32-C ) :   1.3182 B( 31-C , 39-C ) :   1.6361 
B( 31-C , 72-H ) :   0.9698 B( 32-C , 37-C ) :   1.5400 B( 32-C , 73-H ) :   0.9777 
B( 33-C , 34-C ) :   1.2704 B( 33-C , 39-C ) :   1.2638 B( 33-C , 40-C ) :   1.2606 
B( 34-C , 35-C ) :   1.6334 B( 34-C , 74-H ) :   0.9705 B( 35-C , 75-H ) :   0.9698 
B( 36-C , 76-H ) :   0.9762 B( 36-C , 77-H ) :   0.9821 B( 36-C , 78-H ) :   0.9832 
B( 37-C , 38-C ) :   1.3189 B( 37-C , 79-H ) :   0.9779 B( 38-C , 40-C ) :   1.2033 
B( 39-C , 80-H ) :   0.9716 B( 40-C , 41-C ) :   1.2140 B( 41-C , 43-C ) :   1.2169 
B( 42-C , 50-C ) :   1.6338 B( 42-C , 81-H ) :   0.9696 B( 43-C , 48-C ) :   1.6347 
B( 43-C , 82-H ) :   0.9739 B( 44-C , 45-C ) :   1.2726 B( 44-C , 50-C ) :   1.2654 
B( 44-C , 51-C ) :   1.2536 B( 45-C , 46-C ) :   1.6319 B( 45-C , 83-H ) :   0.9711 
B( 46-C , 84-H ) :   0.9703 B( 47-C , 85-H ) :   0.9761 B( 47-C , 86-H ) :   0.9827 
B( 47-C , 87-H ) :   0.9826 B( 48-C , 49-C ) :   1.2159 B( 48-C , 88-H ) :   0.9737 
B( 49-C , 51-C ) :   1.2191 B( 50-C , 89-H ) :   0.9714 

-------
TIMINGS
-------

Total SCF time: 0 days 0 hours 26 min 44 sec 

Total time                  ....    1604.224 sec
Sum of individual times     ....    1599.494 sec  ( 99.7%)

Fock matrix formation       ....    1572.914 sec  ( 98.0%)
Diagonalization             ....       8.829 sec  (  0.6%)
Density matrix formation    ....       0.490 sec  (  0.0%)
Population analysis         ....       0.588 sec  (  0.0%)
Initial guess               ....       2.520 sec  (  0.2%)
Orbital Transformation      ....       0.000 sec  (  0.0%)
Orbital Orthonormalization  ....       0.000 sec  (  0.0%)
DIIS solution               ....       3.975 sec  (  0.2%)
SOSCF solution              ....       8.877 sec  (  0.6%)

Maximum memory used throughout the entire SCF-calculation: 302.5 MB


           ************************************************************
           *        Program running with 16 parallel MPI-processes    *
           *              working on a common directory               *
           ************************************************************

------------------------------------------------------------------------------
                                ORCA  MP2 
------------------------------------------------------------------------------

Freezing NCore=104 chemical core electrons

----------
MP2 ENERGY (disk based algorithm)
----------

Dimension of the basis                    ...  918
Memory devoted to MP2                     ... 2000 MB   
Data format for buffers                   ... DOUBLE
Compression type for matrix containers    ... UNCOMPRESSED

-------------------------------
PARTIAL EXCHANGE TRANSFORMATION
-------------------------------

Transformation type                        ... one-operator
Generation of integrals (i,mue|j,nue)      ... ON
Generation of integrals (mue,kappa|nue,tau)... OFF
Generation of integrals (i,mue|a,nue)      ... OFF
Dimension of the basis                     ...  918
Number of internal MOs                     ...  127 (  52- 178)
Pair cutoff                                ... 2.500e-12 Eh
Number of AO pairs in the trafo            ... 421821
Total Number of distinct AO pairs          ... 421821
Memory devoted for trafo                   ... 2000.0 MB 
Max. Number of MO pairs treated together   ...  311      
Number Format for Storage                  ... Double (8 Byte)
Integral package used                      ... LIBINT

Starting integral evaluation:
    ... done with AO integral generation
Closing buffer AOK     (38.43 GB; CompressionRatio= 1.32)
Collecting buffer AOK 
Number of MO pairs included in the trafo   ... 8128
------------------------
SORTING OF (i,mue|j,nue)
------------------------

IBATCH = 1 of  2
IBATCH = 2 of  2
Closing buffer KAO     (51.03 GB; CompressionRatio= 1.00)
Collecting buffer KAO 
N(AO-Batches) Done                         ...  84775920 
N(AO-Batches) Skipped                      ...  82897511 
N(IJ)-pairs Skipped                        ...         0 
TOTAL TIME for half transformation         ...  2803.747 sec
AO-integral generation                     ...   208.970 sec
Half transformation                        ...   424.203 sec
K-integral sorting                         ...  1948.621 sec
Process 10:   Internal MO 132
Process 13:   Internal MO 156

Finished integral transformation - now doing MP2 part

OPERATOR COMBINATION   0   0: ij=( 52..178, 52..178)
Process  4:   Internal MO  84
Process  7:   Internal MO 108
Process  1:   Internal MO  60
Process  2:   Internal MO  69
Process  1:   Internal MO  63
Process  5:   Internal MO  93
Process  1:   Internal MO  66
Process  2:   Internal MO  72
Process  8:   Internal MO 117
Process  6:   Internal MO 102
Process 11:   Internal MO 141
Process 14:   Internal MO 165
Process  3:   Internal MO  78
Process  4:   Internal MO  87
Process  0:   Internal MO  54
Process  9:   Internal MO 126
Process  2:   Internal MO  75
Process  0:   Internal MO  57
Process  7:   Internal MO 111
Process  5:   Internal MO  96
Process  4:   Internal MO  90
Process 15:   Internal MO 174
Process  3:   Internal MO  81
Process 10:   Internal MO 135
Process  6:   Internal MO 105
Process  8:   Internal MO 120
Process  7:   Internal MO 114
Process  9:   Internal MO 129
Process 12:   Internal MO 150
Process  5:   Internal MO  99
Process 13:   Internal MO 159
Process 11:   Internal MO 144
Process 14:   Internal MO 168
Process 10:   Internal MO 138
Process  8:   Internal MO 123
Process 15:   Internal MO 177
Process 12:   Internal MO 153
Process 11:   Internal MO 147
Process 13:   Internal MO 162
Process 14:   Internal MO 171
-----------------------------------------------
 MP2 CORRELATION ENERGY   :     -7.290626099 Eh
-----------------------------------------------


-------
TIMINGS
-------
Total time                : 3133.563 sec
Integral trafo            : 2805.797 sec ( 89.5%)
K(i,j)                    :   62.447 sec (  2.0%)
T(i,j)                    :    2.022 sec (  0.1%)

---------------------------------------
MP2 TOTAL ENERGY:    -2130.911527456 Eh
---------------------------------------

Maximum memory used throughout the entire MP2-calculation: 2275.2 MB

-------------------------   --------------------
FINAL SINGLE POINT ENERGY     -2130.911527455870
-------------------------   --------------------


                            ***************************************
                            *     ORCA property calculations      *
                            ***************************************


  WARNING: The energy has been calculated at the MP2 level but the densities
           used in the property calculations are still SCF densities
           MP2 response densities have not been calculated 
           use %mp2 Density relaxed end
           or  %mp2 Density unrelaxed end

                                    ---------------------
                                    Active property flags
                                    ---------------------
   (+) Dipole Moment


------------------------------------------------------------------------------
                       ORCA ELECTRIC PROPERTIES CALCULATION
------------------------------------------------------------------------------

Dipole Moment Calculation                       ... on
Quadrupole Moment Calculation                   ... off
Polarizability Calculation                      ... off
GBWName                                         ... /scratch/allen/tmpyp4_amber_gaff2/conf1/conf1/Conf243.orca.gbw
Electron density                                ... /scratch/allen/tmpyp4_amber_gaff2/conf1/conf1/Conf243.orca.scfp
The origin for moment calculation is the CENTER OF MASS  = ( 0.001476, -0.003016 -0.001717)

-------------
DIPOLE MOMENT
-------------
                                X             Y             Z
Electronic contribution:     -0.75002      -0.23622      -0.10798
Nuclear contribution   :      0.07441       0.23689       0.12148
                        -----------------------------------------
Total Dipole Moment    :     -0.67561       0.00067       0.01351
                        -----------------------------------------
Magnitude (a.u.)       :      0.67574
Magnitude (Debye)      :      1.71760



--------------------
Rotational spectrum 
--------------------
 
Rotational constants in cm-1:     0.001498     0.001474     0.000762 
Rotational constants in MHz :    44.923389    44.196880    22.846703 

 Dipole components along the rotational axes: 
x,y,z [a.u.] :    -0.634879    -0.231134     0.011439 
x,y,z [Debye]:    -1.613734    -0.587495     0.029076 

 

Timings for individual modules:

Sum of individual times         ...     4761.594 sec (=  79.360 min)
GTO integral calculation        ...        3.480 sec (=   0.058 min)   0.1 %
SCF iterations                  ...     1605.492 sec (=  26.758 min)  33.7 %
MP2 module                      ...     3152.622 sec (=  52.544 min)  66.2 %
                             ****ORCA TERMINATED NORMALLY****
TOTAL RUN TIME: 0 days 1 hours 19 minutes 25 seconds 250 msec
# of primitive gaussian functions

