
                                 *****************
                                 * O   R   C   A *
                                 *****************

                                            #,                                       
                                            ###                                      
                                            ####                                     
                                            #####                                    
                                            ######                                   
                                           ########,                                 
                                     ,,################,,,,,                         
                               ,,#################################,,                 
                          ,,##########################################,,             
                       ,#########################################, ''#####,          
                    ,#############################################,,   '####,        
                  ,##################################################,,,,####,       
                ,###########''''           ''''###############################       
              ,#####''   ,,,,##########,,,,          '''####'''          '####       
            ,##' ,,,,###########################,,,                        '##       
           ' ,,###''''                  '''############,,,                           
         ,,##''                                '''############,,,,        ,,,,,,###''
      ,#''                                            '''#######################'''  
     '                                                          ''''####''''         
             ,#######,   #######,   ,#######,      ##                                
            ,#'     '#,  ##    ##  ,#'     '#,    #''#        ######   ,####,        
            ##       ##  ##   ,#'  ##            #'  '#       #        #'  '#        
            ##       ##  #######   ##           ,######,      #####,   #    #        
            '#,     ,#'  ##    ##  '#,     ,#' ,#      #,         ##   #,  ,#        
             '#######'   ##     ##  '#######'  #'      '#     #####' # '####'        



                  #######################################################
                  #                        -***-                        #
                  #          Department of theory and spectroscopy      #
                  #    Directorship and core code : Frank Neese         #
                  #        Max Planck Institute fuer Kohlenforschung    #
                  #                Kaiser Wilhelm Platz 1               #
                  #                 D-45470 Muelheim/Ruhr               #
                  #                      Germany                        #
                  #                                                     #
                  #                  All rights reserved                #
                  #                        -***-                        #
                  #######################################################


                         Program Version 5.0.4 -  RELEASE  -


 With contributions from (in alphabetic order):
   Daniel Aravena         : Magnetic Suceptibility
   Michael Atanasov       : Ab Initio Ligand Field Theory (pilot matlab implementation)
   Alexander A. Auer      : GIAO ZORA, VPT2 properties, NMR spectrum
   Ute Becker             : Parallelization
   Giovanni Bistoni       : ED, misc. LED, open-shell LED, HFLD
   Martin Brehm           : Molecular dynamics
   Dmytro Bykov           : SCF Hessian
   Vijay G. Chilkuri      : MRCI spin determinant printing, contributions to CSF-ICE
   Dipayan Datta          : RHF DLPNO-CCSD density
   Achintya Kumar Dutta   : EOM-CC, STEOM-CC
   Dmitry Ganyushin       : Spin-Orbit,Spin-Spin,Magnetic field MRCI
   Miquel Garcia          : C-PCM and meta-GGA Hessian, CC/C-PCM, Gaussian charge scheme
   Yang Guo               : DLPNO-NEVPT2, F12-NEVPT2, CIM, IAO-localization
   Andreas Hansen         : Spin unrestricted coupled pair/coupled cluster methods
   Benjamin Helmich-Paris : MC-RPA, TRAH-SCF, COSX integrals
   Lee Huntington         : MR-EOM, pCC
   Robert Izsak           : Overlap fitted RIJCOSX, COSX-SCS-MP3, EOM
   Marcus Kettner         : VPT2
   Christian Kollmar      : KDIIS, OOCD, Brueckner-CCSD(T), CCSD density, CASPT2, CASPT2-K
   Simone Kossmann        : Meta GGA functionals, TD-DFT gradient, OOMP2, MP2 Hessian
   Martin Krupicka        : Initial AUTO-CI
   Lucas Lang             : DCDCAS
   Marvin Lechner         : AUTO-CI (C++ implementation), FIC-MRCC
   Dagmar Lenk            : GEPOL surface, SMD
   Dimitrios Liakos       : Extrapolation schemes; Compound Job, initial MDCI parallelization
   Dimitrios Manganas     : Further ROCIS development; embedding schemes
   Dimitrios Pantazis     : SARC Basis sets
   Anastasios Papadopoulos: AUTO-CI, single reference methods and gradients
   Taras Petrenko         : DFT Hessian,TD-DFT gradient, ASA, ECA, R-Raman, ABS, FL, XAS/XES, NRVS
   Peter Pinski           : DLPNO-MP2, DLPNO-MP2 Gradient
   Christoph Reimann      : Effective Core Potentials
   Marius Retegan         : Local ZFS, SOC
   Christoph Riplinger    : Optimizer, TS searches, QM/MM, DLPNO-CCSD(T), (RO)-DLPNO pert. Triples
   Tobias Risthaus        : Range-separated hybrids, TD-DFT gradient, RPA, STAB
   Michael Roemelt        : Original ROCIS implementation
   Masaaki Saitow         : Open-shell DLPNO-CCSD energy and density
   Barbara Sandhoefer     : DKH picture change effects
   Avijit Sen             : IP-ROCIS
   Kantharuban Sivalingam : CASSCF convergence, NEVPT2, FIC-MRCI
   Bernardo de Souza      : ESD, SOC TD-DFT
   Georgi Stoychev        : AutoAux, RI-MP2 NMR, DLPNO-MP2 response
   Willem Van den Heuvel  : Paramagnetic NMR
   Boris Wezisla          : Elementary symmetry handling
   Frank Wennmohs         : Technical directorship


 We gratefully acknowledge several colleagues who have allowed us to
 interface, adapt or use parts of their codes:
   Stefan Grimme, W. Hujo, H. Kruse, P. Pracht,  : VdW corrections, initial TS optimization,
                  C. Bannwarth, S. Ehlert          DFT functionals, gCP, sTDA/sTD-DF
   Ed Valeev, F. Pavosevic, A. Kumar             : LibInt (2-el integral package), F12 methods
   Garnet Chan, S. Sharma, J. Yang, R. Olivares  : DMRG
   Ulf Ekstrom                                   : XCFun DFT Library
   Mihaly Kallay                                 : mrcc  (arbitrary order and MRCC methods)
   Jiri Pittner, Ondrej Demel                    : Mk-CCSD
   Frank Weinhold                                : gennbo (NPA and NBO analysis)
   Christopher J. Cramer and Donald G. Truhlar   : smd solvation model
   Lars Goerigk                                  : TD-DFT with DH, B97 family of functionals
   V. Asgeirsson, H. Jonsson                     : NEB implementation
   FAccTs GmbH                                   : IRC, NEB, NEB-TS, DLPNO-Multilevel, CI-OPT
                                                   MM, QMMM, 2- and 3-layer-ONIOM, Crystal-QMMM,
                                                   LR-CPCM, SF, NACMEs, symmetry and pop. for TD-DFT,
                                                   nearIR, NL-DFT gradient (VV10), updates on ESD,
                                                   ML-optimized integration grids
   S Lehtola, MJT Oliveira, MAL Marques          : LibXC Library
   Liviu Ungur et al                             : ANISO software


 Your calculation uses the libint2 library for the computation of 2-el integrals
 For citations please refer to: http://libint.valeyev.net

 Your ORCA version has been built with support for libXC version: 5.1.0
 For citations please refer to: https://tddft.org/programs/libxc/

 This ORCA versions uses:
   CBLAS   interface :  Fast vector & matrix operations
   LAPACKE interface :  Fast linear algebra routines
   SCALAPACK package :  Parallel linear algebra routines
   Shared memory     :  Shared parallel matrices
   BLAS/LAPACK       :  OpenBLAS 0.3.15  USE64BITINT DYNAMIC_ARCH NO_AFFINITY Sandybridge SINGLE_THREADED
        Core in use  :  Sandybridge
   Copyright (c) 2011-2014, The OpenBLAS Project


================================================================================

----- Orbital basis set information -----
Your calculation utilizes the basis: cc-pVDZ 
       H, B-Ne : Obtained from the ccRepo (grant-hill.group.shef.ac.uk/ccrepo) Feb. 2017
                 T. H. Dunning, Jr., J. Chem. Phys. 90, 1007 (1989)
            He : Obtained from the ccRepo (grant-hill.group.shef.ac.uk/ccrepo) Feb. 2017
                 D. E. Woon, T. H. Dunning, Jr., J. Chem. Phys. 100, 2975 (1994)
  Li-Be, Na-Mg : Obtained from the ccRepo (grant-hill.group.shef.ac.uk/ccrepo) Feb. 2017
                 B. P. Prascher, D. E. Woon, K. A. Peterson, T. H. Dunning, Jr., A. K. Wilson, Theor. Chem. Acc. 128, 69 (2011)
         Al-Ar : Obtained from the ccRepo (grant-hill.group.shef.ac.uk/ccrepo) Feb. 2017
                 D. E. Woon, T. H. Dunning, Jr., J. Chem. Phys. 98, 1358 (1993)
            Ca : Obtained from the Peterson Research Group Website (tyr0.chem.wsu.edu/~kipeters) Feb. 2017
                 J. Koput, K. A. Peterson, J. Phys. Chem. 106, 9595 (2002)
         Sc-Zn : Obtained from the ccRepo (grant-hill.group.shef.ac.uk/ccrepo) Feb. 2017
                 N. B. Balabanov, K. A. Peterson, J. Chem. Phys. 123, 064107 (2005)
                 N. B. Balabanov, K. A. Peterson, J. Chem. Phys. 125, 074110 (2006)
         Ga-Kr : Obtained from the ccRepo (grant-hill.group.shef.ac.uk/ccrepo) Feb. 2017
                 A. K. Wilson, D. E. Woon, K. A. Peterson, T. H. Dunning, Jr., J. Chem. Phys. 110, 7667 (1999)

================================================================================
                                        WARNINGS
                       Please study these warnings very carefully!
================================================================================


WARNING: No MP2 level density has been requested!
         To caclulate MP2 level properties use
         %mp2 Density relaxed end
         or
         %mp2 Density unrelaxed end

WARNING: Post HF methods need fully converged wavefunctions
  ===> : Setting SCFConvForced true
         You can overwrite this default with %scf ConvForced false 


INFO   : the flag for use of the SHARK integral package has been found!

================================================================================
                                       INPUT FILE
================================================================================
NAME = /scratch/allen/tmpyp4_amber_gaff2/2.Mdgx/conf11/conf11/Conf224.orca
|  1> ! PAL2
|  2> ! mp2 cc-pvdz TightSCF  NoKeepInts
|  3> 
|  4> %scf
|  5>   MaxCore 2000
|  6> end
|  7> %mp2
|  8>   MaxCore 2000
|  9> end
| 10> * xyz 0 1
| 11>    C       -4.70900         5.33400         0.85300
| 12>    C        1.47400         4.04100         0.05700
| 13>    C       -2.80200         4.09300         0.04900
| 14>    C       -2.47900         5.20400        -0.74600
| 15>    C       -3.27200         6.33300        -0.71400
| 16>    C       -5.17800         7.62600         0.11400
| 17>    C        0.13200         4.30700         0.06100
| 18>    C       -0.56900         3.05600         0.04700
| 19>    C        1.64900         2.61800         0.02300
| 20>    C       -3.94400         4.18400         0.85900
| 21>    N       -4.37100         6.38700         0.07400
| 22>    N        0.38800         2.06700         0.02500
| 23>    N       -2.01000         0.39500        -0.07500
| 24>    N       -0.38800        -2.07400        -0.02700
| 25>    N        2.01000        -0.40100         0.06500
| 26>    C       -1.96000         2.86100         0.02400
| 27>    C       -2.62300         1.61500        -0.01800
| 28>    C       -5.57300        -4.32900         1.06600
| 29>    C       -4.07300         1.47100         0.05600
| 30>    C       -4.10600        -2.75600        -0.02600
| 31>    C       -4.99500        -2.75700        -1.11100
| 32>    C       -6.13200        -3.54200        -1.07600
| 33>    C       -7.65100        -5.11300         0.04000
| 34>    C       -4.32400         0.14100         0.03700
| 35>    C       -3.02500        -0.52000        -0.04800
| 36>    C       -4.42200        -3.56600         1.07500
| 37>    N       -6.40700        -4.31300         0.00100
| 38>    C       -2.86700        -1.92200        -0.04000
| 39>    C       -1.65000        -2.62400        -0.02700
| 40>    C        3.56800        -6.14200        -1.04000
| 41>    C       -1.47600        -4.04900        -0.03400
| 42>    C        2.80300        -4.09900        -0.00800
| 43>    C        3.65700        -4.38400         1.06900
| 44>    C        4.42700        -5.53000         1.05900
| 45>    C        5.24500        -7.58800         0.01400
| 46>    C       -0.13400        -4.31500        -0.02200
| 47>    C        0.56800        -3.06400        -0.02700
| 48>    C        2.77500        -5.01200        -1.07400
| 49>    N        4.37600        -6.39100         0.01700
| 50>    C        1.95900        -2.86900        -0.00900
| 51>    C        2.62100        -1.62200         0.00900
| 52>    C        5.54300         4.33900        -1.13000
| 53>    C        4.07000        -1.47900        -0.09400
| 54>    C        4.10400         2.75100        -0.02100
| 55>    C        5.02700         2.72900         1.03600
| 56>    C        6.16600         3.50900         0.97800
| 57>    C        7.61900         5.15300        -0.11500
| 58>    C        4.32100        -0.14800        -0.09200
| 59>    C        3.02500         0.51400         0.01500
| 60>    C        4.38700         3.58200        -1.11500
| 61>    C        2.86600         1.91600         0.01300
| 62>    N        6.41300         4.29600        -0.09500
| 63>    H       -5.60500         5.44400         1.45200
| 64>    H        2.27400         4.76600         0.08100
| 65>    H       -1.60400         5.19800        -1.38500
| 66>    H       -3.05800         7.21600        -1.30200
| 67>    H       -4.74600         8.30900         0.84900
| 68>    H       -5.16700         8.08400        -0.87500
| 69>    H       -6.19900         7.37000         0.39600
| 70>    H       -0.33200         5.28200         0.06900
| 71>    H       -4.25400         3.35500         1.48500
| 72>    H        0.18200         1.07200         0.00500
| 73>    H       -0.18300        -1.08000        -0.02100
| 74>    H       -5.86400        -4.96200         1.89500
| 75>    H       -4.79400         2.27200         0.13900
| 76>    H       -4.80000        -2.16000        -1.99400
| 77>    H       -6.84100        -3.58200        -1.89300
| 78>    H       -8.42800        -4.53600         0.54600
| 79>    H       -7.95600        -5.33700        -0.98100
| 80>    H       -7.45600        -6.03700         0.58400
| 81>    H       -5.28700        -0.34400         0.10000
| 82>    H       -3.78000        -3.60100         1.94700
| 83>    H        3.58700        -6.86800        -1.84300
| 84>    H       -2.27600        -4.77400        -0.05000
| 85>    H        3.71400        -3.72400         1.92600
| 86>    H        5.09200        -5.79500         1.87100
| 87>    H        6.20500        -7.32900        -0.43900
| 88>    H        5.39300        -7.91700         1.04200
| 89>    H        4.75900        -8.37300        -0.56400
| 90>    H        0.32900        -5.29000        -0.00800
| 91>    H        2.14600        -4.84200        -1.94000
| 92>    H        5.80800         4.98600        -1.95600
| 93>    H        4.78800        -2.28100        -0.18500
| 94>    H        4.86000         2.11400         1.91200
| 95>    H        6.90100         3.53100         1.77200
| 96>    H        7.38300         6.10900         0.35600
| 97>    H        8.41400         4.65200         0.43500
| 98>    H        7.92100         5.31000        -1.15000
| 99>    H        5.28300         0.33600        -0.17900
|100>    H        3.72000         3.63200        -1.96700
|101> *
|102> 
|103>                          ****END OF INPUT****
================================================================================

                       ****************************
                       * Single Point Calculation *
                       ****************************

---------------------------------
CARTESIAN COORDINATES (ANGSTROEM)
---------------------------------
  C     -4.709000    5.334000    0.853000
  C      1.474000    4.041000    0.057000
  C     -2.802000    4.093000    0.049000
  C     -2.479000    5.204000   -0.746000
  C     -3.272000    6.333000   -0.714000
  C     -5.178000    7.626000    0.114000
  C      0.132000    4.307000    0.061000
  C     -0.569000    3.056000    0.047000
  C      1.649000    2.618000    0.023000
  C     -3.944000    4.184000    0.859000
  N     -4.371000    6.387000    0.074000
  N      0.388000    2.067000    0.025000
  N     -2.010000    0.395000   -0.075000
  N     -0.388000   -2.074000   -0.027000
  N      2.010000   -0.401000    0.065000
  C     -1.960000    2.861000    0.024000
  C     -2.623000    1.615000   -0.018000
  C     -5.573000   -4.329000    1.066000
  C     -4.073000    1.471000    0.056000
  C     -4.106000   -2.756000   -0.026000
  C     -4.995000   -2.757000   -1.111000
  C     -6.132000   -3.542000   -1.076000
  C     -7.651000   -5.113000    0.040000
  C     -4.324000    0.141000    0.037000
  C     -3.025000   -0.520000   -0.048000
  C     -4.422000   -3.566000    1.075000
  N     -6.407000   -4.313000    0.001000
  C     -2.867000   -1.922000   -0.040000
  C     -1.650000   -2.624000   -0.027000
  C      3.568000   -6.142000   -1.040000
  C     -1.476000   -4.049000   -0.034000
  C      2.803000   -4.099000   -0.008000
  C      3.657000   -4.384000    1.069000
  C      4.427000   -5.530000    1.059000
  C      5.245000   -7.588000    0.014000
  C     -0.134000   -4.315000   -0.022000
  C      0.568000   -3.064000   -0.027000
  C      2.775000   -5.012000   -1.074000
  N      4.376000   -6.391000    0.017000
  C      1.959000   -2.869000   -0.009000
  C      2.621000   -1.622000    0.009000
  C      5.543000    4.339000   -1.130000
  C      4.070000   -1.479000   -0.094000
  C      4.104000    2.751000   -0.021000
  C      5.027000    2.729000    1.036000
  C      6.166000    3.509000    0.978000
  C      7.619000    5.153000   -0.115000
  C      4.321000   -0.148000   -0.092000
  C      3.025000    0.514000    0.015000
  C      4.387000    3.582000   -1.115000
  C      2.866000    1.916000    0.013000
  N      6.413000    4.296000   -0.095000
  H     -5.605000    5.444000    1.452000
  H      2.274000    4.766000    0.081000
  H     -1.604000    5.198000   -1.385000
  H     -3.058000    7.216000   -1.302000
  H     -4.746000    8.309000    0.849000
  H     -5.167000    8.084000   -0.875000
  H     -6.199000    7.370000    0.396000
  H     -0.332000    5.282000    0.069000
  H     -4.254000    3.355000    1.485000
  H      0.182000    1.072000    0.005000
  H     -0.183000   -1.080000   -0.021000
  H     -5.864000   -4.962000    1.895000
  H     -4.794000    2.272000    0.139000
  H     -4.800000   -2.160000   -1.994000
  H     -6.841000   -3.582000   -1.893000
  H     -8.428000   -4.536000    0.546000
  H     -7.956000   -5.337000   -0.981000
  H     -7.456000   -6.037000    0.584000
  H     -5.287000   -0.344000    0.100000
  H     -3.780000   -3.601000    1.947000
  H      3.587000   -6.868000   -1.843000
  H     -2.276000   -4.774000   -0.050000
  H      3.714000   -3.724000    1.926000
  H      5.092000   -5.795000    1.871000
  H      6.205000   -7.329000   -0.439000
  H      5.393000   -7.917000    1.042000
  H      4.759000   -8.373000   -0.564000
  H      0.329000   -5.290000   -0.008000
  H      2.146000   -4.842000   -1.940000
  H      5.808000    4.986000   -1.956000
  H      4.788000   -2.281000   -0.185000
  H      4.860000    2.114000    1.912000
  H      6.901000    3.531000    1.772000
  H      7.383000    6.109000    0.356000
  H      8.414000    4.652000    0.435000
  H      7.921000    5.310000   -1.150000
  H      5.283000    0.336000   -0.179000
  H      3.720000    3.632000   -1.967000

----------------------------
CARTESIAN COORDINATES (A.U.)
----------------------------
  NO LB      ZA    FRAG     MASS         X           Y           Z
   0 C     6.0000    0    12.011   -8.898720   10.079799    1.611936
   1 C     6.0000    0    12.011    2.785456    7.636383    0.107714
   2 C     6.0000    0    12.011   -5.295013    7.734649    0.092597
   3 C     6.0000    0    12.011   -4.684631    9.834135   -1.409736
   4 C     6.0000    0    12.011   -6.183184   11.967636   -1.349264
   5 C     6.0000    0    12.011   -9.785002   14.411051    0.215429
   6 C     6.0000    0    12.011    0.249444    8.139050    0.115273
   7 C     6.0000    0    12.011   -1.075254    5.775003    0.088817
   8 C     6.0000    0    12.011    3.116158    4.947303    0.043464
   9 C     6.0000    0    12.011   -7.453080    7.906614    1.623275
  10 N     7.0000    0    14.007   -8.259993   12.069681    0.139840
  11 N     7.0000    0    14.007    0.733214    3.906064    0.047243
  12 N     7.0000    0    14.007   -3.798350    0.746442   -0.141729
  13 N     7.0000    0    14.007   -0.733214   -3.919292   -0.051023
  14 N     7.0000    0    14.007    3.798350   -0.757780    0.122832
  15 C     6.0000    0    12.011   -3.703863    5.406506    0.045353
  16 C     6.0000    0    12.011   -4.956752    3.051908   -0.034015
  17 C     6.0000    0    12.011  -10.531444   -8.180624    2.014448
  18 C     6.0000    0    12.011   -7.696855    2.779787    0.105825
  19 C     6.0000    0    12.011   -7.759216   -5.208085   -0.049133
  20 C     6.0000    0    12.011   -9.439182   -5.209975   -2.099486
  21 C     6.0000    0    12.011  -11.587801   -6.693410   -2.033345
  22 C     6.0000    0    12.011  -14.458295   -9.662170    0.075589
  23 C     6.0000    0    12.011   -8.171176    0.266451    0.069920
  24 C     6.0000    0    12.011   -5.716422   -0.982658   -0.090707
  25 C     6.0000    0    12.011   -8.356369   -6.738763    2.031456
  26 N     7.0000    0    14.007  -12.107475   -8.150389    0.001890
  27 C     6.0000    0    12.011   -5.417845   -3.632054   -0.075589
  28 C     6.0000    0    12.011   -3.118048   -4.958641   -0.051023
  29 C     6.0000    0    12.011    6.742543  -11.606698   -1.965315
  30 C     6.0000    0    12.011   -2.789236   -7.651501   -0.064251
  31 C     6.0000    0    12.011    5.296902   -7.745987   -0.015118
  32 C     6.0000    0    12.011    6.910728   -8.284559    2.020117
  33 C     6.0000    0    12.011    8.365818  -10.450186    2.001220
  34 C     6.0000    0    12.011    9.911614  -14.339242    0.026456
  35 C     6.0000    0    12.011   -0.253223   -8.154168   -0.041574
  36 C     6.0000    0    12.011    1.073364   -5.790121   -0.051023
  37 C     6.0000    0    12.011    5.243990   -9.471307   -2.029566
  38 N     7.0000    0    14.007    8.269442  -12.077240    0.032125
  39 C     6.0000    0    12.011    3.701973   -5.421624   -0.017008
  40 C     6.0000    0    12.011    4.952972   -3.065136    0.017008
  41 C     6.0000    0    12.011   10.474752    8.199522   -2.135391
  42 C     6.0000    0    12.011    7.691185   -2.794905   -0.177634
  43 C     6.0000    0    12.011    7.755436    5.198637   -0.039684
  44 C     6.0000    0    12.011    9.499653    5.157063    1.957756
  45 C     6.0000    0    12.011   11.652051    6.631049    1.848152
  46 C     6.0000    0    12.011   14.397823    9.737759   -0.217319
  47 C     6.0000    0    12.011    8.165507   -0.279679   -0.173855
  48 C     6.0000    0    12.011    5.716422    0.971319    0.028346
  49 C     6.0000    0    12.011    8.290229    6.768999   -2.107045
  50 C     6.0000    0    12.011    5.415955    3.620715    0.024566
  51 N     7.0000    0    14.007   12.118814    8.118263   -0.179524
  52 H     1.0000    0     1.008  -10.591915   10.287669    2.743882
  53 H     1.0000    0     1.008    4.297237    9.006435    0.153068
  54 H     1.0000    0     1.008   -3.031121    9.822796   -2.617271
  55 H     1.0000    0     1.008   -5.778783   13.636264   -2.460423
  56 H     1.0000    0     1.008   -8.968640   15.701734    1.604377
  57 H     1.0000    0     1.008   -9.764215   15.276546   -1.653510
  58 H     1.0000    0     1.008  -11.714412   13.927282    0.748332
  59 H     1.0000    0     1.008   -0.627389    9.981533    0.130391
  60 H     1.0000    0     1.008   -8.038895    6.340031    2.806243
  61 H     1.0000    0     1.008    0.343930    2.025786    0.009449
  62 H     1.0000    0     1.008   -0.345820   -2.040904   -0.039684
  63 H     1.0000    0     1.008  -11.081354   -9.376821    3.581031
  64 H     1.0000    0     1.008   -9.059347    4.293458    0.262672
  65 H     1.0000    0     1.008   -9.070685   -4.081808   -3.768114
  66 H     1.0000    0     1.008  -12.927616   -6.768999   -3.577252
  67 H     1.0000    0     1.008  -15.926612   -8.571798    1.031790
  68 H     1.0000    0     1.008  -15.034661  -10.085468   -1.853821
  69 H     1.0000    0     1.008  -14.089798  -11.408277    1.103600
  70 H     1.0000    0     1.008   -9.990982   -0.650066    0.188973
  71 H     1.0000    0     1.008   -7.143165   -6.804904    3.679297
  72 H     1.0000    0     1.008    6.778448  -12.978639   -3.482765
  73 H     1.0000    0     1.008   -4.301017   -9.021553   -0.094486
  74 H     1.0000    0     1.008    7.018443   -7.037340    3.639613
  75 H     1.0000    0     1.008    9.622485  -10.950963    3.535678
  76 H     1.0000    0     1.008   11.725751  -13.849803   -0.829590
  77 H     1.0000    0     1.008   10.191293  -14.960962    1.969095
  78 H     1.0000    0     1.008    8.993207  -15.822677   -1.065806
  79 H     1.0000    0     1.008    0.621720   -9.996651   -0.015118
  80 H     1.0000    0     1.008    4.055352   -9.150054   -3.666069
  81 H     1.0000    0     1.008   10.975529    9.422175   -3.696304
  82 H     1.0000    0     1.008    9.048009   -4.310465   -0.349599
  83 H     1.0000    0     1.008    9.184069    3.994881    3.613156
  84 H     1.0000    0     1.008   13.041000    6.672623    3.348595
  85 H     1.0000    0     1.008   13.951848   11.544337    0.672743
  86 H     1.0000    0     1.008   15.900156    8.791006    0.822031
  87 H     1.0000    0     1.008   14.968521   10.034446   -2.173185
  88 H     1.0000    0     1.008    9.983423    0.634948   -0.338261
  89 H     1.0000    0     1.008    7.029781    6.863485   -3.717091

--------------------------------
INTERNAL COORDINATES (ANGSTROEM)
--------------------------------
 C      0   0   0     0.000000000000     0.00000000     0.00000000
 C      1   0   0     6.366706683993     0.00000000     0.00000000
 C      1   2   0     2.413119557751    23.99808638     0.00000000
 C      3   1   2     1.403807322961    87.90884455   294.23927648
 C      4   3   1     1.380041303730   120.13956592     0.11851913
 C      5   4   3     2.447502604697   152.56379575     1.65955781
 C      2   1   3     1.368114030335     7.04019808    52.23405054
 C      7   2   4     1.434084376876   108.05010202   113.90443251
 C      2   1   3     1.434123425651   108.84332399   326.11949790
 C      1   2   7     1.381217216806    45.05516753    92.67985941
 N      1   2   7     1.352735746552    80.99244534   299.68683801
 N      9   2   1     1.376127174356   106.58526707     6.63427960
 N     12   9   2     2.925062050624   168.53581413   171.12065651
 N     13  12   9     2.954513327098    91.55032014    11.12112580
 N     14  13  12     2.925371258490    88.43092389   359.84326247
 C      8   7   2     1.404790019896   127.24786865   181.11170171
 C     13  12   9     1.366535034311    81.72106996   188.00453233
 C     14  13  12     5.758810554272    80.56209567   166.76250791
 C     17  13  12     1.459010623676   111.08861209   183.82872609
 C     18  14  13     2.412235892279    27.27532823    36.33507194
 C     20  18  14     1.402692767501    87.95206320   148.94598259
 C     21  20  18     1.382106725257   120.14573887   359.70382047
 C     18  14  13     2.446510985056   144.15733107    82.80075377
 C     19  17  13     1.353610726908   106.29293361   359.75308708
 C     13  12   9     1.366813447402   172.21332906    33.46711076
 C     18  14  13     1.380960173213    15.08449437   309.23336894
 N     22  21  20     1.352773077792   120.73759875     0.27865223
 C     25  13  17     1.410897586645   125.60330303   182.37774668
 C     14  13  12     1.376642291955    80.24689249   177.85461986
 C     14  13  12     5.764089607215   164.51507311   312.20821879
 C     29  14  13     1.435600919476   106.58649366   178.76395472
 C     30  14  13     2.413316804732    27.10625047    82.12560436
 C     32  30  14     1.403734305344    87.90059683   149.76154742
 C     33  32  30     1.380694028378   120.14881443   359.74174632
 C     34  33  32     2.448777858443   152.49203239     2.45173620
 C     31  29  14     1.368160809262   108.16950133     0.70383075
 C     14  13  12     1.376239804685   169.26375223   353.09862627
 C     30  14  13     1.380907310430    14.68948582   353.70041132
 N     34  33  32     1.352658863128   120.85575621     0.19603406
 C     37  14  29     1.404717053360   126.01551127   180.90772073
 C     15  14  13     1.366491126938    81.61824056   183.09049352
 C      2   1   3     4.249062720177   161.92936380   115.70339035
 C     41  15  14     1.459677704153   111.05201287   175.08990246
 C     42   2   1     2.412953791518    41.78584867   185.03064781
 C     44  42   2     1.403446472082    87.95153797   233.97558675
 C     45  44  42     1.381696421071   120.11137308     0.19721020
 C     42   2   1     2.450019795838   135.97209175    95.34549692
 C     43  41  15     1.354461516618   106.26758155     0.30894352
 C     15  14  13     1.367461151185   171.87382904   332.35056460
 C     42   2   1     1.381886391857    32.59078432   233.88592701
 C      9   2   1     1.404988612053   126.98745415   187.63861713
 N     42   2   1     1.352765315936   113.57249190   123.08208611
 H      1   2   7     1.083382204026   153.24282604   166.16444116
 H      2   1   3     1.079907866440   125.47209109   153.87307113
 H      4   3   1     1.083504499298   121.02526516   179.50149533
 H      5   4   3     1.082233338980   122.76957850   179.44505429
 H      6   5   4     1.092400109850   104.47516551   100.07046465
 H      6   5   4     1.089956879881    84.67304674   209.49336319
 H      6   5   4     1.089725194717   133.87431621   322.33646047
 H      7   2  54     1.079807853278   126.66122480     1.30600390
 H     10   1   2     1.084074259449   118.73914597   149.41613473
 H     12   9   2     1.016297692608   125.29023241   180.00180175
 H     14  13  12     1.014936943854    44.97226959   359.42596618
 H     18  14  13     1.082871645210   128.03556573   234.20482432
 H     19  17  13     1.080893611786   126.41830519   178.11313280
 H     21  20  18     1.083569563987   121.05669627   180.67006309
 H     22  21  20     1.082483256222   122.73097286   180.59748951
 H     23  18  14     1.092105306278   103.92715769   234.93429879
 H     23  18  14     1.088871893291   134.19244188    12.25587044
 H     23  18  14     1.089833473518    84.85857450   125.45241208
 H     24  19  17     1.080075460327   127.28078426   178.44613241
 H     26  18  14     1.083408048706   118.76995697   244.94906660
 H     30  14  13     1.082703098730   127.99711412   279.66882698
 H     31  29  14     1.079759695488   125.22293469   180.92530585
 H     33  32  30     1.083188810873   121.01964473   180.74284758
 H     34  33  32     1.082494341787   122.70821597   180.59516895
 H     35  34  33     1.092652735319   105.73575241    97.19771933
 H     35  34  33     1.089462711615    84.05943581   206.43036958
 H     35  34  33     1.089268102902   133.08365142   318.50306270
 H     36  31  29     1.079439669458   126.61599965   178.98859863
 H     38  30  73     1.083742127999   118.77264435   359.90091293
 H     42   2   1     1.082178358682   119.31790784   339.71361656
 H     43  41  15     1.080281907652   126.36969097   182.06329380
 H     45  44  42     1.083277434455   121.10105945   179.58025624
 H     46  45  44     1.082194529648   122.72144639   179.46906377
 H     47  42   2     1.091546151109   106.65128841   315.16475048
 H     47  42   2     1.088818625851   132.46019523    94.52397119
 H     47  42   2     1.089531091801    83.63838232   206.04504406
 H     48  43  41     1.080402239909   127.23657387   181.62955349
 H     50  42   2     1.083186502870   118.77001737    94.71359229

---------------------------
INTERNAL COORDINATES (A.U.)
---------------------------
 C      0   0   0     0.000000000000     0.00000000     0.00000000
 C      1   0   0    12.031332007753     0.00000000     0.00000000
 C      1   2   0     4.560135092558    23.99808638     0.00000000
 C      3   1   2     2.652811385190    87.90884455   294.23927648
 C      4   3   1     2.607900117549   120.13956592     0.11851913
 C      5   4   3     4.625109634937   152.56379575     1.65955781
 C      2   1   3     2.585360837309     7.04019808    52.23405054
 C      7   2   4     2.710026725231   108.05010202   113.90443251
 C      2   1   3     2.710100516721   108.84332399   326.11949790
 C      1   2   7     2.610122271219    45.05516753    92.67985941
 N      1   2   7     2.556300092549    80.99244534   299.68683801
 N      9   2   1     2.600503484979   106.58526707     6.63427960
 N     12   9   2     5.527566200405   168.53581413   171.12065651
 N     13  12   9     5.583221047236    91.55032014    11.12112580
 N     14  13  12     5.528150518591    88.43092389   359.84326247
 C      8   7   2     2.654668413270   127.24786865   181.11170171
 C     13  12   9     2.582376967257    81.72106996   188.00453233
 C     14  13  12    10.882574804710    80.56209567   166.76250791
 C     17  13  12     2.757130505230   111.08861209   183.82872609
 C     18  14  13     4.558465206823    27.27532823    36.33507194
 C     20  18  14     2.650705180609    87.95206320   148.94598259
 C     21  20  18     2.611803198586   120.14573887   359.70382047
 C     18  14  13     4.623235745386   144.15733107    82.80075377
 C     19  17  13     2.557953565794   106.29293361   359.75308708
 C     13  12   9     2.582903091751   172.21332906    33.46711076
 C     18  14  13     2.609636529225    15.08449437   309.23336894
 N     22  21  20     2.556370638369   120.73759875     0.27865223
 C     25  13  17     2.666210041769   125.60330303   182.37774668
 C     14  13  12     2.601476916169    80.24689249   177.85461986
 C     14  13  12    10.892550769017   164.51507311   312.20821879
 C     29  14  13     2.712892575415   106.58649366   178.76395472
 C     30  14  13     4.560507835333    27.10625047    82.12560436
 C     32  30  14     2.652673401891    87.90059683   149.76154742
 C     33  32  30     2.609133588376   120.14881443   359.74174632
 C     34  33  32     4.627519515267   152.49203239     2.45173620
 C     31  29  14     2.585449236669   108.16950133     0.70383075
 C     14  13  12     2.600716325456   169.26375223   353.09862627
 C     30  14  13     2.609536633043    14.68948582   353.70041132
 N     34  33  32     2.556154803934   120.85575621     0.19603406
 C     37  14  29     2.654530526499   126.01551127   180.90772073
 C     15  14  13     2.582293994346    81.61824056   183.09049352
 C      2   1   3     8.029564866989   161.92936380   115.70339035
 C     41  15  14     2.758391104639   111.05201287   175.08990246
 C     42   2   1     4.559821839776    41.78584867   185.03064781
 C     44  42   2     2.652129475853    87.95153797   233.97558675
 C     45  44  42     2.611027836043   120.11137308     0.19721020
 C     42   2   1     4.629866436820   135.97209175    95.34549692
 C     43  41  15     2.559561325344   106.26758155     0.30894352
 C     15  14  13     2.584127074516   171.87382904   332.35056460
 C     42   2   1     2.611386828803    32.59078432   233.88592701
 C      9   2   1     2.655043698059   126.98745415   187.63861713
 N     42   2   1     2.556355970587   113.57249190   123.08208611
 H      1   2   7     2.047295663973   153.24282604   166.16444116
 H      2   1   3     2.040730117440   125.47209109   153.87307113
 H      4   3   1     2.047526768546   121.02526516   179.50149533
 H      5   4   3     2.045124623672   122.76957850   179.44505429
 H      6   5   4     2.064337036282   104.47516551   100.07046465
 H      6   5   4     2.059720000758    84.67304674   209.49336319
 H      6   5   4     2.059282179248   133.87431621   322.33646047
 H      7   2  54     2.040541119952   126.66122480     1.30600390
 H     10   1   2     2.048603459192   118.73914597   149.41613473
 H     12   9   2     1.920524309565   125.29023241   180.00180175
 H     14  13  12     1.917952867083    44.97226959   359.42596618
 H     18  14  13     2.046330847636   128.03556573   234.20482432
 H     19  17  13     2.042592906181   126.41830519   178.11313280
 H     21  20  18     2.047649722989   121.05669627   180.67006309
 H     22  21  20     2.045596898814   122.73097286   180.59748951
 H     23  18  14     2.063779938267   103.92715769   234.93429879
 H     23  18  14     2.057669673245   134.19244188    12.25587044
 H     23  18  14     2.059486796529    84.85857450   125.45241208
 H     24  19  17     2.041046823986   127.28078426   178.44613241
 H     26  18  14     2.047344503340   118.76995697   244.94906660
 H     30  14  13     2.046012340948   127.99711412   279.66882698
 H     31  29  14     2.040450114918   125.22293469   180.92530585
 H     33  32  30     2.046930203877   121.01964473   180.74284758
 H     34  33  32     2.045617847496   122.70821597   180.59516895
 H     35  34  33     2.064814429233   105.73575241    97.19771933
 H     35  34  33     2.058786158072    84.05943581   206.43036958
 H     35  34  33     2.058418400901   133.08365142   318.50306270
 H     36  31  29     2.039845353366   126.61599965   178.98859863
 H     38  30  73     2.047975821711   118.77264435   359.90091293
 H     42   2   1     2.045020725966   119.31790784   339.71361656
 H     43  41  15     2.041436952892   126.36969097   182.06329380
 H     45  44  42     2.047097678177   121.10105945   179.58025624
 H     46  45  44     2.045051284662   122.72144639   179.46906377
 H     47  42   2     2.062723288131   106.65128841   315.16475048
 H     47  42   2     2.057569012371   132.46019523    94.52397119
 H     47  42   2     2.058915377895    83.63838232   206.04504406
 H     48  43  41     2.041664347903   127.23657387   181.62955349
 H     50  42   2     2.046925842384   118.77001737    94.71359229

---------------------
BASIS SET INFORMATION
---------------------
There are 3 groups of distinct atoms

 Group   1 Type C   : 17s4p1d contracted to 3s2p1d pattern {881/31/1}
 Group   2 Type N   : 17s4p1d contracted to 3s2p1d pattern {881/31/1}
 Group   3 Type H   : 4s1p contracted to 2s1p pattern {31/1}

Atom   0C    basis set group =>   1
Atom   1N    basis set group =>   2
Atom   2C    basis set group =>   1
Atom   3N    basis set group =>   2
Atom   4C    basis set group =>   1
Atom   5N    basis set group =>   2
Atom   6C    basis set group =>   1
Atom   7N    basis set group =>   2
Atom   8C    basis set group =>   1
Atom   9N    basis set group =>   2
Atom  10C    basis set group =>   1
Atom  11N    basis set group =>   2
Atom  12C    basis set group =>   1
Atom  13N    basis set group =>   2
Atom  14C    basis set group =>   1
Atom  15N    basis set group =>   2
Atom  16C    basis set group =>   1
Atom  17C    basis set group =>   1
Atom  18C    basis set group =>   1
Atom  19C    basis set group =>   1
Atom  20C    basis set group =>   1
Atom  21C    basis set group =>   1
Atom  22C    basis set group =>   1
Atom  23C    basis set group =>   1
Atom  24C    basis set group =>   1
Atom  25C    basis set group =>   1
Atom  26C    basis set group =>   1
Atom  27C    basis set group =>   1
Atom  28C    basis set group =>   1
Atom  29C    basis set group =>   1
Atom  30C    basis set group =>   1
Atom  31C    basis set group =>   1
Atom  32C    basis set group =>   1
Atom  33C    basis set group =>   1
Atom  34C    basis set group =>   1
Atom  35C    basis set group =>   1
Atom  36C    basis set group =>   1
Atom  37C    basis set group =>   1
Atom  38C    basis set group =>   1
Atom  39C    basis set group =>   1
Atom  40C    basis set group =>   1
Atom  41C    basis set group =>   1
Atom  42C    basis set group =>   1
Atom  43C    basis set group =>   1
Atom  44C    basis set group =>   1
Atom  45C    basis set group =>   1
Atom  46C    basis set group =>   1
Atom  47C    basis set group =>   1
Atom  48C    basis set group =>   1
Atom  49C    basis set group =>   1
Atom  50C    basis set group =>   1
Atom  51C    basis set group =>   1
Atom  52H    basis set group =>   3
Atom  53H    basis set group =>   3
Atom  54H    basis set group =>   3
Atom  55H    basis set group =>   3
Atom  56H    basis set group =>   3
Atom  57H    basis set group =>   3
Atom  58H    basis set group =>   3
Atom  59H    basis set group =>   3
Atom  60H    basis set group =>   3
Atom  61H    basis set group =>   3
Atom  62H    basis set group =>   3
Atom  63H    basis set group =>   3
Atom  64H    basis set group =>   3
Atom  65H    basis set group =>   3
Atom  66H    basis set group =>   3
Atom  67H    basis set group =>   3
Atom  68H    basis set group =>   3
Atom  69H    basis set group =>   3
Atom  70H    basis set group =>   3
Atom  71H    basis set group =>   3
Atom  72H    basis set group =>   3
Atom  73H    basis set group =>   3
Atom  74H    basis set group =>   3
Atom  75H    basis set group =>   3
Atom  76H    basis set group =>   3
Atom  77H    basis set group =>   3
Atom  78H    basis set group =>   3
Atom  79H    basis set group =>   3
Atom  80H    basis set group =>   3
Atom  81H    basis set group =>   3
Atom  82H    basis set group =>   3
Atom  83H    basis set group =>   3
Atom  84H    basis set group =>   3
Atom  85H    basis set group =>   3
Atom  86H    basis set group =>   3
Atom  87H    basis set group =>   3
Atom  88H    basis set group =>   3
Atom  89H    basis set group =>   3


           ************************************************************
           *        Program running with 16 parallel MPI-processes    *
           *              working on a common directory               *
           ************************************************************
------------------------------------------------------------------------------
                           ORCA GTO INTEGRAL CALCULATION
------------------------------------------------------------------------------
------------------------------------------------------------------------------
                   ___                                                        
                  /   \      - P O W E R E D   B Y -                         
                 /     \                                                     
                 |  |  |   _    _      __       _____    __    __             
                 |  |  |  | |  | |    /  \     |  _  \  |  |  /  |          
                  \  \/   | |  | |   /    \    | | | |  |  | /  /          
                 / \  \   | |__| |  /  /\  \   | |_| |  |  |/  /          
                |  |  |   |  __  | /  /__\  \  |    /   |      \           
                |  |  |   | |  | | |   __   |  |    \   |  |\   \          
                \     /   | |  | | |  |  |  |  | |\  \  |  | \   \       
                 \___/    |_|  |_| |__|  |__|  |_| \__\ |__|  \__/        
                                                                              
                      - O R C A' S   B I G   F R I E N D -                    
                                      &                                       
                       - I N T E G R A L  F E E D E R -                       
                                                                              
 v1 FN, 2020, v2 2021                                                         
------------------------------------------------------------------------------


Reading SHARK input file /scratch/allen/tmpyp4_amber_gaff2/conf1/conf1/Conf224.orca.SHARKINP.tmp ... ok
----------------------
SHARK INTEGRAL PACKAGE
----------------------

Number of atoms                             ...     90
Number of basis functions                   ...   1230
Number of shells                            ...    738
Maximum angular momentum                    ...      2
Integral batch strategy                     ... SHARK/LIBINT Hybrid
RI-J (if used) integral strategy            ... SPLIT-RIJ (Revised 2003 algorithm where possible)
Printlevel                                  ...      1
Contraction scheme used                     ... PARTIAL GENERAL contraction
Coulomb Range Separation                    ... NOT USED
Exchange Range Separation                   ... NOT USED
Finite Nucleus Model                        ... NOT USED
Auxiliary Coulomb fitting basis             ... NOT available
Auxiliary J/K fitting basis                 ... NOT available
Auxiliary Correlation fitting basis         ... NOT available
Auxiliary 'external' fitting basis          ... NOT available
Integral threshold                          ...     2.500000e-11
Primitive cut-off                           ...     2.500000e-12
Primitive pair pre-selection threshold      ...     2.500000e-12

Calculating pre-screening integrals         ... done (  0.1 sec) Dimension = 738
Calculating pre-screening integrals (ORCA)  ... done (  0.3 sec) Dimension = 426
Organizing shell pair data                  ... done (  0.7 sec)
Shell pair information
Total number of shell pairs                 ...    272691
Shell pairs after pre-screening             ...     71644
Total number of primitive shell pairs       ...    422091
Primitive shell pairs kept                  ...     92436
          la=0 lb=0:  29420 shell pairs
          la=1 lb=0:  25985 shell pairs
          la=1 lb=1:   4709 shell pairs
          la=2 lb=0:   7878 shell pairs
          la=2 lb=1:   3122 shell pairs
          la=2 lb=2:    530 shell pairs

Calculating one electron integrals          ... done (  0.2 sec)
Calculating Nuclear repulsion               ... done (  0.0 sec) ENN=   6228.638079929696 Eh

SHARK setup successfully completed in   2.5 seconds

Maximum memory used throughout the entire GTOINT-calculation: 99.0 MB


           ************************************************************
           *        Program running with 16 parallel MPI-processes    *
           *              working on a common directory               *
           ************************************************************
-------------------------------------------------------------------------------
                                 ORCA SCF
-------------------------------------------------------------------------------

------------
SCF SETTINGS
------------
Hamiltonian:
 Ab initio Hamiltonian  Method          .... Hartree-Fock(GTOs)


General Settings:
 Integral files         IntName         .... /scratch/allen/tmpyp4_amber_gaff2/conf1/conf1/Conf224.orca
 Hartree-Fock type      HFTyp           .... RHF
 Total Charge           Charge          ....    0
 Multiplicity           Mult            ....    1
 Number of Electrons    NEL             ....  358
 Basis Dimension        Dim             ....  918
 Nuclear Repulsion      ENuc            ....   6228.6380799297 Eh

Convergence Acceleration:
 DIIS                   CNVDIIS         .... on
   Start iteration      DIISMaxIt       ....    12
   Startup error        DIISStart       ....  0.200000
   # of expansion vecs  DIISMaxEq       ....     5
   Bias factor          DIISBfac        ....   1.050
   Max. coefficient     DIISMaxC        ....  10.000
 Trust-Rad. Augm. Hess. CNVTRAH         .... auto
   Auto Start mean grad. ratio tolernc. ....  1.125000
   Auto Start start iteration           ....    20
   Auto Start num. interpolation iter.  ....    10
   Max. Number of Micro iterations      ....    16
   Max. Number of Macro iterations      .... Maxiter - #DIIS iter
   Number of Davidson start vectors     ....     2
   Converg. threshold I  (grad. norm)   ....   1.000e-05
   Converg. threshold II (energy diff.) ....   1.000e-08
   Grad. Scal. Fac. for Micro threshold ....   0.100
   Minimum threshold for Micro iter.    ....   0.010
   NR start threshold (gradient norm)   ....   0.001
   Initial trust radius                 ....   0.400
   Minimum AH scaling param. (alpha)    ....   1.000
   Maximum AH scaling param. (alpha)    .... 1000.000
   Orbital update algorithm             .... Taylor
   White noise on init. David. guess    .... on
   Maximum white noise                  ....   0.010
   Quad. conv. algorithm                .... NR
 SOSCF                  CNVSOSCF        .... on
   Start iteration      SOSCFMaxIt      ....   150
   Startup grad/error   SOSCFStart      ....  0.003300
 Level Shifting         CNVShift        .... on
   Level shift para.    LevelShift      ....    0.2500
   Turn off err/grad.   ShiftErr        ....    0.0010
 Zerner damping         CNVZerner       .... off
 Static damping         CNVDamp         .... on
   Fraction old density DampFac         ....    0.7000
   Max. Damping (<1)    DampMax         ....    0.9800
   Min. Damping (>=0)   DampMin         ....    0.0000
   Turn off err/grad.   DampErr         ....    0.1000
 Fernandez-Rico         CNVRico         .... off

SCF Procedure:
 Maximum # iterations   MaxIter         ....   125
 SCF integral mode      SCFMode         .... Direct
   Integral package                     .... SHARK and LIBINT hybrid scheme
 Reset frequency        DirectResetFreq ....    20
 Integral Threshold     Thresh          ....  2.500e-11 Eh
 Primitive CutOff       TCut            ....  2.500e-12 Eh

Convergence Tolerance:
 Convergence Check Mode ConvCheckMode   .... Total+1el-Energy
 Convergence forced     ConvForced      .... 1
 Energy Change          TolE            ....  1.000e-08 Eh
 1-El. energy change                    ....  1.000e-05 Eh
 Orbital Gradient       TolG            ....  1.000e-05
 Orbital Rotation angle TolX            ....  1.000e-05
 DIIS Error             TolErr          ....  5.000e-07


Diagonalization of the overlap matrix:
Smallest eigenvalue                        ... 2.226e-04
Time for diagonalization                   ...    0.486 sec
Threshold for overlap eigenvalues          ... 1.000e-08
Number of eigenvalues below threshold      ... 0
Time for construction of square roots      ...    0.269 sec
Total time needed                          ...    0.762 sec

Time for model grid setup =    1.306 sec

------------------------------
INITIAL GUESS: MODEL POTENTIAL
------------------------------
Loading Hartree-Fock densities                     ... done
Calculating cut-offs                               ... done
Initializing the effective Hamiltonian             ... done
Setting up the integral package (SHARK)            ... done
Starting the Coulomb interaction                   ... done (   1.5 sec)
Reading the grid                                   ... done
Mapping shells                                     ... done
Starting the XC term evaluation                    ... done (   0.2 sec)
Transforming the Hamiltonian                       ... done (   0.3 sec)
Diagonalizing the Hamiltonian                      ... done (   0.4 sec)
Back transforming the eigenvectors                 ... done (   0.1 sec)
Now organizing SCF variables                       ... done
                      ------------------
                      INITIAL GUESS DONE (   3.9 sec)
                      ------------------
--------------
SCF ITERATIONS
--------------
ITER       Energy         Delta-E        Max-DP      RMS-DP      [F,P]     Damp
               ***  Starting incremental Fock matrix formation  ***
  0  -2121.6862366087   0.000000000000 0.06871233  0.00121225  0.2325544 0.7000
  1  -2122.3457029948  -0.659466386151 0.05208924  0.00098544  0.1439703 0.7000
                               ***Turning on DIIS***
  2  -2122.7553981207  -0.409695125863 0.11597625  0.00223446  0.0802320 0.0000
  3  -2117.8399801158   4.915418004915 0.03129646  0.00067845  0.0440718 0.0000
  4  -2123.4228578661  -5.582877750299 0.01010262  0.00022731  0.0071741 0.0000
  5  -2123.5914078874  -0.168550021290 0.00527863  0.00013392  0.0049664 0.0000
  6  -2123.5748604804   0.016547406929 0.00350722  0.00008622  0.0019835 0.0000
  7  -2123.6760768492  -0.101216368723 0.00296490  0.00006771  0.0015409 0.0000
  8  -2123.6900569842  -0.013980135011 0.00305251  0.00006346  0.0014365 0.0000
  9  -2123.6572744250   0.032782559139 0.00243831  0.00004360  0.0011436 0.0000
 10  -2123.6685440719  -0.011269646868 0.00493538  0.00008798  0.0008795 0.0000
                      *** Initiating the SOSCF procedure ***
                           *** Shutting down DIIS ***
                      *** Re-Reading the Fockian *** 
                      *** Removing any level shift *** 
ITER      Energy       Delta-E        Grad      Rot      Max-DP    RMS-DP
 11  -2123.55633855   0.1122055182  0.000239  0.000239  0.000251  0.000006
               *** Restarting incremental Fock matrix formation ***
 12  -2123.62199923  -0.0656606725  0.000892  0.006011  0.001184  0.000031
 13  -2123.62208316  -0.0000839334  0.001033  0.028274  0.005642  0.000117
 14  -2123.62221924  -0.0001360842  0.000393  0.001785  0.000546  0.000012
 15  -2123.62223460  -0.0000153563  0.000178  0.003620  0.001002  0.000019
 16  -2123.62224459  -0.0000099860  0.000166  0.004022  0.000649  0.000014
 17  -2123.62224886  -0.0000042712  0.000159  0.002666  0.000388  0.000009
 18  -2123.62225113  -0.0000022686  0.000080  0.001302  0.000313  0.000005
 19  -2123.62225222  -0.0000010908  0.000055  0.000645  0.000165  0.000003
 20  -2123.62225255  -0.0000003374  0.000026  0.000441  0.000115  0.000002
 21  -2123.62225274  -0.0000001873  0.000027  0.000409  0.000099  0.000002
 22  -2123.62225285  -0.0000001119  0.000019  0.000508  0.000114  0.000002
 23  -2123.62225292  -0.0000000713  0.000011  0.000267  0.000051  0.000001
 24  -2123.62225295  -0.0000000295  0.000006  0.000204  0.000040  0.000001
 25  -2123.62225297  -0.0000000202  0.000006  0.000132  0.000024  0.000001
 26  -2123.62225299  -0.0000000105  0.000004  0.000140  0.000022  0.000001
 27  -2123.62225299  -0.0000000085  0.000003  0.000145  0.000021  0.000001
 28  -2123.62225300  -0.0000000044  0.000003  0.000118  0.000015  0.000000
                  ***Gradient check signals convergence***
              ***Rediagonalizing the Fockian in SOSCF/NRSCF***

               *****************************************************
               *                     SUCCESS                       *
               *           SCF CONVERGED AFTER  29 CYCLES          *
               *****************************************************


----------------
TOTAL SCF ENERGY
----------------

Total Energy       :        -2123.62225301 Eh          -57786.69932 eV

Components:
Nuclear Repulsion  :         6228.63807993 Eh          169489.85885 eV
Electronic Energy  :        -8352.26033294 Eh         -227276.55818 eV
One Electron Energy:       -15298.17919845 Eh         -416284.61949 eV
Two Electron Energy:         6945.91886551 Eh          189008.06131 eV

Virial components:
Potential Energy   :        -4245.69966925 Eh         -115531.36150 eV
Kinetic Energy     :         2122.07741625 Eh           57744.66218 eV
Virial Ratio       :            2.00072798


---------------
SCF CONVERGENCE
---------------

  Last Energy change         ...   -7.8780e-09  Tolerance :   1.0000e-08
  Last MAX-Density change    ...    8.0007e-06  Tolerance :   1.0000e-07
  Last RMS-Density change    ...    1.8703e-07  Tolerance :   5.0000e-09
  Last Orbital Gradient      ...    1.4992e-06  Tolerance :   1.0000e-05
  Last Orbital Rotation      ...    5.1838e-05  Tolerance :   1.0000e-05

             **** THE GBW FILE WAS UPDATED (/scratch/allen/tmpyp4_amber_gaff2/conf1/conf1/Conf224.orca.gbw) ****
             **** DENSITY /scratch/allen/tmpyp4_amber_gaff2/conf1/conf1/Conf224.orca.scfp WAS UPDATED ****
             **** ENERGY FILE WAS UPDATED (/scratch/allen/tmpyp4_amber_gaff2/conf1/conf1/Conf224.orca.en.tmp) ****
             **** THE GBW FILE WAS UPDATED (/scratch/allen/tmpyp4_amber_gaff2/conf1/conf1/Conf224.orca.gbw) ****
             **** DENSITY /scratch/allen/tmpyp4_amber_gaff2/conf1/conf1/Conf224.orca.scfp WAS UPDATED ****
----------------
ORBITAL ENERGIES
----------------

  NO   OCC          E(Eh)            E(eV) 
   0   2.0000     -15.661645      -426.1750 
   1   2.0000     -15.636636      -425.4945 
   2   2.0000     -15.629925      -425.3119 
   3   2.0000     -15.601036      -424.5258 
   4   2.0000     -15.522996      -422.4022 
   5   2.0000     -15.516384      -422.2223 
   6   2.0000     -15.449682      -420.4072 
   7   2.0000     -15.442719      -420.2178 
   8   2.0000     -11.316709      -307.9433 
   9   2.0000     -11.314625      -307.8866 
  10   2.0000     -11.312712      -307.8345 
  11   2.0000     -11.300960      -307.5147 
  12   2.0000     -11.297019      -307.4075 
  13   2.0000     -11.294222      -307.3314 
  14   2.0000     -11.289861      -307.2127 
  15   2.0000     -11.288419      -307.1735 
  16   2.0000     -11.285744      -307.1007 
  17   2.0000     -11.279709      -306.9365 
  18   2.0000     -11.264971      -306.5354 
  19   2.0000     -11.264710      -306.5284 
  20   2.0000     -11.263961      -306.5080 
  21   2.0000     -11.250568      -306.1435 
  22   2.0000     -11.249646      -306.1184 
  23   2.0000     -11.240125      -305.8593 
  24   2.0000     -11.234610      -305.7093 
  25   2.0000     -11.233024      -305.6661 
  26   2.0000     -11.232235      -305.6446 
  27   2.0000     -11.228156      -305.5337 
  28   2.0000     -11.228042      -305.5305 
  29   2.0000     -11.210387      -305.0501 
  30   2.0000     -11.206705      -304.9500 
  31   2.0000     -11.205770      -304.9245 
  32   2.0000     -11.205653      -304.9213 
  33   2.0000     -11.203762      -304.8699 
  34   2.0000     -11.191445      -304.5347 
  35   2.0000     -11.190872      -304.5191 
  36   2.0000     -11.183181      -304.3098 
  37   2.0000     -11.180977      -304.2499 
  38   2.0000     -11.180267      -304.2305 
  39   2.0000     -11.172802      -304.0274 
  40   2.0000     -11.169020      -303.9245 
  41   2.0000     -11.168051      -303.8981 
  42   2.0000     -11.164708      -303.8071 
  43   2.0000     -11.164654      -303.8057 
  44   2.0000     -11.163077      -303.7628 
  45   2.0000     -11.161388      -303.7168 
  46   2.0000     -11.153721      -303.5082 
  47   2.0000     -11.150034      -303.4078 
  48   2.0000     -11.149979      -303.4063 
  49   2.0000     -11.145062      -303.2726 
  50   2.0000     -11.136624      -303.0429 
  51   2.0000     -11.130283      -302.8704 
  52   2.0000      -1.344932       -36.5974 
  53   2.0000      -1.323491       -36.0140 
  54   2.0000      -1.317865       -35.8609 
  55   2.0000      -1.293952       -35.2102 
  56   2.0000      -1.222791       -33.2738 
  57   2.0000      -1.211459       -32.9655 
  58   2.0000      -1.167652       -31.7734 
  59   2.0000      -1.154600       -31.4183 
  60   2.0000      -1.130588       -30.7649 
  61   2.0000      -1.111970       -30.2582 
  62   2.0000      -1.107362       -30.1328 
  63   2.0000      -1.088235       -29.6124 
  64   2.0000      -1.067714       -29.0540 
  65   2.0000      -1.047517       -28.5044 
  66   2.0000      -1.042577       -28.3699 
  67   2.0000      -1.032902       -28.1067 
  68   2.0000      -1.021337       -27.7920 
  69   2.0000      -1.013222       -27.5712 
  70   2.0000      -1.009774       -27.4774 
  71   2.0000      -0.993156       -27.0251 
  72   2.0000      -0.986918       -26.8554 
  73   2.0000      -0.976016       -26.5587 
  74   2.0000      -0.973240       -26.4832 
  75   2.0000      -0.959550       -26.1107 
  76   2.0000      -0.950838       -25.8736 
  77   2.0000      -0.948174       -25.8011 
  78   2.0000      -0.936770       -25.4908 
  79   2.0000      -0.921776       -25.0828 
  80   2.0000      -0.899023       -24.4637 
  81   2.0000      -0.889920       -24.2160 
  82   2.0000      -0.874859       -23.8061 
  83   2.0000      -0.870377       -23.6842 
  84   2.0000      -0.864876       -23.5345 
  85   2.0000      -0.855579       -23.2815 
  86   2.0000      -0.845738       -23.0137 
  87   2.0000      -0.838673       -22.8214 
  88   2.0000      -0.822588       -22.3838 
  89   2.0000      -0.798687       -21.7334 
  90   2.0000      -0.795180       -21.6380 
  91   2.0000      -0.744061       -20.2469 
  92   2.0000      -0.737203       -20.0603 
  93   2.0000      -0.731305       -19.8998 
  94   2.0000      -0.722538       -19.6613 
  95   2.0000      -0.720666       -19.6103 
  96   2.0000      -0.713706       -19.4209 
  97   2.0000      -0.706556       -19.2264 
  98   2.0000      -0.702347       -19.1118 
  99   2.0000      -0.695687       -18.9306 
 100   2.0000      -0.693290       -18.8654 
 101   2.0000      -0.681764       -18.5517 
 102   2.0000      -0.678775       -18.4704 
 103   2.0000      -0.675532       -18.3822 
 104   2.0000      -0.672514       -18.3000 
 105   2.0000      -0.671513       -18.2728 
 106   2.0000      -0.664165       -18.0728 
 107   2.0000      -0.662863       -18.0374 
 108   2.0000      -0.655537       -17.8381 
 109   2.0000      -0.654216       -17.8021 
 110   2.0000      -0.650488       -17.7007 
 111   2.0000      -0.647654       -17.6236 
 112   2.0000      -0.643265       -17.5041 
 113   2.0000      -0.637396       -17.3444 
 114   2.0000      -0.632910       -17.2224 
 115   2.0000      -0.631620       -17.1873 
 116   2.0000      -0.625104       -17.0099 
 117   2.0000      -0.615356       -16.7447 
 118   2.0000      -0.614275       -16.7153 
 119   2.0000      -0.611297       -16.6342 
 120   2.0000      -0.609800       -16.5935 
 121   2.0000      -0.601870       -16.3777 
 122   2.0000      -0.599566       -16.3150 
 123   2.0000      -0.589823       -16.0499 
 124   2.0000      -0.586967       -15.9722 
 125   2.0000      -0.582970       -15.8634 
 126   2.0000      -0.579323       -15.7642 
 127   2.0000      -0.576512       -15.6877 
 128   2.0000      -0.563646       -15.3376 
 129   2.0000      -0.558522       -15.1982 
 130   2.0000      -0.554544       -15.0899 
 131   2.0000      -0.549238       -14.9455 
 132   2.0000      -0.541479       -14.7344 
 133   2.0000      -0.537873       -14.6363 
 134   2.0000      -0.535013       -14.5585 
 135   2.0000      -0.533694       -14.5226 
 136   2.0000      -0.526184       -14.3182 
 137   2.0000      -0.524372       -14.2689 
 138   2.0000      -0.516662       -14.0591 
 139   2.0000      -0.516313       -14.0496 
 140   2.0000      -0.510984       -13.9046 
 141   2.0000      -0.509548       -13.8655 
 142   2.0000      -0.508029       -13.8242 
 143   2.0000      -0.502233       -13.6664 
 144   2.0000      -0.501236       -13.6393 
 145   2.0000      -0.498100       -13.5540 
 146   2.0000      -0.494314       -13.4510 
 147   2.0000      -0.487119       -13.2552 
 148   2.0000      -0.485483       -13.2107 
 149   2.0000      -0.468972       -12.7614 
 150   2.0000      -0.463554       -12.6140 
 151   2.0000      -0.455695       -12.4001 
 152   2.0000      -0.448453       -12.2030 
 153   2.0000      -0.446543       -12.1511 
 154   2.0000      -0.445309       -12.1175 
 155   2.0000      -0.440764       -11.9938 
 156   2.0000      -0.432545       -11.7701 
 157   2.0000      -0.427118       -11.6225 
 158   2.0000      -0.399120       -10.8606 
 159   2.0000      -0.387166       -10.5353 
 160   2.0000      -0.378317       -10.2945 
 161   2.0000      -0.375312       -10.2128 
 162   2.0000      -0.370551       -10.0832 
 163   2.0000      -0.358304        -9.7500 
 164   2.0000      -0.354308        -9.6412 
 165   2.0000      -0.337774        -9.1913 
 166   2.0000      -0.336766        -9.1639 
 167   2.0000      -0.333615        -9.0781 
 168   2.0000      -0.327763        -8.9189 
 169   2.0000      -0.301190        -8.1958 
 170   2.0000      -0.299891        -8.1604 
 171   2.0000      -0.287463        -7.8223 
 172   2.0000      -0.285020        -7.7558 
 173   2.0000      -0.259782        -7.0690 
 174   2.0000      -0.245774        -6.6878 
 175   2.0000      -0.189362        -5.1528 
 176   2.0000      -0.179533        -4.8853 
 177   2.0000      -0.071596        -1.9482 
 178   2.0000      -0.056741        -1.5440 
 179   0.0000       0.029303         0.7974 
 180   0.0000       0.068426         1.8620 
 181   0.0000       0.092199         2.5089 
 182   0.0000       0.104121         2.8333 
 183   0.0000       0.118357         3.2207 
 184   0.0000       0.135546         3.6884 
 185   0.0000       0.140527         3.8239 
 186   0.0000       0.150404         4.0927 
 187   0.0000       0.161183         4.3860 
 188   0.0000       0.162462         4.4208 
 189   0.0000       0.163779         4.4567 
 190   0.0000       0.166849         4.5402 
 191   0.0000       0.181238         4.9317 
 192   0.0000       0.189984         5.1697 
 193   0.0000       0.193380         5.2621 
 194   0.0000       0.203556         5.5390 
 195   0.0000       0.206756         5.6261 
 196   0.0000       0.206930         5.6308 
 197   0.0000       0.209837         5.7100 
 198   0.0000       0.221346         6.0231 
 199   0.0000       0.225026         6.1233 
 200   0.0000       0.225406         6.1336 
 201   0.0000       0.238017         6.4768 
 202   0.0000       0.240927         6.5560 
 203   0.0000       0.243041         6.6135 
 204   0.0000       0.252135         6.8609 
 205   0.0000       0.254712         6.9311 
 206   0.0000       0.256926         6.9913 
 207   0.0000       0.258774         7.0416 
 208   0.0000       0.261727         7.1219 
 209   0.0000       0.262115         7.1325 
 210   0.0000       0.265426         7.2226 
 211   0.0000       0.269695         7.3388 
 212   0.0000       0.272187         7.4066 
 213   0.0000       0.273218         7.4346 
 214   0.0000       0.275447         7.4953 
 215   0.0000       0.278545         7.5796 
 216   0.0000       0.279590         7.6080 
 217   0.0000       0.280532         7.6337 
 218   0.0000       0.284350         7.7376 
 219   0.0000       0.289169         7.8687 
 220   0.0000       0.289875         7.8879 
 221   0.0000       0.292917         7.9707 
 222   0.0000       0.294124         8.0035 
 223   0.0000       0.295343         8.0367 
 224   0.0000       0.298505         8.1227 
 225   0.0000       0.299156         8.1405 
 226   0.0000       0.305294         8.3075 
 227   0.0000       0.309254         8.4152 
 228   0.0000       0.310372         8.4457 
 229   0.0000       0.318933         8.6786 
 230   0.0000       0.322511         8.7760 
 231   0.0000       0.324001         8.8165 
 232   0.0000       0.328728         8.9452 
 233   0.0000       0.332003         9.0343 
 234   0.0000       0.343495         9.3470 
 235   0.0000       0.345187         9.3930 
 236   0.0000       0.357345         9.7239 
 237   0.0000       0.382212        10.4005 
 238   0.0000       0.394880        10.7452 
 239   0.0000       0.398323        10.8389 
 240   0.0000       0.402282        10.9466 
 241   0.0000       0.415633        11.3099 
 242   0.0000       0.418643        11.3919 
 243   0.0000       0.422941        11.5088 
 244   0.0000       0.429547        11.6886 
 245   0.0000       0.430674        11.7192 
 246   0.0000       0.434779        11.8309 
 247   0.0000       0.439900        11.9703 
 248   0.0000       0.442279        12.0350 
 249   0.0000       0.443355        12.0643 
 250   0.0000       0.450793        12.2667 
 251   0.0000       0.457912        12.4604 
 252   0.0000       0.460967        12.5436 
 253   0.0000       0.464917        12.6510 
 254   0.0000       0.470875        12.8132 
 255   0.0000       0.473619        12.8878 
 256   0.0000       0.482167        13.1204 
 257   0.0000       0.483203        13.1486 
 258   0.0000       0.489076        13.3084 
 259   0.0000       0.499303        13.5867 
 260   0.0000       0.501701        13.6520 
 261   0.0000       0.504901        13.7391 
 262   0.0000       0.507029        13.7970 
 263   0.0000       0.507874        13.8199 
 264   0.0000       0.513690        13.9782 
 265   0.0000       0.518229        14.1017 
 266   0.0000       0.519792        14.1443 
 267   0.0000       0.524561        14.2740 
 268   0.0000       0.534779        14.5521 
 269   0.0000       0.538054        14.6412 
 270   0.0000       0.540917        14.7191 
 271   0.0000       0.546264        14.8646 
 272   0.0000       0.548080        14.9140 
 273   0.0000       0.555763        15.1231 
 274   0.0000       0.559973        15.2376 
 275   0.0000       0.565448        15.3866 
 276   0.0000       0.570230        15.5167 
 277   0.0000       0.574893        15.6436 
 278   0.0000       0.580601        15.7990 
 279   0.0000       0.585319        15.9274 
 280   0.0000       0.587793        15.9947 
 281   0.0000       0.592202        16.1146 
 282   0.0000       0.593569        16.1518 
 283   0.0000       0.597528        16.2596 
 284   0.0000       0.598418        16.2838 
 285   0.0000       0.600471        16.3396 
 286   0.0000       0.607236        16.5237 
 287   0.0000       0.611402        16.6371 
 288   0.0000       0.612397        16.6642 
 289   0.0000       0.619187        16.8489 
 290   0.0000       0.627424        17.0731 
 291   0.0000       0.628109        17.0917 
 292   0.0000       0.633740        17.2449 
 293   0.0000       0.636211        17.3122 
 294   0.0000       0.645227        17.5575 
 295   0.0000       0.650294        17.6954 
 296   0.0000       0.654146        17.8002 
 297   0.0000       0.657567        17.8933 
 298   0.0000       0.664475        18.0813 
 299   0.0000       0.667043        18.1512 
 300   0.0000       0.669293        18.2124 
 301   0.0000       0.670255        18.2386 
 302   0.0000       0.678820        18.4716 
 303   0.0000       0.681662        18.5490 
 304   0.0000       0.683640        18.6028 
 305   0.0000       0.687379        18.7045 
 306   0.0000       0.690141        18.7797 
 307   0.0000       0.693595        18.8737 
 308   0.0000       0.695619        18.9287 
 309   0.0000       0.697953        18.9923 
 310   0.0000       0.700147        19.0520 
 311   0.0000       0.704120        19.1601 
 312   0.0000       0.705648        19.2016 
 313   0.0000       0.709879        19.3168 
 314   0.0000       0.711773        19.3683 
 315   0.0000       0.714102        19.4317 
 316   0.0000       0.717203        19.5161 
 317   0.0000       0.719127        19.5684 
 318   0.0000       0.721183        19.6244 
 319   0.0000       0.723595        19.6900 
 320   0.0000       0.725901        19.7528 
 321   0.0000       0.728929        19.8352 
 322   0.0000       0.733296        19.9540 
 323   0.0000       0.736520        20.0417 
 324   0.0000       0.739110        20.1122 
 325   0.0000       0.739480        20.1223 
 326   0.0000       0.742575        20.2065 
 327   0.0000       0.744781        20.2665 
 328   0.0000       0.748339        20.3634 
 329   0.0000       0.749550        20.3963 
 330   0.0000       0.751680        20.4543 
 331   0.0000       0.756190        20.5770 
 332   0.0000       0.757511        20.6129 
 333   0.0000       0.762088        20.7375 
 334   0.0000       0.768236        20.9048 
 335   0.0000       0.771181        20.9849 
 336   0.0000       0.776605        21.1325 
 337   0.0000       0.785198        21.3663 
 338   0.0000       0.786098        21.3908 
 339   0.0000       0.787187        21.4204 
 340   0.0000       0.791114        21.5273 
 341   0.0000       0.793557        21.5938 
 342   0.0000       0.798063        21.7164 
 343   0.0000       0.802605        21.8400 
 344   0.0000       0.804751        21.8984 
 345   0.0000       0.807530        21.9740 
 346   0.0000       0.809408        22.0251 
 347   0.0000       0.811083        22.0707 
 348   0.0000       0.812336        22.1048 
 349   0.0000       0.818301        22.2671 
 350   0.0000       0.821772        22.3616 
 351   0.0000       0.823093        22.3975 
 352   0.0000       0.824205        22.4278 
 353   0.0000       0.827664        22.5219 
 354   0.0000       0.828855        22.5543 
 355   0.0000       0.831440        22.6246 
 356   0.0000       0.832913        22.6647 
 357   0.0000       0.835376        22.7317 
 358   0.0000       0.836521        22.7629 
 359   0.0000       0.838513        22.8171 
 360   0.0000       0.839975        22.8569 
 361   0.0000       0.841669        22.9030 
 362   0.0000       0.843378        22.9495 
 363   0.0000       0.845549        23.0085 
 364   0.0000       0.846380        23.0312 
 365   0.0000       0.851190        23.1620 
 366   0.0000       0.855368        23.2758 
 367   0.0000       0.858491        23.3607 
 368   0.0000       0.861629        23.4461 
 369   0.0000       0.864734        23.5306 
 370   0.0000       0.868402        23.6304 
 371   0.0000       0.872684        23.7469 
 372   0.0000       0.875501        23.8236 
 373   0.0000       0.877549        23.8793 
 374   0.0000       0.877761        23.8851 
 375   0.0000       0.883090        24.0301 
 376   0.0000       0.884303        24.0631 
 377   0.0000       0.888429        24.1754 
 378   0.0000       0.890607        24.2346 
 379   0.0000       0.894217        24.3329 
 380   0.0000       0.896254        24.3883 
 381   0.0000       0.898695        24.4547 
 382   0.0000       0.901855        24.5407 
 383   0.0000       0.902790        24.5662 
 384   0.0000       0.904990        24.6260 
 385   0.0000       0.905325        24.6351 
 386   0.0000       0.907716        24.7002 
 387   0.0000       0.909328        24.7441 
 388   0.0000       0.910684        24.7810 
 389   0.0000       0.915234        24.9048 
 390   0.0000       0.917358        24.9626 
 391   0.0000       0.921017        25.0621 
 392   0.0000       0.923629        25.1332 
 393   0.0000       0.926855        25.2210 
 394   0.0000       0.928463        25.2648 
 395   0.0000       0.930527        25.3209 
 396   0.0000       0.932170        25.3656 
 397   0.0000       0.933240        25.3948 
 398   0.0000       0.939836        25.5742 
 399   0.0000       0.941477        25.6189 
 400   0.0000       0.944560        25.7028 
 401   0.0000       0.946852        25.7652 
 402   0.0000       0.952033        25.9061 
 403   0.0000       0.955778        26.0081 
 404   0.0000       0.957963        26.0675 
 405   0.0000       0.959916        26.1206 
 406   0.0000       0.960750        26.1433 
 407   0.0000       0.965582        26.2748 
 408   0.0000       0.969018        26.3683 
 409   0.0000       0.974528        26.5182 
 410   0.0000       0.979793        26.6615 
 411   0.0000       0.985541        26.8179 
 412   0.0000       0.986269        26.8377 
 413   0.0000       0.988140        26.8887 
 414   0.0000       0.991166        26.9710 
 415   0.0000       0.993809        27.0429 
 416   0.0000       1.002387        27.2763 
 417   0.0000       1.005386        27.3579 
 418   0.0000       1.011430        27.5224 
 419   0.0000       1.017484        27.6871 
 420   0.0000       1.026285        27.9266 
 421   0.0000       1.028801        27.9951 
 422   0.0000       1.031380        28.0653 
 423   0.0000       1.040690        28.3186 
 424   0.0000       1.044854        28.4319 
 425   0.0000       1.047230        28.4966 
 426   0.0000       1.057393        28.7731 
 427   0.0000       1.063940        28.9513 
 428   0.0000       1.065862        29.0036 
 429   0.0000       1.074872        29.2488 
 430   0.0000       1.077655        29.3245 
 431   0.0000       1.081437        29.4274 
 432   0.0000       1.084373        29.5073 
 433   0.0000       1.091027        29.6884 
 434   0.0000       1.098452        29.8904 
 435   0.0000       1.102521        30.0011 
 436   0.0000       1.104278        30.0489 
 437   0.0000       1.111891        30.2561 
 438   0.0000       1.114571        30.3290 
 439   0.0000       1.117979        30.4218 
 440   0.0000       1.119796        30.4712 
 441   0.0000       1.123459        30.5709 
 442   0.0000       1.125690        30.6316 
 443   0.0000       1.129133        30.7253 
 444   0.0000       1.132896        30.8277 
 445   0.0000       1.135867        30.9085 
 446   0.0000       1.141107        31.0511 
 447   0.0000       1.143029        31.1034 
 448   0.0000       1.144054        31.1313 
 449   0.0000       1.148200        31.2441 
 450   0.0000       1.150085        31.2954 
 451   0.0000       1.151973        31.3468 
 452   0.0000       1.156927        31.4816 
 453   0.0000       1.158953        31.5367 
 454   0.0000       1.164220        31.6800 
 455   0.0000       1.169373        31.8203 
 456   0.0000       1.173787        31.9404 
 457   0.0000       1.174768        31.9671 
 458   0.0000       1.178410        32.0662 
 459   0.0000       1.184178        32.2231 
 460   0.0000       1.187170        32.3045 
 461   0.0000       1.195575        32.5333 
 462   0.0000       1.202695        32.7270 
 463   0.0000       1.204759        32.7832 
 464   0.0000       1.208235        32.8778 
 465   0.0000       1.210329        32.9347 
 466   0.0000       1.213966        33.0337 
 467   0.0000       1.218398        33.1543 
 468   0.0000       1.223095        33.2821 
 469   0.0000       1.226437        33.3730 
 470   0.0000       1.230313        33.4785 
 471   0.0000       1.232730        33.5443 
 472   0.0000       1.234639        33.5962 
 473   0.0000       1.236560        33.6485 
 474   0.0000       1.242789        33.8180 
 475   0.0000       1.246541        33.9201 
 476   0.0000       1.249535        34.0016 
 477   0.0000       1.250304        34.0225 
 478   0.0000       1.251368        34.0515 
 479   0.0000       1.254054        34.1245 
 480   0.0000       1.260548        34.3013 
 481   0.0000       1.265314        34.4309 
 482   0.0000       1.265703        34.4415 
 483   0.0000       1.270100        34.5612 
 484   0.0000       1.272299        34.6210 
 485   0.0000       1.277768        34.7698 
 486   0.0000       1.279525        34.8176 
 487   0.0000       1.281816        34.8800 
 488   0.0000       1.287735        35.0410 
 489   0.0000       1.290649        35.1203 
 490   0.0000       1.292233        35.1634 
 491   0.0000       1.297564        35.3085 
 492   0.0000       1.298953        35.3463 
 493   0.0000       1.309510        35.6336 
 494   0.0000       1.310872        35.6706 
 495   0.0000       1.312922        35.7264 
 496   0.0000       1.319385        35.9023 
 497   0.0000       1.323456        36.0131 
 498   0.0000       1.327442        36.1215 
 499   0.0000       1.328973        36.1632 
 500   0.0000       1.332429        36.2572 
 501   0.0000       1.336677        36.3728 
 502   0.0000       1.337475        36.3946 
 503   0.0000       1.344163        36.5765 
 504   0.0000       1.346989        36.6534 
 505   0.0000       1.350872        36.7591 
 506   0.0000       1.353265        36.8242 
 507   0.0000       1.358625        36.9701 
[...]
      pz      :     0.022052  p :     0.079686
      px      :     0.043474
      py      :     0.014160
 77 H s       :     0.886575  s :     0.886575
      pz      :     0.047822  p :     0.079110
      px      :     0.015018
      py      :     0.016271
 78 H s       :     0.886954  s :     0.886954
      pz      :     0.025802  p :     0.079064
      px      :     0.020500
      py      :     0.032761
 79 H s       :     0.909937  s :     0.909937
      pz      :     0.021951  p :     0.086501
      px      :     0.021708
      py      :     0.042842
 80 H s       :     0.867279  s :     0.867279
      pz      :     0.039157  p :     0.084504
      px      :     0.030119
      py      :     0.015228
 81 H s       :     0.887144  s :     0.887144
      pz      :     0.037780  p :     0.084020
      px      :     0.016176
      py      :     0.030064
 82 H s       :     0.915598  s :     0.915598
      pz      :     0.022014  p :     0.086782
      px      :     0.031526
      py      :     0.033243
 83 H s       :     0.873104  s :     0.873104
      pz      :     0.039267  p :     0.084037
      px      :     0.015266
      py      :     0.029504
 84 H s       :     0.886895  s :     0.886895
      pz      :     0.035779  p :     0.083566
      px      :     0.031707
      py      :     0.016080
 85 H s       :     0.893240  s :     0.893240
      pz      :     0.022494  p :     0.079767
      px      :     0.014080
      py      :     0.043194
 86 H s       :     0.890921  s :     0.890921
      pz      :     0.024727  p :     0.078840
      px      :     0.032984
      py      :     0.021129
 87 H s       :     0.890083  s :     0.890083
      pz      :     0.047984  p :     0.078718
      px      :     0.015597
      py      :     0.015137
 88 H s       :     0.911895  s :     0.911895
      pz      :     0.021789  p :     0.086984
      px      :     0.042770
      py      :     0.022425
 89 H s       :     0.872070  s :     0.872070
      pz      :     0.037906  p :     0.083828
      px      :     0.030463
      py      :     0.015459


                      *****************************
                      * MAYER POPULATION ANALYSIS *
                      *****************************

  NA   - Mulliken gross atomic population
  ZA   - Total nuclear charge
  QA   - Mulliken gross atomic charge
  VA   - Mayer's total valence
  BVA  - Mayer's bonded valence
  FA   - Mayer's free valence

  ATOM       NA         ZA         QA         VA         BVA        FA
  0 C      5.7921     6.0000     0.2079     3.8358     3.8358     0.0000
  1 N      7.4517     7.0000    -0.4517     3.3389     3.3389    -0.0000
  2 C      6.0627     6.0000    -0.0627     3.9201     3.9201    -0.0000
  3 N      7.3360     7.0000    -0.3360     3.4543     3.4543     0.0000
  4 C      6.0508     6.0000    -0.0508     3.9956     3.9956     0.0000
  5 N      7.5628     7.0000    -0.5628     3.0912     3.0912    -0.0000
  6 C      6.1009     6.0000    -0.1009     4.0083     4.0083     0.0000
  7 N      7.3393     7.0000    -0.3393     3.4371     3.4371     0.0000
  8 C      5.7957     6.0000     0.2043     3.8380     3.8380    -0.0000
  9 N      7.5627     7.0000    -0.5627     3.0799     3.0799     0.0000
 10 C      5.8822     6.0000     0.1178     3.9050     3.9050     0.0000
 11 N      7.4378     7.0000    -0.4378     3.3812     3.3812    -0.0000
 12 C      6.0826     6.0000    -0.0826     3.9149     3.9149    -0.0000
 13 N      7.4337     7.0000    -0.4337     3.4083     3.4083    -0.0000
 14 C      5.7582     6.0000     0.2418     3.7798     3.7798    -0.0000
 15 N      7.4411     7.0000    -0.4411     3.3712     3.3712     0.0000
 16 C      5.7714     6.0000     0.2286     3.7844     3.7844     0.0000
 17 C      6.1032     6.0000    -0.1032     4.0056     4.0056    -0.0000
 18 C      6.2095     6.0000    -0.2095     3.7717     3.7717    -0.0000
 19 C      5.7642     6.0000     0.2358     3.8588     3.8588     0.0000
 20 C      5.7882     6.0000     0.2118     3.8277     3.8277    -0.0000
 21 C      6.0948     6.0000    -0.0948     3.9028     3.9028     0.0000
 22 C      6.0898     6.0000    -0.0898     3.9829     3.9829    -0.0000
 23 C      6.0428     6.0000    -0.0428     3.9919     3.9919    -0.0000
 24 C      5.8017     6.0000     0.1983     3.8220     3.8220     0.0000
 25 C      5.8858     6.0000     0.1142     3.8906     3.8906     0.0000
 26 C      6.0740     6.0000    -0.0740     3.9096     3.9096     0.0000
 27 C      5.7850     6.0000     0.2150     3.8710     3.8710     0.0000
 28 C      6.0583     6.0000    -0.0583     3.9882     3.9882    -0.0000
 29 C      6.1811     6.0000    -0.1811     3.7418     3.7418    -0.0000
 30 C      5.7581     6.0000     0.2419     3.7977     3.7977     0.0000
 31 C      5.7773     6.0000     0.2227     3.8216     3.8216    -0.0000
 32 C      6.0631     6.0000    -0.0631     3.9212     3.9212     0.0000
 33 C      6.0690     6.0000    -0.0690     3.9779     3.9779     0.0000
 34 C      6.0504     6.0000    -0.0504     3.9872     3.9872     0.0000
 35 C      5.7817     6.0000     0.2183     3.8203     3.8203    -0.0000
 36 C      5.8894     6.0000     0.1106     3.8816     3.8816     0.0000
 37 C      6.0654     6.0000    -0.0654     3.9175     3.9175     0.0000
 38 C      5.7662     6.0000     0.2338     3.7999     3.7999    -0.0000
 39 C      6.0593     6.0000    -0.0593     3.9864     3.9864     0.0000
 40 C      6.1844     6.0000    -0.1844     3.7330     3.7330    -0.0000
 41 C      5.7761     6.0000     0.2239     3.8842     3.8842    -0.0000
 42 C      5.8007     6.0000     0.1993     3.8266     3.8266    -0.0000
 43 C      6.0727     6.0000    -0.0727     3.9012     3.9012    -0.0000
 44 C      6.0897     6.0000    -0.0897     3.9850     3.9850     0.0000
 45 C      6.0579     6.0000    -0.0579     3.9926     3.9926     0.0000
 46 C      5.7919     6.0000     0.2081     3.8275     3.8275    -0.0000
 47 C      5.8845     6.0000     0.1155     3.8934     3.8934     0.0000
 48 C      6.0699     6.0000    -0.0699     3.9076     3.9076    -0.0000
 49 C      5.7660     6.0000     0.2340     3.8899     3.8899     0.0000
 50 C      6.0490     6.0000    -0.0490     3.9906     3.9906     0.0000
 51 C      6.1905     6.0000    -0.1905     3.7358     3.7358    -0.0000
 52 H      0.9552     1.0000     0.0448     0.9858     0.9858    -0.0000
 53 H      1.0154     1.0000    -0.0154     0.9983     0.9983     0.0000
 54 H      0.9517     1.0000     0.0483     1.0101     1.0101     0.0000
 55 H      0.9575     1.0000     0.0425     0.9866     0.9866     0.0000
 56 H      0.9481     1.0000     0.0519     0.9701     0.9701     0.0000
 57 H      0.9496     1.0000     0.0504     0.9832     0.9832    -0.0000
 58 H      0.9498     1.0000     0.0502     0.9850     0.9850     0.0000
 59 H      1.0018     1.0000    -0.0018     1.0025     1.0025     0.0000
 60 H      0.9486     1.0000     0.0514     1.0115     1.0115    -0.0000
 61 H      0.8283     1.0000     0.1717     1.0421     1.0421     0.0000
 62 H      0.8255     1.0000     0.1745     1.0435     1.0435     0.0000
 63 H      0.9440     1.0000     0.0560     0.9853     0.9853     0.0000
 64 H      1.0096     1.0000    -0.0096     0.9981     0.9981     0.0000
 65 H      0.9524     1.0000     0.0476     1.0092     1.0092    -0.0000
 66 H      0.9432     1.0000     0.0568     0.9853     0.9853     0.0000
 67 H      0.9373     1.0000     0.0627     0.9720     0.9720    -0.0000
 68 H      0.9422     1.0000     0.0578     0.9868     0.9868    -0.0000
 69 H      0.9425     1.0000     0.0575     0.9829     0.9829     0.0000
 70 H      1.0274     1.0000    -0.0274     0.9935     0.9935    -0.0000
 71 H      0.9539     1.0000     0.0461     1.0062     1.0062    -0.0000
 72 H      0.9346     1.0000     0.0654     0.9842     0.9842     0.0000
 73 H      1.0103     1.0000    -0.0103     1.0000     1.0000     0.0000
 74 H      0.9451     1.0000     0.0549     1.0100     1.0100     0.0000
 75 H      0.9354     1.0000     0.0646     0.9846     0.9846    -0.0000
 76 H      0.9303     1.0000     0.0697     0.9719     0.9719     0.0000
 77 H      0.9360     1.0000     0.0640     0.9853     0.9853     0.0000
 78 H      0.9367     1.0000     0.0633     0.9851     0.9851    -0.0000
 79 H      1.0154     1.0000    -0.0154     0.9983     0.9983     0.0000
 80 H      0.9444     1.0000     0.0556     1.0072     1.0072    -0.0000
 81 H      0.9464     1.0000     0.0536     0.9856     0.9856    -0.0000
 82 H      1.0243     1.0000    -0.0243     0.9937     0.9937     0.0000
 83 H      0.9577     1.0000     0.0423     1.0086     1.0086     0.0000
 84 H      0.9463     1.0000     0.0537     0.9854     0.9854     0.0000
 85 H      0.9399     1.0000     0.0601     0.9716     0.9716    -0.0000
 86 H      0.9443     1.0000     0.0557     0.9839     0.9839     0.0000
 87 H      0.9432     1.0000     0.0568     0.9856     0.9856     0.0000
 88 H      1.0171     1.0000    -0.0171     0.9959     0.9959     0.0000
 89 H      0.9550     1.0000     0.0450     1.0073     1.0073    -0.0000

  Mayer bond orders larger than 0.100000
B(  0-C ,  1-N ) :   1.0967 B(  0-C , 17-C ) :   1.6848 B(  0-C , 52-H ) :   0.9683 
B(  1-N ,  8-C ) :   1.0932 B(  1-N , 10-C ) :   0.9736 B(  2-C , 12-C ) :   1.5188 
B(  2-C , 16-C ) :   1.3451 B(  2-C , 53-H ) :   0.9764 B(  3-N , 14-C ) :   1.2141 
B(  3-N , 16-C ) :   1.1930 B(  3-N , 61-H ) :   0.8989 B(  4-C ,  6-C ) :   1.2254 
B(  4-C , 17-C ) :   1.2258 B(  4-C , 18-C ) :   1.3855 B(  5-N , 19-C ) :   1.4431 
B(  5-N , 27-C ) :   1.3864 B(  6-C ,  8-C ) :   1.6845 B(  6-C , 54-H ) :   0.9662 
B(  7-N , 30-C ) :   1.1951 B(  7-N , 38-C ) :   1.1950 B(  7-N , 62-H ) :   0.8973 
B(  8-C , 55-H ) :   0.9690 B(  9-N , 41-C ) :   1.3987 B(  9-N , 49-C ) :   1.4224 
B( 10-C , 56-H ) :   0.9766 B( 10-C , 57-H ) :   0.9820 B( 10-C , 58-H ) :   0.9841 
B( 11-N , 20-C ) :   1.1294 B( 11-N , 24-C ) :   1.1132 B( 11-N , 25-C ) :   0.9592 
B( 12-C , 14-C ) :   1.3463 B( 12-C , 59-H ) :   0.9744 B( 13-N , 31-C ) :   1.1462 
B( 13-N , 35-C ) :   1.1417 B( 13-N , 36-C ) :   0.9488 B( 14-C , 18-C ) :   1.1510 
B( 15-N , 42-C ) :   1.1101 B( 15-N , 46-C ) :   1.1197 B( 15-N , 47-C ) :   0.9619 
B( 16-C , 51-C ) :   1.1803 B( 17-C , 60-H ) :   0.9656 B( 18-C , 19-C ) :   1.1598 
B( 19-C , 21-C ) :   1.2319 B( 20-C , 28-C ) :   1.6258 B( 20-C , 63-H ) :   0.9702 
B( 21-C , 26-C ) :   1.6251 B( 21-C , 64-H ) :   0.9700 B( 22-C , 23-C ) :   1.2885 
B( 22-C , 28-C ) :   1.2684 B( 22-C , 29-C ) :   1.2228 B( 23-C , 24-C ) :   1.6183 
B( 23-C , 65-H ) :   0.9705 B( 24-C , 66-H ) :   0.9693 B( 25-C , 67-H ) :   0.9761 
B( 25-C , 68-H ) :   0.9828 B( 25-C , 69-H ) :   0.9822 B( 26-C , 27-C ) :   1.2282 
B( 26-C , 70-H ) :   0.9719 B( 27-C , 29-C ) :   1.2224 B( 28-C , 71-H ) :   0.9717 
B( 29-C , 30-C ) :   1.2296 B( 30-C , 32-C ) :   1.2939 B( 31-C , 39-C ) :   1.6054 
B( 31-C , 72-H ) :   0.9687 B( 32-C , 37-C ) :   1.5648 B( 32-C , 73-H ) :   0.9783 
B( 33-C , 34-C ) :   1.2946 B( 33-C , 39-C ) :   1.2890 B( 33-C , 40-C ) :   1.2050 
B( 34-C , 35-C ) :   1.6023 B( 34-C , 74-H ) :   0.9700 B( 35-C , 75-H ) :   0.9688 
B( 36-C , 76-H ) :   0.9766 B( 36-C , 77-H ) :   0.9818 B( 36-C , 78-H ) :   0.9826 
B( 37-C , 38-C ) :   1.2972 B( 37-C , 79-H ) :   0.9770 B( 38-C , 40-C ) :   1.2223 
B( 39-C , 80-H ) :   0.9709 B( 40-C , 41-C ) :   1.2386 B( 41-C , 43-C ) :   1.1960 
B( 42-C , 50-C ) :   1.6339 B( 42-C , 81-H ) :   0.9697 B( 43-C , 48-C ) :   1.6561 
B( 43-C , 82-H ) :   0.9728 B( 44-C , 45-C ) :   1.2658 B( 44-C , 50-C ) :   1.2697 
B( 44-C , 51-C ) :   1.2596 B( 45-C , 46-C ) :   1.6347 B( 45-C , 83-H ) :   0.9716 
B( 46-C , 84-H ) :   0.9701 B( 47-C , 85-H ) :   0.9761 B( 47-C , 86-H ) :   0.9829 
B( 47-C , 87-H ) :   0.9825 B( 48-C , 49-C ) :   1.1984 B( 48-C , 88-H ) :   0.9745 
B( 49-C , 51-C ) :   1.2332 B( 50-C , 89-H ) :   0.9711 

-------
TIMINGS
-------

Total SCF time: 0 days 0 hours 28 min 56 sec 

Total time                  ....    1736.177 sec
Sum of individual times     ....    1731.308 sec  ( 99.7%)

Fock matrix formation       ....    1702.826 sec  ( 98.1%)
Diagonalization             ....       8.779 sec  (  0.5%)
Density matrix formation    ....       0.546 sec  (  0.0%)
Population analysis         ....       0.600 sec  (  0.0%)
Initial guess               ....       2.547 sec  (  0.1%)
Orbital Transformation      ....       0.000 sec  (  0.0%)
Orbital Orthonormalization  ....       0.000 sec  (  0.0%)
DIIS solution               ....       3.963 sec  (  0.2%)
SOSCF solution              ....      10.743 sec  (  0.6%)

Maximum memory used throughout the entire SCF-calculation: 302.6 MB


           ************************************************************
           *        Program running with 16 parallel MPI-processes    *
           *              working on a common directory               *
           ************************************************************

------------------------------------------------------------------------------
                                ORCA  MP2 
------------------------------------------------------------------------------

Freezing NCore=104 chemical core electrons

----------
MP2 ENERGY (disk based algorithm)
----------

Dimension of the basis                    ...  918
Memory devoted to MP2                     ... 2000 MB   
Data format for buffers                   ... DOUBLE
Compression type for matrix containers    ... UNCOMPRESSED

-------------------------------
PARTIAL EXCHANGE TRANSFORMATION
-------------------------------

Transformation type                        ... one-operator
Generation of integrals (i,mue|j,nue)      ... ON
Generation of integrals (mue,kappa|nue,tau)... OFF
Generation of integrals (i,mue|a,nue)      ... OFF
Dimension of the basis                     ...  918
Number of internal MOs                     ...  127 (  52- 178)
Pair cutoff                                ... 2.500e-12 Eh
Number of AO pairs in the trafo            ... 421821
Total Number of distinct AO pairs          ... 421821
Memory devoted for trafo                   ... 2000.0 MB 
Max. Number of MO pairs treated together   ...  311      
Number Format for Storage                  ... Double (8 Byte)
Integral package used                      ... LIBINT

Starting integral evaluation:
    ... done with AO integral generation
Closing buffer AOK     (38.26 GB; CompressionRatio= 1.32)
Collecting buffer AOK 
Number of MO pairs included in the trafo   ... 8128
------------------------
SORTING OF (i,mue|j,nue)
------------------------

IBATCH = 1 of  2
IBATCH = 2 of  2
Closing buffer KAO     (51.03 GB; CompressionRatio= 1.00)
Collecting buffer KAO 
N(AO-Batches) Done                         ...  85754769 
N(AO-Batches) Skipped                      ...  82263193 
N(IJ)-pairs Skipped                        ...         0 
TOTAL TIME for half transformation         ...  2329.751 sec
AO-integral generation                     ...   210.614 sec
Half transformation                        ...   424.110 sec
K-integral sorting                         ...  1472.171 sec
Process 10:   Internal MO 132
Process 13:   Internal MO 156

Finished integral transformation - now doing MP2 part

Process  4:   Internal MO  84
Process  7:   Internal MO 108
Process  1:   Internal MO  60
OPERATOR COMBINATION   0   0: ij=( 52..178, 52..178)
Process  2:   Internal MO  69
Process  1:   Internal MO  63
Process  3:   Internal MO  78
Process  5:   Internal MO  93
Process  2:   Internal MO  72
Process  1:   Internal MO  66
Process 11:   Internal MO 141
Process  0:   Internal MO  54
Process  8:   Internal MO 117
Process  6:   Internal MO 102
Process  4:   Internal MO  87
Process 14:   Internal MO 165
Process  0:   Internal MO  57
Process  3:   Internal MO  81
Process  2:   Internal MO  75
Process  9:   Internal MO 126
Process  7:   Internal MO 111
Process  5:   Internal MO  96
Process 12:   Internal MO 150
Process  4:   Internal MO  90
Process 10:   Internal MO 135
Process 15:   Internal MO 174
Process  6:   Internal MO 105
Process  8:   Internal MO 120
Process  7:   Internal MO 114
Process  5:   Internal MO  99
Process  9:   Internal MO 129
Process 13:   Internal MO 159
Process 11:   Internal MO 144
Process 12:   Internal MO 153
Process 14:   Internal MO 168
Process 10:   Internal MO 138
Process  8:   Internal MO 123
Process 15:   Internal MO 177
Process 11:   Internal MO 147
Process 13:   Internal MO 162
Process 14:   Internal MO 171
-----------------------------------------------
 MP2 CORRELATION ENERGY   :     -7.285450637 Eh
-----------------------------------------------


-------
TIMINGS
-------
Total time                : 2614.231 sec
Integral trafo            : 2332.330 sec ( 89.2%)
K(i,j)                    :   44.780 sec (  1.7%)
T(i,j)                    :    1.847 sec (  0.1%)

---------------------------------------
MP2 TOTAL ENERGY:    -2130.907703643 Eh
---------------------------------------

Maximum memory used throughout the entire MP2-calculation: 2275.2 MB

-------------------------   --------------------
FINAL SINGLE POINT ENERGY     -2130.907703642565
-------------------------   --------------------


                            ***************************************
                            *     ORCA property calculations      *
                            ***************************************


  WARNING: The energy has been calculated at the MP2 level but the densities
           used in the property calculations are still SCF densities
           MP2 response densities have not been calculated 
           use %mp2 Density relaxed end
           or  %mp2 Density unrelaxed end

                                    ---------------------
                                    Active property flags
                                    ---------------------
   (+) Dipole Moment


------------------------------------------------------------------------------
                       ORCA ELECTRIC PROPERTIES CALCULATION
------------------------------------------------------------------------------

Dipole Moment Calculation                       ... on
Quadrupole Moment Calculation                   ... off
Polarizability Calculation                      ... off
GBWName                                         ... /scratch/allen/tmpyp4_amber_gaff2/conf1/conf1/Conf224.orca.gbw
Electron density                                ... /scratch/allen/tmpyp4_amber_gaff2/conf1/conf1/Conf224.orca.scfp
The origin for moment calculation is the CENTER OF MASS  = ( 0.002195, -0.002520 -0.001323)

-------------
DIPOLE MOMENT
-------------
                                X             Y             Z
Electronic contribution:      1.46148      -3.01802      -0.14147
Nuclear contribution   :      0.07962       0.24067       0.14688
                        -----------------------------------------
Total Dipole Moment    :      1.54110      -2.77735       0.00541
                        -----------------------------------------
Magnitude (a.u.)       :      3.17627
Magnitude (Debye)      :      8.07344



--------------------
Rotational spectrum 
--------------------
 
Rotational constants in cm-1:     0.001500     0.001477     0.000761 
Rotational constants in MHz :    44.954150    44.270991    22.818919 

 Dipole components along the rotational axes: 
x,y,z [a.u.] :     2.250587    -2.241324     0.003569 
x,y,z [Debye]:     5.720538    -5.696992     0.009072 

 

Timings for individual modules:

Sum of individual times         ...     4374.095 sec (=  72.902 min)
GTO integral calculation        ...        3.745 sec (=   0.062 min)   0.1 %
SCF iterations                  ...     1737.437 sec (=  28.957 min)  39.7 %
MP2 module                      ...     2632.913 sec (=  43.882 min)  60.2 %
                             ****ORCA TERMINATED NORMALLY****
TOTAL RUN TIME: 0 days 1 hours 12 minutes 57 seconds 561 msec
# of primitive gaussian functions

