
                                 *****************
                                 * O   R   C   A *
                                 *****************

                                            #,                                       
                                            ###                                      
                                            ####                                     
                                            #####                                    
                                            ######                                   
                                           ########,                                 
                                     ,,################,,,,,                         
                               ,,#################################,,                 
                          ,,##########################################,,             
                       ,#########################################, ''#####,          
                    ,#############################################,,   '####,        
                  ,##################################################,,,,####,       
                ,###########''''           ''''###############################       
              ,#####''   ,,,,##########,,,,          '''####'''          '####       
            ,##' ,,,,###########################,,,                        '##       
           ' ,,###''''                  '''############,,,                           
         ,,##''                                '''############,,,,        ,,,,,,###''
      ,#''                                            '''#######################'''  
     '                                                          ''''####''''         
             ,#######,   #######,   ,#######,      ##                                
            ,#'     '#,  ##    ##  ,#'     '#,    #''#        ######   ,####,        
            ##       ##  ##   ,#'  ##            #'  '#       #        #'  '#        
            ##       ##  #######   ##           ,######,      #####,   #    #        
            '#,     ,#'  ##    ##  '#,     ,#' ,#      #,         ##   #,  ,#        
             '#######'   ##     ##  '#######'  #'      '#     #####' # '####'        



                  #######################################################
                  #                        -***-                        #
                  #          Department of theory and spectroscopy      #
                  #    Directorship and core code : Frank Neese         #
                  #        Max Planck Institute fuer Kohlenforschung    #
                  #                Kaiser Wilhelm Platz 1               #
                  #                 D-45470 Muelheim/Ruhr               #
                  #                      Germany                        #
                  #                                                     #
                  #                  All rights reserved                #
                  #                        -***-                        #
                  #######################################################


                         Program Version 5.0.4 -  RELEASE  -


 With contributions from (in alphabetic order):
   Daniel Aravena         : Magnetic Suceptibility
   Michael Atanasov       : Ab Initio Ligand Field Theory (pilot matlab implementation)
   Alexander A. Auer      : GIAO ZORA, VPT2 properties, NMR spectrum
   Ute Becker             : Parallelization
   Giovanni Bistoni       : ED, misc. LED, open-shell LED, HFLD
   Martin Brehm           : Molecular dynamics
   Dmytro Bykov           : SCF Hessian
   Vijay G. Chilkuri      : MRCI spin determinant printing, contributions to CSF-ICE
   Dipayan Datta          : RHF DLPNO-CCSD density
   Achintya Kumar Dutta   : EOM-CC, STEOM-CC
   Dmitry Ganyushin       : Spin-Orbit,Spin-Spin,Magnetic field MRCI
   Miquel Garcia          : C-PCM and meta-GGA Hessian, CC/C-PCM, Gaussian charge scheme
   Yang Guo               : DLPNO-NEVPT2, F12-NEVPT2, CIM, IAO-localization
   Andreas Hansen         : Spin unrestricted coupled pair/coupled cluster methods
   Benjamin Helmich-Paris : MC-RPA, TRAH-SCF, COSX integrals
   Lee Huntington         : MR-EOM, pCC
   Robert Izsak           : Overlap fitted RIJCOSX, COSX-SCS-MP3, EOM
   Marcus Kettner         : VPT2
   Christian Kollmar      : KDIIS, OOCD, Brueckner-CCSD(T), CCSD density, CASPT2, CASPT2-K
   Simone Kossmann        : Meta GGA functionals, TD-DFT gradient, OOMP2, MP2 Hessian
   Martin Krupicka        : Initial AUTO-CI
   Lucas Lang             : DCDCAS
   Marvin Lechner         : AUTO-CI (C++ implementation), FIC-MRCC
   Dagmar Lenk            : GEPOL surface, SMD
   Dimitrios Liakos       : Extrapolation schemes; Compound Job, initial MDCI parallelization
   Dimitrios Manganas     : Further ROCIS development; embedding schemes
   Dimitrios Pantazis     : SARC Basis sets
   Anastasios Papadopoulos: AUTO-CI, single reference methods and gradients
   Taras Petrenko         : DFT Hessian,TD-DFT gradient, ASA, ECA, R-Raman, ABS, FL, XAS/XES, NRVS
   Peter Pinski           : DLPNO-MP2, DLPNO-MP2 Gradient
   Christoph Reimann      : Effective Core Potentials
   Marius Retegan         : Local ZFS, SOC
   Christoph Riplinger    : Optimizer, TS searches, QM/MM, DLPNO-CCSD(T), (RO)-DLPNO pert. Triples
   Tobias Risthaus        : Range-separated hybrids, TD-DFT gradient, RPA, STAB
   Michael Roemelt        : Original ROCIS implementation
   Masaaki Saitow         : Open-shell DLPNO-CCSD energy and density
   Barbara Sandhoefer     : DKH picture change effects
   Avijit Sen             : IP-ROCIS
   Kantharuban Sivalingam : CASSCF convergence, NEVPT2, FIC-MRCI
   Bernardo de Souza      : ESD, SOC TD-DFT
   Georgi Stoychev        : AutoAux, RI-MP2 NMR, DLPNO-MP2 response
   Willem Van den Heuvel  : Paramagnetic NMR
   Boris Wezisla          : Elementary symmetry handling
   Frank Wennmohs         : Technical directorship


 We gratefully acknowledge several colleagues who have allowed us to
 interface, adapt or use parts of their codes:
   Stefan Grimme, W. Hujo, H. Kruse, P. Pracht,  : VdW corrections, initial TS optimization,
                  C. Bannwarth, S. Ehlert          DFT functionals, gCP, sTDA/sTD-DF
   Ed Valeev, F. Pavosevic, A. Kumar             : LibInt (2-el integral package), F12 methods
   Garnet Chan, S. Sharma, J. Yang, R. Olivares  : DMRG
   Ulf Ekstrom                                   : XCFun DFT Library
   Mihaly Kallay                                 : mrcc  (arbitrary order and MRCC methods)
   Jiri Pittner, Ondrej Demel                    : Mk-CCSD
   Frank Weinhold                                : gennbo (NPA and NBO analysis)
   Christopher J. Cramer and Donald G. Truhlar   : smd solvation model
   Lars Goerigk                                  : TD-DFT with DH, B97 family of functionals
   V. Asgeirsson, H. Jonsson                     : NEB implementation
   FAccTs GmbH                                   : IRC, NEB, NEB-TS, DLPNO-Multilevel, CI-OPT
                                                   MM, QMMM, 2- and 3-layer-ONIOM, Crystal-QMMM,
                                                   LR-CPCM, SF, NACMEs, symmetry and pop. for TD-DFT,
                                                   nearIR, NL-DFT gradient (VV10), updates on ESD,
                                                   ML-optimized integration grids
   S Lehtola, MJT Oliveira, MAL Marques          : LibXC Library
   Liviu Ungur et al                             : ANISO software


 Your calculation uses the libint2 library for the computation of 2-el integrals
 For citations please refer to: http://libint.valeyev.net

 Your ORCA version has been built with support for libXC version: 5.1.0
 For citations please refer to: https://tddft.org/programs/libxc/

 This ORCA versions uses:
   CBLAS   interface :  Fast vector & matrix operations
   LAPACKE interface :  Fast linear algebra routines
   SCALAPACK package :  Parallel linear algebra routines
   Shared memory     :  Shared parallel matrices
   BLAS/LAPACK       :  OpenBLAS 0.3.15  USE64BITINT DYNAMIC_ARCH NO_AFFINITY Sandybridge SINGLE_THREADED
        Core in use  :  Sandybridge
   Copyright (c) 2011-2014, The OpenBLAS Project


================================================================================

----- Orbital basis set information -----
Your calculation utilizes the basis: cc-pVDZ 
       H, B-Ne : Obtained from the ccRepo (grant-hill.group.shef.ac.uk/ccrepo) Feb. 2017
                 T. H. Dunning, Jr., J. Chem. Phys. 90, 1007 (1989)
            He : Obtained from the ccRepo (grant-hill.group.shef.ac.uk/ccrepo) Feb. 2017
                 D. E. Woon, T. H. Dunning, Jr., J. Chem. Phys. 100, 2975 (1994)
  Li-Be, Na-Mg : Obtained from the ccRepo (grant-hill.group.shef.ac.uk/ccrepo) Feb. 2017
                 B. P. Prascher, D. E. Woon, K. A. Peterson, T. H. Dunning, Jr., A. K. Wilson, Theor. Chem. Acc. 128, 69 (2011)
         Al-Ar : Obtained from the ccRepo (grant-hill.group.shef.ac.uk/ccrepo) Feb. 2017
                 D. E. Woon, T. H. Dunning, Jr., J. Chem. Phys. 98, 1358 (1993)
            Ca : Obtained from the Peterson Research Group Website (tyr0.chem.wsu.edu/~kipeters) Feb. 2017
                 J. Koput, K. A. Peterson, J. Phys. Chem. 106, 9595 (2002)
         Sc-Zn : Obtained from the ccRepo (grant-hill.group.shef.ac.uk/ccrepo) Feb. 2017
                 N. B. Balabanov, K. A. Peterson, J. Chem. Phys. 123, 064107 (2005)
                 N. B. Balabanov, K. A. Peterson, J. Chem. Phys. 125, 074110 (2006)
         Ga-Kr : Obtained from the ccRepo (grant-hill.group.shef.ac.uk/ccrepo) Feb. 2017
                 A. K. Wilson, D. E. Woon, K. A. Peterson, T. H. Dunning, Jr., J. Chem. Phys. 110, 7667 (1999)

================================================================================
                                        WARNINGS
                       Please study these warnings very carefully!
================================================================================


WARNING: No MP2 level density has been requested!
         To caclulate MP2 level properties use
         %mp2 Density relaxed end
         or
         %mp2 Density unrelaxed end

WARNING: Post HF methods need fully converged wavefunctions
  ===> : Setting SCFConvForced true
         You can overwrite this default with %scf ConvForced false 


INFO   : the flag for use of the SHARK integral package has been found!

================================================================================
                                       INPUT FILE
================================================================================
NAME = /scratch/allen/tmpyp4_amber_gaff2/2.Mdgx/conf11/conf11/Conf232.orca
|  1> ! PAL2
|  2> ! mp2 cc-pvdz TightSCF  NoKeepInts
|  3> 
|  4> %scf
|  5>   MaxCore 2000
|  6> end
|  7> %mp2
|  8>   MaxCore 2000
|  9> end
| 10> * xyz 0 1
| 11>    C       -4.61100         5.39900         0.96900
| 12>    C        1.47400         4.04100         0.05700
| 13>    C       -2.80200         4.09300         0.04900
| 14>    C       -2.58200         5.13500        -0.86500
| 15>    C       -3.37400         6.26600        -0.83100
| 16>    C       -5.17900         7.62500         0.10900
| 17>    C        0.13200         4.30700         0.06100
| 18>    C       -0.56900         3.05600         0.04700
| 19>    C        1.64900         2.61800         0.02300
| 20>    C       -3.84200         4.25200         0.97800
| 21>    N       -4.37300         6.38500         0.07400
| 22>    N        0.38800         2.06700         0.02500
| 23>    N       -2.01000         0.39500        -0.07500
| 24>    N       -0.38800        -2.07400        -0.02700
| 25>    N        2.01000        -0.40100         0.06500
| 26>    C       -1.96000         2.86100         0.02400
| 27>    C       -2.62300         1.61500        -0.01800
| 28>    C       -5.57300        -4.32900         1.06600
| 29>    C       -4.07300         1.47100         0.05600
| 30>    C       -4.10600        -2.75600        -0.02600
| 31>    C       -4.99500        -2.75700        -1.11100
| 32>    C       -6.13200        -3.54200        -1.07600
| 33>    C       -7.65100        -5.11300         0.04000
| 34>    C       -4.32400         0.14100         0.03700
| 35>    C       -3.02500        -0.52000        -0.04800
| 36>    C       -4.42200        -3.56600         1.07500
| 37>    N       -6.40700        -4.31300         0.00100
| 38>    C       -2.86700        -1.92200        -0.04000
| 39>    C       -1.65000        -2.62400        -0.02700
| 40>    C        3.56800        -6.14200        -1.04000
| 41>    C       -1.47600        -4.04900        -0.03400
| 42>    C        2.80300        -4.09900        -0.00800
| 43>    C        3.65700        -4.38400         1.06900
| 44>    C        4.42700        -5.53000         1.05900
| 45>    C        5.24500        -7.58800         0.01400
| 46>    C       -0.13400        -4.31500        -0.02200
| 47>    C        0.56800        -3.06400        -0.02700
| 48>    C        2.77500        -5.01200        -1.07400
| 49>    N        4.37600        -6.39100         0.01700
| 50>    C        1.95900        -2.86900        -0.00900
| 51>    C        2.62100        -1.62200         0.00900
| 52>    C        5.54300         4.33900        -1.13000
| 53>    C        4.07000        -1.47900        -0.09400
| 54>    C        4.10400         2.75100        -0.02100
| 55>    C        5.02700         2.72900         1.03600
| 56>    C        6.16600         3.50900         0.97800
| 57>    C        7.61900         5.15300        -0.11500
| 58>    C        4.32100        -0.14800        -0.09200
| 59>    C        3.02500         0.51400         0.01500
| 60>    C        4.38700         3.58200        -1.11500
| 61>    C        2.86600         1.91600         0.01300
| 62>    N        6.41300         4.29600        -0.09500
| 63>    H       -5.43000         5.55900         1.65900
| 64>    H        2.27400         4.76600         0.08100
| 65>    H       -1.78900         5.07600        -1.60000
| 66>    H       -3.23700         7.09800        -1.50900
| 67>    H       -4.66800         8.36400         0.73100
| 68>    H       -5.28800         8.00200        -0.90800
| 69>    H       -6.15800         7.39500         0.52900
| 70>    H       -0.33200         5.28200         0.06900
| 71>    H       -4.07000         3.47700         1.70100
| 72>    H        0.18200         1.07200         0.00500
| 73>    H       -0.18300        -1.08000        -0.02100
| 74>    H       -5.86400        -4.96200         1.89500
| 75>    H       -4.79400         2.27200         0.13900
| 76>    H       -4.80000        -2.16000        -1.99400
| 77>    H       -6.84100        -3.58200        -1.89300
| 78>    H       -8.42800        -4.53600         0.54600
| 79>    H       -7.95600        -5.33700        -0.98100
| 80>    H       -7.45600        -6.03700         0.58400
| 81>    H       -5.28700        -0.34400         0.10000
| 82>    H       -3.78000        -3.60100         1.94700
| 83>    H        3.58700        -6.86800        -1.84300
| 84>    H       -2.27600        -4.77400        -0.05000
| 85>    H        3.71400        -3.72400         1.92600
| 86>    H        5.09200        -5.79500         1.87100
| 87>    H        6.20500        -7.32900        -0.43900
| 88>    H        5.39300        -7.91700         1.04200
| 89>    H        4.75900        -8.37300        -0.56400
| 90>    H        0.32900        -5.29000        -0.00800
| 91>    H        2.14600        -4.84200        -1.94000
| 92>    H        5.80800         4.98600        -1.95600
| 93>    H        4.78800        -2.28100        -0.18500
| 94>    H        4.86000         2.11400         1.91200
| 95>    H        6.90100         3.53100         1.77200
| 96>    H        7.38300         6.10900         0.35600
| 97>    H        8.41400         4.65200         0.43500
| 98>    H        7.92100         5.31000        -1.15000
| 99>    H        5.28300         0.33600        -0.17900
|100>    H        3.72000         3.63200        -1.96700
|101> *
|102> 
|103>                          ****END OF INPUT****
================================================================================

                       ****************************
                       * Single Point Calculation *
                       ****************************

---------------------------------
CARTESIAN COORDINATES (ANGSTROEM)
---------------------------------
  C     -4.611000    5.399000    0.969000
  C      1.474000    4.041000    0.057000
  C     -2.802000    4.093000    0.049000
  C     -2.582000    5.135000   -0.865000
  C     -3.374000    6.266000   -0.831000
  C     -5.179000    7.625000    0.109000
  C      0.132000    4.307000    0.061000
  C     -0.569000    3.056000    0.047000
  C      1.649000    2.618000    0.023000
  C     -3.842000    4.252000    0.978000
  N     -4.373000    6.385000    0.074000
  N      0.388000    2.067000    0.025000
  N     -2.010000    0.395000   -0.075000
  N     -0.388000   -2.074000   -0.027000
  N      2.010000   -0.401000    0.065000
  C     -1.960000    2.861000    0.024000
  C     -2.623000    1.615000   -0.018000
  C     -5.573000   -4.329000    1.066000
  C     -4.073000    1.471000    0.056000
  C     -4.106000   -2.756000   -0.026000
  C     -4.995000   -2.757000   -1.111000
  C     -6.132000   -3.542000   -1.076000
  C     -7.651000   -5.113000    0.040000
  C     -4.324000    0.141000    0.037000
  C     -3.025000   -0.520000   -0.048000
  C     -4.422000   -3.566000    1.075000
  N     -6.407000   -4.313000    0.001000
  C     -2.867000   -1.922000   -0.040000
  C     -1.650000   -2.624000   -0.027000
  C      3.568000   -6.142000   -1.040000
  C     -1.476000   -4.049000   -0.034000
  C      2.803000   -4.099000   -0.008000
  C      3.657000   -4.384000    1.069000
  C      4.427000   -5.530000    1.059000
  C      5.245000   -7.588000    0.014000
  C     -0.134000   -4.315000   -0.022000
  C      0.568000   -3.064000   -0.027000
  C      2.775000   -5.012000   -1.074000
  N      4.376000   -6.391000    0.017000
  C      1.959000   -2.869000   -0.009000
  C      2.621000   -1.622000    0.009000
  C      5.543000    4.339000   -1.130000
  C      4.070000   -1.479000   -0.094000
  C      4.104000    2.751000   -0.021000
  C      5.027000    2.729000    1.036000
  C      6.166000    3.509000    0.978000
  C      7.619000    5.153000   -0.115000
  C      4.321000   -0.148000   -0.092000
  C      3.025000    0.514000    0.015000
  C      4.387000    3.582000   -1.115000
  C      2.866000    1.916000    0.013000
  N      6.413000    4.296000   -0.095000
  H     -5.430000    5.559000    1.659000
  H      2.274000    4.766000    0.081000
  H     -1.789000    5.076000   -1.600000
  H     -3.237000    7.098000   -1.509000
  H     -4.668000    8.364000    0.731000
  H     -5.288000    8.002000   -0.908000
  H     -6.158000    7.395000    0.529000
  H     -0.332000    5.282000    0.069000
  H     -4.070000    3.477000    1.701000
  H      0.182000    1.072000    0.005000
  H     -0.183000   -1.080000   -0.021000
  H     -5.864000   -4.962000    1.895000
  H     -4.794000    2.272000    0.139000
  H     -4.800000   -2.160000   -1.994000
  H     -6.841000   -3.582000   -1.893000
  H     -8.428000   -4.536000    0.546000
  H     -7.956000   -5.337000   -0.981000
  H     -7.456000   -6.037000    0.584000
  H     -5.287000   -0.344000    0.100000
  H     -3.780000   -3.601000    1.947000
  H      3.587000   -6.868000   -1.843000
  H     -2.276000   -4.774000   -0.050000
  H      3.714000   -3.724000    1.926000
  H      5.092000   -5.795000    1.871000
  H      6.205000   -7.329000   -0.439000
  H      5.393000   -7.917000    1.042000
  H      4.759000   -8.373000   -0.564000
  H      0.329000   -5.290000   -0.008000
  H      2.146000   -4.842000   -1.940000
  H      5.808000    4.986000   -1.956000
  H      4.788000   -2.281000   -0.185000
  H      4.860000    2.114000    1.912000
  H      6.901000    3.531000    1.772000
  H      7.383000    6.109000    0.356000
  H      8.414000    4.652000    0.435000
  H      7.921000    5.310000   -1.150000
  H      5.283000    0.336000   -0.179000
  H      3.720000    3.632000   -1.967000

----------------------------
CARTESIAN COORDINATES (A.U.)
----------------------------
  NO LB      ZA    FRAG     MASS         X           Y           Z
   0 C     6.0000    0    12.011   -8.713527   10.202631    1.831145
   1 C     6.0000    0    12.011    2.785456    7.636383    0.107714
   2 C     6.0000    0    12.011   -5.295013    7.734649    0.092597
   3 C     6.0000    0    12.011   -4.879273    9.703744   -1.634613
   4 C     6.0000    0    12.011   -6.375936   11.841024   -1.570362
   5 C     6.0000    0    12.011   -9.786892   14.409162    0.205980
   6 C     6.0000    0    12.011    0.249444    8.139050    0.115273
   7 C     6.0000    0    12.011   -1.075254    5.775003    0.088817
   8 C     6.0000    0    12.011    3.116158    4.947303    0.043464
   9 C     6.0000    0    12.011   -7.260328    8.035116    1.848152
  10 N     7.0000    0    14.007   -8.263772   12.065901    0.139840
  11 N     7.0000    0    14.007    0.733214    3.906064    0.047243
  12 N     7.0000    0    14.007   -3.798350    0.746442   -0.141729
  13 N     7.0000    0    14.007   -0.733214   -3.919292   -0.051023
  14 N     7.0000    0    14.007    3.798350   -0.757780    0.122832
  15 C     6.0000    0    12.011   -3.703863    5.406506    0.045353
  16 C     6.0000    0    12.011   -4.956752    3.051908   -0.034015
  17 C     6.0000    0    12.011  -10.531444   -8.180624    2.014448
  18 C     6.0000    0    12.011   -7.696855    2.779787    0.105825
  19 C     6.0000    0    12.011   -7.759216   -5.208085   -0.049133
  20 C     6.0000    0    12.011   -9.439182   -5.209975   -2.099486
  21 C     6.0000    0    12.011  -11.587801   -6.693410   -2.033345
  22 C     6.0000    0    12.011  -14.458295   -9.662170    0.075589
  23 C     6.0000    0    12.011   -8.171176    0.266451    0.069920
  24 C     6.0000    0    12.011   -5.716422   -0.982658   -0.090707
  25 C     6.0000    0    12.011   -8.356369   -6.738763    2.031456
  26 N     7.0000    0    14.007  -12.107475   -8.150389    0.001890
  27 C     6.0000    0    12.011   -5.417845   -3.632054   -0.075589
  28 C     6.0000    0    12.011   -3.118048   -4.958641   -0.051023
  29 C     6.0000    0    12.011    6.742543  -11.606698   -1.965315
  30 C     6.0000    0    12.011   -2.789236   -7.651501   -0.064251
  31 C     6.0000    0    12.011    5.296902   -7.745987   -0.015118
  32 C     6.0000    0    12.011    6.910728   -8.284559    2.020117
  33 C     6.0000    0    12.011    8.365818  -10.450186    2.001220
  34 C     6.0000    0    12.011    9.911614  -14.339242    0.026456
  35 C     6.0000    0    12.011   -0.253223   -8.154168   -0.041574
  36 C     6.0000    0    12.011    1.073364   -5.790121   -0.051023
  37 C     6.0000    0    12.011    5.243990   -9.471307   -2.029566
  38 N     7.0000    0    14.007    8.269442  -12.077240    0.032125
  39 C     6.0000    0    12.011    3.701973   -5.421624   -0.017008
  40 C     6.0000    0    12.011    4.952972   -3.065136    0.017008
  41 C     6.0000    0    12.011   10.474752    8.199522   -2.135391
  42 C     6.0000    0    12.011    7.691185   -2.794905   -0.177634
  43 C     6.0000    0    12.011    7.755436    5.198637   -0.039684
  44 C     6.0000    0    12.011    9.499653    5.157063    1.957756
  45 C     6.0000    0    12.011   11.652051    6.631049    1.848152
  46 C     6.0000    0    12.011   14.397823    9.737759   -0.217319
  47 C     6.0000    0    12.011    8.165507   -0.279679   -0.173855
  48 C     6.0000    0    12.011    5.716422    0.971319    0.028346
  49 C     6.0000    0    12.011    8.290229    6.768999   -2.107045
  50 C     6.0000    0    12.011    5.415955    3.620715    0.024566
  51 N     7.0000    0    14.007   12.118814    8.118263   -0.179524
  52 H     1.0000    0     1.008  -10.261213   10.504988    3.135056
  53 H     1.0000    0     1.008    4.297237    9.006435    0.153068
  54 H     1.0000    0     1.008   -3.380720    9.592250   -3.023562
  55 H     1.0000    0     1.008   -6.117043   13.413276   -2.851597
  56 H     1.0000    0     1.008   -8.821242   15.805669    1.381390
  57 H     1.0000    0     1.008   -9.992872   15.121589   -1.715871
  58 H     1.0000    0     1.008  -11.636934   13.974525    0.999665
  59 H     1.0000    0     1.008   -0.627389    9.981533    0.130391
  60 H     1.0000    0     1.008   -7.691185    6.570578    3.214424
  61 H     1.0000    0     1.008    0.343930    2.025786    0.009449
  62 H     1.0000    0     1.008   -0.345820   -2.040904   -0.039684
  63 H     1.0000    0     1.008  -11.081354   -9.376821    3.581031
  64 H     1.0000    0     1.008   -9.059347    4.293458    0.262672
  65 H     1.0000    0     1.008   -9.070685   -4.081808   -3.768114
  66 H     1.0000    0     1.008  -12.927616   -6.768999   -3.577252
  67 H     1.0000    0     1.008  -15.926612   -8.571798    1.031790
  68 H     1.0000    0     1.008  -15.034661  -10.085468   -1.853821
  69 H     1.0000    0     1.008  -14.089798  -11.408277    1.103600
  70 H     1.0000    0     1.008   -9.990982   -0.650066    0.188973
  71 H     1.0000    0     1.008   -7.143165   -6.804904    3.679297
  72 H     1.0000    0     1.008    6.778448  -12.978639   -3.482765
  73 H     1.0000    0     1.008   -4.301017   -9.021553   -0.094486
  74 H     1.0000    0     1.008    7.018443   -7.037340    3.639613
  75 H     1.0000    0     1.008    9.622485  -10.950963    3.535678
  76 H     1.0000    0     1.008   11.725751  -13.849803   -0.829590
  77 H     1.0000    0     1.008   10.191293  -14.960962    1.969095
  78 H     1.0000    0     1.008    8.993207  -15.822677   -1.065806
  79 H     1.0000    0     1.008    0.621720   -9.996651   -0.015118
  80 H     1.0000    0     1.008    4.055352   -9.150054   -3.666069
  81 H     1.0000    0     1.008   10.975529    9.422175   -3.696304
  82 H     1.0000    0     1.008    9.048009   -4.310465   -0.349599
  83 H     1.0000    0     1.008    9.184069    3.994881    3.613156
  84 H     1.0000    0     1.008   13.041000    6.672623    3.348595
  85 H     1.0000    0     1.008   13.951848   11.544337    0.672743
  86 H     1.0000    0     1.008   15.900156    8.791006    0.822031
  87 H     1.0000    0     1.008   14.968521   10.034446   -2.173185
  88 H     1.0000    0     1.008    9.983423    0.634948   -0.338261
  89 H     1.0000    0     1.008    7.029781    6.863485   -3.717091

--------------------------------
INTERNAL COORDINATES (ANGSTROEM)
--------------------------------
 C      0   0   0     0.000000000000     0.00000000     0.00000000
 C      1   0   0     6.301042215380     0.00000000     0.00000000
 C      1   2   0     2.413403613157    26.40591545     0.00000000
 C      3   1   2     1.403410132499    87.93588751   285.38228987
 C      4   3   1     1.381152055351   120.13746449     0.14636419
 C      5   4   3     2.447142415145   152.52066067     1.61660653
 C      2   1   3     1.368114030335     8.26793305    45.56680985
 C      7   2   3     1.434084376876   108.05010202     0.84668783
 C      2   1   3     1.434123425651   109.57993229   323.60791256
 C      1   2   7     1.380960173213    44.28877008    89.60610475
 N      1   2   7     1.352725027491    83.76658914   301.48096599
 N      9   2   1     1.376127174356   106.58526707     7.85896334
 N     12   9   2     2.925062050624   168.53581413   171.12065651
 N     13  12   9     2.954513327098    91.55032014    11.12112580
 N     14  13  12     2.925371258490    88.43092389   359.84326247
 C      8   7   2     1.404790019896   127.24786865   181.11170171
 C     13  12   9     1.366535034311    81.72106996   188.00453233
 C     14  13  12     5.758810554272    80.56209567   166.76250791
 C     17  13  12     1.459010623676   111.08861209   183.82872609
 C     18  14  13     2.412235892279    27.27532823    36.33507194
 C     20  18  14     1.402692767501    87.95206320   148.94598259
 C     21  20  18     1.382106725257   120.14573887   359.70382047
 C     18  14  13     2.446510985056   144.15733107    82.80075377
 C     19  17  13     1.353610726908   106.29293361   359.75308708
 C     13  12   9     1.366813447402   172.21332906    33.46711076
 C     18  14  13     1.380960173213    15.08449437   309.23336894
 N     22  21  20     1.352773077792   120.73759875     0.27865223
 C     25  13  17     1.410897586645   125.60330303   182.37774668
 C     14  13  12     1.376642291955    80.24689249   177.85461986
 C     14  13  12     5.764089607215   164.51507311   312.20821879
 C     29  14  13     1.435600919476   106.58649366   178.76395472
 C     30  14  13     2.413316804732    27.10625047    82.12560436
 C     32  30  14     1.403734305344    87.90059683   149.76154742
 C     33  32  30     1.380694028378   120.14881443   359.74174632
 C     34  33  32     2.448777858443   152.49203239     2.45173620
 C     31  29  14     1.368160809262   108.16950133     0.70383075
 C     14  13  12     1.376239804685   169.26375223   353.09862627
 C     30  14  13     1.380907310430    14.68948582   353.70041132
 N     34  33  32     1.352658863128   120.85575621     0.19603406
 C     37  14  29     1.404717053360   126.01551127   180.90772073
 C     15  14  13     1.366491126938    81.61824056   183.09049352
 C      2   1   3     4.249062720177   161.82485976   117.77309812
 C     41  15  14     1.459677704153   111.05201287   175.08990246
 C     42   2   1     2.412953791518    41.78584867   180.63448211
 C     44  42   2     1.403446472082    87.95153797   233.97558675
 C     45  44  42     1.381696421071   120.11137308     0.19721020
 C     42   2   1     2.450019795838   135.97209175    90.94933121
 C     43  41  15     1.354461516618   106.26758155     0.30894352
 C     15  14  13     1.367461151185   171.87382904   332.35056460
 C     42   2   1     1.381886391857    32.59078432   229.48976130
 C      9   2   1     1.404988612053   126.98745415   188.86330087
 N     42   2   1     1.352765315936   113.57249190   118.68592040
 H      1   2   7     1.082802382709   148.70626219   168.16945346
 H      2   1   3     1.079907866440   124.57589939   152.49182807
 H      4   3   1     1.082845787728   121.09155997   179.55196279
 H      5   4   3     1.081978280743   122.79634949   179.46267985
 H      6   5   4     1.092760724038   104.43526665   100.11557713
 H      6   5   4     1.090091280582    84.68957215   209.54992233
 H      6   5   4     1.089835308659   133.90103341   322.39372490
 H      7   2  54     1.079807853278   126.66122480     1.30600390
 H     10   1   2     1.084130065998   118.74966219   143.14544391
 H     12   9   2     1.016297692608   125.29023241   180.00180175
 H     14  13  12     1.014936943854    44.97226959   359.42596618
 H     18  14  13     1.082871645210   128.03556573   234.20482432
 H     19  17  13     1.080893611786   126.41830519   178.11313280
 H     21  20  18     1.083569563987   121.05669627   180.67006309
 H     22  21  20     1.082483256222   122.73097286   180.59748951
 H     23  18  14     1.092105306278   103.92715769   234.93429879
 H     23  18  14     1.088871893291   134.19244188    12.25587044
 H     23  18  14     1.089833473518    84.85857450   125.45241208
 H     24  19  17     1.080075460327   127.28078426   178.44613241
 H     26  18  14     1.083408048706   118.76995697   244.94906660
 H     30  14  13     1.082703098730   127.99711412   279.66882698
 H     31  29  14     1.079759695488   125.22293469   180.92530585
 H     33  32  30     1.083188810873   121.01964473   180.74284758
 H     34  33  32     1.082494341787   122.70821597   180.59516895
 H     35  34  33     1.092652735319   105.73575241    97.19771933
 H     35  34  33     1.089462711615    84.05943581   206.43036958
 H     35  34  33     1.089268102902   133.08365142   318.50306270
 H     36  31  29     1.079439669458   126.61599965   178.98859863
 H     38  30  73     1.083742127999   118.77264435   359.90091293
 H     42   2   1     1.082178358682   119.31790784   335.31745086
 H     43  41  15     1.080281907652   126.36969097   182.06329380
 H     45  44  42     1.083277434455   121.10105945   179.58025624
 H     46  45  44     1.082194529648   122.72144639   179.46906377
 H     47  42   2     1.091546151109   106.65128841   315.16475048
 H     47  42   2     1.088818625851   132.46019523    94.52397119
 H     47  42   2     1.089531091801    83.63838232   206.04504406
 H     48  43  41     1.080402239909   127.23657387   181.62955349
 H     50  42   2     1.083186502870   118.77001737    94.71359229

---------------------------
INTERNAL COORDINATES (A.U.)
---------------------------
 C      0   0   0     0.000000000000     0.00000000     0.00000000
 C      1   0   0    11.907244145345     0.00000000     0.00000000
 C      1   2   0     4.560671879483    26.40591545     0.00000000
 C      3   1   2     2.652060803993    87.93588751   285.38228987
 C      4   3   1     2.609999133916   120.13746449     0.14636419
 C      5   4   3     4.624428975326   152.52066067     1.61660653
 C      2   1   3     2.585360837309     8.26793305    45.56680985
 C      7   2   3     2.710026725231   108.05010202     0.84668783
 C      2   1   3     2.710100516721   109.57993229   323.60791256
 C      1   2   7     2.609636529225    44.28877008    89.60610475
 N      1   2   7     2.556279836459    83.76658914   301.48096599
 N      9   2   1     2.600503484979   106.58526707     7.85896334
 N     12   9   2     5.527566200405   168.53581413   171.12065651
 N     13  12   9     5.583221047236    91.55032014    11.12112580
 N     14  13  12     5.528150518591    88.43092389   359.84326247
 C      8   7   2     2.654668413270   127.24786865   181.11170171
 C     13  12   9     2.582376967257    81.72106996   188.00453233
 C     14  13  12    10.882574804710    80.56209567   166.76250791
 C     17  13  12     2.757130505230   111.08861209   183.82872609
 C     18  14  13     4.558465206823    27.27532823    36.33507194
 C     20  18  14     2.650705180609    87.95206320   148.94598259
 C     21  20  18     2.611803198586   120.14573887   359.70382047
 C     18  14  13     4.623235745386   144.15733107    82.80075377
 C     19  17  13     2.557953565794   106.29293361   359.75308708
 C     13  12   9     2.582903091751   172.21332906    33.46711076
 C     18  14  13     2.609636529225    15.08449437   309.23336894
 N     22  21  20     2.556370638369   120.73759875     0.27865223
 C     25  13  17     2.666210041769   125.60330303   182.37774668
 C     14  13  12     2.601476916169    80.24689249   177.85461986
 C     14  13  12    10.892550769017   164.51507311   312.20821879
 C     29  14  13     2.712892575415   106.58649366   178.76395472
 C     30  14  13     4.560507835333    27.10625047    82.12560436
 C     32  30  14     2.652673401891    87.90059683   149.76154742
 C     33  32  30     2.609133588376   120.14881443   359.74174632
 C     34  33  32     4.627519515267   152.49203239     2.45173620
 C     31  29  14     2.585449236669   108.16950133     0.70383075
 C     14  13  12     2.600716325456   169.26375223   353.09862627
 C     30  14  13     2.609536633043    14.68948582   353.70041132
 N     34  33  32     2.556154803934   120.85575621     0.19603406
 C     37  14  29     2.654530526499   126.01551127   180.90772073
 C     15  14  13     2.582293994346    81.61824056   183.09049352
 C      2   1   3     8.029564866989   161.82485976   117.77309812
 C     41  15  14     2.758391104639   111.05201287   175.08990246
 C     42   2   1     4.559821839776    41.78584867   180.63448211
 C     44  42   2     2.652129475853    87.95153797   233.97558675
 C     45  44  42     2.611027836043   120.11137308     0.19721020
 C     42   2   1     4.629866436820   135.97209175    90.94933121
 C     43  41  15     2.559561325344   106.26758155     0.30894352
 C     15  14  13     2.584127074516   171.87382904   332.35056460
 C     42   2   1     2.611386828803    32.59078432   229.48976130
 C      9   2   1     2.655043698059   126.98745415   188.86330087
 N     42   2   1     2.556355970587   113.57249190   118.68592040
 H      1   2   7     2.046199960477   148.70626219   168.16945346
 H      2   1   3     2.040730117440   124.57589939   152.49182807
 H      4   3   1     2.046281984076   121.09155997   179.55196279
 H      5   4   3     2.044642633456   122.79634949   179.46267985
 H      6   5   4     2.065018498337   104.43526665   100.11557713
 H      6   5   4     2.059973981275    84.68957215   209.54992233
 H      6   5   4     2.059490264443   133.90103341   322.39372490
 H      7   2  54     2.040541119952   126.66122480     1.30600390
 H     10   1   2     2.048708918285   118.74966219   143.14544391
 H     12   9   2     1.920524309565   125.29023241   180.00180175
 H     14  13  12     1.917952867083    44.97226959   359.42596618
 H     18  14  13     2.046330847636   128.03556573   234.20482432
 H     19  17  13     2.042592906181   126.41830519   178.11313280
 H     21  20  18     2.047649722989   121.05669627   180.67006309
 H     22  21  20     2.045596898814   122.73097286   180.59748951
 H     23  18  14     2.063779938267   103.92715769   234.93429879
 H     23  18  14     2.057669673245   134.19244188    12.25587044
 H     23  18  14     2.059486796529    84.85857450   125.45241208
 H     24  19  17     2.041046823986   127.28078426   178.44613241
 H     26  18  14     2.047344503340   118.76995697   244.94906660
 H     30  14  13     2.046012340948   127.99711412   279.66882698
 H     31  29  14     2.040450114918   125.22293469   180.92530585
 H     33  32  30     2.046930203877   121.01964473   180.74284758
 H     34  33  32     2.045617847496   122.70821597   180.59516895
 H     35  34  33     2.064814429233   105.73575241    97.19771933
 H     35  34  33     2.058786158072    84.05943581   206.43036958
 H     35  34  33     2.058418400901   133.08365142   318.50306270
 H     36  31  29     2.039845353366   126.61599965   178.98859863
 H     38  30  73     2.047975821711   118.77264435   359.90091293
 H     42   2   1     2.045020725966   119.31790784   335.31745086
 H     43  41  15     2.041436952892   126.36969097   182.06329380
 H     45  44  42     2.047097678177   121.10105945   179.58025624
 H     46  45  44     2.045051284662   122.72144639   179.46906377
 H     47  42   2     2.062723288131   106.65128841   315.16475048
 H     47  42   2     2.057569012371   132.46019523    94.52397119
 H     47  42   2     2.058915377895    83.63838232   206.04504406
 H     48  43  41     2.041664347903   127.23657387   181.62955349
 H     50  42   2     2.046925842384   118.77001737    94.71359229

---------------------
BASIS SET INFORMATION
---------------------
There are 3 groups of distinct atoms

 Group   1 Type C   : 17s4p1d contracted to 3s2p1d pattern {881/31/1}
 Group   2 Type N   : 17s4p1d contracted to 3s2p1d pattern {881/31/1}
 Group   3 Type H   : 4s1p contracted to 2s1p pattern {31/1}

Atom   0C    basis set group =>   1
Atom   1N    basis set group =>   2
Atom   2C    basis set group =>   1
Atom   3N    basis set group =>   2
Atom   4C    basis set group =>   1
Atom   5N    basis set group =>   2
Atom   6C    basis set group =>   1
Atom   7N    basis set group =>   2
Atom   8C    basis set group =>   1
Atom   9N    basis set group =>   2
Atom  10C    basis set group =>   1
Atom  11N    basis set group =>   2
Atom  12C    basis set group =>   1
Atom  13N    basis set group =>   2
Atom  14C    basis set group =>   1
Atom  15N    basis set group =>   2
Atom  16C    basis set group =>   1
Atom  17C    basis set group =>   1
Atom  18C    basis set group =>   1
Atom  19C    basis set group =>   1
Atom  20C    basis set group =>   1
Atom  21C    basis set group =>   1
Atom  22C    basis set group =>   1
Atom  23C    basis set group =>   1
Atom  24C    basis set group =>   1
Atom  25C    basis set group =>   1
Atom  26C    basis set group =>   1
Atom  27C    basis set group =>   1
Atom  28C    basis set group =>   1
Atom  29C    basis set group =>   1
Atom  30C    basis set group =>   1
Atom  31C    basis set group =>   1
Atom  32C    basis set group =>   1
Atom  33C    basis set group =>   1
Atom  34C    basis set group =>   1
Atom  35C    basis set group =>   1
Atom  36C    basis set group =>   1
Atom  37C    basis set group =>   1
Atom  38C    basis set group =>   1
Atom  39C    basis set group =>   1
Atom  40C    basis set group =>   1
Atom  41C    basis set group =>   1
Atom  42C    basis set group =>   1
Atom  43C    basis set group =>   1
Atom  44C    basis set group =>   1
Atom  45C    basis set group =>   1
Atom  46C    basis set group =>   1
Atom  47C    basis set group =>   1
Atom  48C    basis set group =>   1
Atom  49C    basis set group =>   1
Atom  50C    basis set group =>   1
Atom  51C    basis set group =>   1
Atom  52H    basis set group =>   3
Atom  53H    basis set group =>   3
Atom  54H    basis set group =>   3
Atom  55H    basis set group =>   3
Atom  56H    basis set group =>   3
Atom  57H    basis set group =>   3
Atom  58H    basis set group =>   3
Atom  59H    basis set group =>   3
Atom  60H    basis set group =>   3
Atom  61H    basis set group =>   3
Atom  62H    basis set group =>   3
Atom  63H    basis set group =>   3
Atom  64H    basis set group =>   3
Atom  65H    basis set group =>   3
Atom  66H    basis set group =>   3
Atom  67H    basis set group =>   3
Atom  68H    basis set group =>   3
Atom  69H    basis set group =>   3
Atom  70H    basis set group =>   3
Atom  71H    basis set group =>   3
Atom  72H    basis set group =>   3
Atom  73H    basis set group =>   3
Atom  74H    basis set group =>   3
Atom  75H    basis set group =>   3
Atom  76H    basis set group =>   3
Atom  77H    basis set group =>   3
Atom  78H    basis set group =>   3
Atom  79H    basis set group =>   3
Atom  80H    basis set group =>   3
Atom  81H    basis set group =>   3
Atom  82H    basis set group =>   3
Atom  83H    basis set group =>   3
Atom  84H    basis set group =>   3
Atom  85H    basis set group =>   3
Atom  86H    basis set group =>   3
Atom  87H    basis set group =>   3
Atom  88H    basis set group =>   3
Atom  89H    basis set group =>   3


           ************************************************************
           *        Program running with 16 parallel MPI-processes    *
           *              working on a common directory               *
           ************************************************************
------------------------------------------------------------------------------
                           ORCA GTO INTEGRAL CALCULATION
------------------------------------------------------------------------------
------------------------------------------------------------------------------
                   ___                                                        
                  /   \      - P O W E R E D   B Y -                         
                 /     \                                                     
                 |  |  |   _    _      __       _____    __    __             
                 |  |  |  | |  | |    /  \     |  _  \  |  |  /  |          
                  \  \/   | |  | |   /    \    | | | |  |  | /  /          
                 / \  \   | |__| |  /  /\  \   | |_| |  |  |/  /          
                |  |  |   |  __  | /  /__\  \  |    /   |      \           
                |  |  |   | |  | | |   __   |  |    \   |  |\   \          
                \     /   | |  | | |  |  |  |  | |\  \  |  | \   \       
                 \___/    |_|  |_| |__|  |__|  |_| \__\ |__|  \__/        
                                                                              
                      - O R C A' S   B I G   F R I E N D -                    
                                      &                                       
                       - I N T E G R A L  F E E D E R -                       
                                                                              
 v1 FN, 2020, v2 2021                                                         
------------------------------------------------------------------------------


Reading SHARK input file /scratch/allen/tmpyp4_amber_gaff2/conf1/conf1/Conf232.orca.SHARKINP.tmp ... ok
----------------------
SHARK INTEGRAL PACKAGE
----------------------

Number of atoms                             ...     90
Number of basis functions                   ...   1230
Number of shells                            ...    738
Maximum angular momentum                    ...      2
Integral batch strategy                     ... SHARK/LIBINT Hybrid
RI-J (if used) integral strategy            ... SPLIT-RIJ (Revised 2003 algorithm where possible)
Printlevel                                  ...      1
Contraction scheme used                     ... PARTIAL GENERAL contraction
Coulomb Range Separation                    ... NOT USED
Exchange Range Separation                   ... NOT USED
Finite Nucleus Model                        ... NOT USED
Auxiliary Coulomb fitting basis             ... NOT available
Auxiliary J/K fitting basis                 ... NOT available
Auxiliary Correlation fitting basis         ... NOT available
Auxiliary 'external' fitting basis          ... NOT available
Integral threshold                          ...     2.500000e-11
Primitive cut-off                           ...     2.500000e-12
Primitive pair pre-selection threshold      ...     2.500000e-12

Calculating pre-screening integrals         ... done (  0.1 sec) Dimension = 738
Calculating pre-screening integrals (ORCA)  ... done (  0.3 sec) Dimension = 426
Organizing shell pair data                  ... done (  0.7 sec)
Shell pair information
Total number of shell pairs                 ...    272691
Shell pairs after pre-screening             ...     71616
Total number of primitive shell pairs       ...    422091
Primitive shell pairs kept                  ...     92399
          la=0 lb=0:  29419 shell pairs
          la=1 lb=0:  25971 shell pairs
          la=1 lb=1:   4703 shell pairs
          la=2 lb=0:   7868 shell pairs
          la=2 lb=1:   3124 shell pairs
          la=2 lb=2:    531 shell pairs

Calculating one electron integrals          ... done (  0.2 sec)
Calculating Nuclear repulsion               ... done (  0.0 sec) ENN=   6226.745100429099 Eh

SHARK setup successfully completed in   2.5 seconds

Maximum memory used throughout the entire GTOINT-calculation: 99.0 MB


           ************************************************************
           *        Program running with 16 parallel MPI-processes    *
           *              working on a common directory               *
           ************************************************************
-------------------------------------------------------------------------------
                                 ORCA SCF
-------------------------------------------------------------------------------

------------
SCF SETTINGS
------------
Hamiltonian:
 Ab initio Hamiltonian  Method          .... Hartree-Fock(GTOs)


General Settings:
 Integral files         IntName         .... /scratch/allen/tmpyp4_amber_gaff2/conf1/conf1/Conf232.orca
 Hartree-Fock type      HFTyp           .... RHF
 Total Charge           Charge          ....    0
 Multiplicity           Mult            ....    1
 Number of Electrons    NEL             ....  358
 Basis Dimension        Dim             ....  918
 Nuclear Repulsion      ENuc            ....   6226.7451004291 Eh

Convergence Acceleration:
 DIIS                   CNVDIIS         .... on
   Start iteration      DIISMaxIt       ....    12
   Startup error        DIISStart       ....  0.200000
   # of expansion vecs  DIISMaxEq       ....     5
   Bias factor          DIISBfac        ....   1.050
   Max. coefficient     DIISMaxC        ....  10.000
 Trust-Rad. Augm. Hess. CNVTRAH         .... auto
   Auto Start mean grad. ratio tolernc. ....  1.125000
   Auto Start start iteration           ....    20
   Auto Start num. interpolation iter.  ....    10
   Max. Number of Micro iterations      ....    16
   Max. Number of Macro iterations      .... Maxiter - #DIIS iter
   Number of Davidson start vectors     ....     2
   Converg. threshold I  (grad. norm)   ....   1.000e-05
   Converg. threshold II (energy diff.) ....   1.000e-08
   Grad. Scal. Fac. for Micro threshold ....   0.100
   Minimum threshold for Micro iter.    ....   0.010
   NR start threshold (gradient norm)   ....   0.001
   Initial trust radius                 ....   0.400
   Minimum AH scaling param. (alpha)    ....   1.000
   Maximum AH scaling param. (alpha)    .... 1000.000
   Orbital update algorithm             .... Taylor
   White noise on init. David. guess    .... on
   Maximum white noise                  ....   0.010
   Quad. conv. algorithm                .... NR
 SOSCF                  CNVSOSCF        .... on
   Start iteration      SOSCFMaxIt      ....   150
   Startup grad/error   SOSCFStart      ....  0.003300
 Level Shifting         CNVShift        .... on
   Level shift para.    LevelShift      ....    0.2500
   Turn off err/grad.   ShiftErr        ....    0.0010
 Zerner damping         CNVZerner       .... off
 Static damping         CNVDamp         .... on
   Fraction old density DampFac         ....    0.7000
   Max. Damping (<1)    DampMax         ....    0.9800
   Min. Damping (>=0)   DampMin         ....    0.0000
   Turn off err/grad.   DampErr         ....    0.1000
 Fernandez-Rico         CNVRico         .... off

SCF Procedure:
 Maximum # iterations   MaxIter         ....   125
 SCF integral mode      SCFMode         .... Direct
   Integral package                     .... SHARK and LIBINT hybrid scheme
 Reset frequency        DirectResetFreq ....    20
 Integral Threshold     Thresh          ....  2.500e-11 Eh
 Primitive CutOff       TCut            ....  2.500e-12 Eh

Convergence Tolerance:
 Convergence Check Mode ConvCheckMode   .... Total+1el-Energy
 Convergence forced     ConvForced      .... 1
 Energy Change          TolE            ....  1.000e-08 Eh
 1-El. energy change                    ....  1.000e-05 Eh
 Orbital Gradient       TolG            ....  1.000e-05
 Orbital Rotation angle TolX            ....  1.000e-05
 DIIS Error             TolErr          ....  5.000e-07


Diagonalization of the overlap matrix:
Smallest eigenvalue                        ... 2.241e-04
Time for diagonalization                   ...    0.424 sec
Threshold for overlap eigenvalues          ... 1.000e-08
Number of eigenvalues below threshold      ... 0
Time for construction of square roots      ...    0.269 sec
Total time needed                          ...    0.699 sec

Time for model grid setup =    1.291 sec

------------------------------
INITIAL GUESS: MODEL POTENTIAL
------------------------------
Loading Hartree-Fock densities                     ... done
Calculating cut-offs                               ... done
Initializing the effective Hamiltonian             ... done
Setting up the integral package (SHARK)            ... done
Starting the Coulomb interaction                   ... done (   1.5 sec)
Reading the grid                                   ... done
Mapping shells                                     ... done
Starting the XC term evaluation                    ... done (   0.2 sec)
Transforming the Hamiltonian                       ... done (   0.3 sec)
Diagonalizing the Hamiltonian                      ... done (   0.4 sec)
Back transforming the eigenvectors                 ... done (   0.1 sec)
Now organizing SCF variables                       ... done
                      ------------------
                      INITIAL GUESS DONE (   3.8 sec)
                      ------------------
--------------
SCF ITERATIONS
--------------
ITER       Energy         Delta-E        Max-DP      RMS-DP      [F,P]     Damp
               ***  Starting incremental Fock matrix formation  ***
  0  -2121.6789852997   0.000000000000 0.06891323  0.00121147  0.2328546 0.7000
  1  -2122.3421271201  -0.663141820332 0.05226306  0.00098409  0.1440977 0.7000
                               ***Turning on DIIS***
  2  -2122.7539615525  -0.411834432482 0.11600227  0.00222990  0.0802412 0.0000
  3  -2117.7700974709   4.983864081632 0.03055936  0.00068261  0.0441956 0.0000
  4  -2123.4162786369  -5.646181166036 0.00925724  0.00022862  0.0070477 0.0000
  5  -2123.5923459248  -0.176067287848 0.00520596  0.00013515  0.0049332 0.0000
  6  -2123.5755571719   0.016788752881 0.00343572  0.00008744  0.0019685 0.0000
  7  -2123.6795897807  -0.104032608751 0.00289832  0.00006892  0.0015150 0.0000
  8  -2123.6965949153  -0.017005134661 0.00289669  0.00006466  0.0014132 0.0000
  9  -2123.6616390671   0.034955848258 0.00231912  0.00004406  0.0011193 0.0000
 10  -2123.6750215091  -0.013382442075 0.00474441  0.00008698  0.0008556 0.0000
                      *** Initiating the SOSCF procedure ***
                           *** Shutting down DIIS ***
                      *** Re-Reading the Fockian *** 
                      *** Removing any level shift *** 
ITER      Energy       Delta-E        Grad      Rot      Max-DP    RMS-DP
 11  -2123.55920979   0.1158117172  0.000300  0.000300  0.000283  0.000006
               *** Restarting incremental Fock matrix formation ***
 12  -2123.62442776  -0.0652179685  0.000942  0.006375  0.001134  0.000028
 13  -2123.62449694  -0.0000691822  0.001016  0.026966  0.004700  0.000096
 14  -2123.62459092  -0.0000939817  0.000449  0.002162  0.000545  0.000011
 15  -2123.62460361  -0.0000126886  0.000158  0.002496  0.000778  0.000012
 16  -2123.62460986  -0.0000062486  0.000116  0.003806  0.000740  0.000015
 17  -2123.62461383  -0.0000039698  0.000130  0.003035  0.000503  0.000011
 18  -2123.62461585  -0.0000020187  0.000065  0.001655  0.000239  0.000006
 19  -2123.62461698  -0.0000011345  0.000062  0.000653  0.000183  0.000004
 20  -2123.62461738  -0.0000003925  0.000031  0.000563  0.000141  0.000002
 21  -2123.62461754  -0.0000001583  0.000024  0.000268  0.000066  0.000001
 22  -2123.62461763  -0.0000000970  0.000018  0.000441  0.000109  0.000002
 23  -2123.62461771  -0.0000000755  0.000011  0.000210  0.000054  0.000001
 24  -2123.62461773  -0.0000000220  0.000006  0.000146  0.000035  0.000001
 25  -2123.62461775  -0.0000000156  0.000005  0.000086  0.000024  0.000000
 26  -2123.62461775  -0.0000000089  0.000003  0.000067  0.000018  0.000000
                  ***Gradient check signals convergence***
              ***Rediagonalizing the Fockian in SOSCF/NRSCF***

               *****************************************************
               *                     SUCCESS                       *
               *           SCF CONVERGED AFTER  27 CYCLES          *
               *****************************************************


----------------
TOTAL SCF ENERGY
----------------

Total Energy       :        -2123.62461776 Eh          -57786.76367 eV

Components:
Nuclear Repulsion  :         6226.74510043 Eh          169438.34826 eV
Electronic Energy  :        -8350.36971819 Eh         -227225.11193 eV
One Electron Energy:       -15294.51881364 Eh         -416185.01536 eV
Two Electron Energy:         6944.14909545 Eh          188959.90342 eV

Virial components:
Potential Energy   :        -4245.65353964 Eh         -115530.10625 eV
Kinetic Energy     :         2122.02892188 Eh           57743.34258 eV
Virial Ratio       :            2.00075197


---------------
SCF CONVERGENCE
---------------

  Last Energy change         ...   -3.0632e-09  Tolerance :   1.0000e-08
  Last MAX-Density change    ...    1.7009e-05  Tolerance :   1.0000e-07
  Last RMS-Density change    ...    2.9709e-07  Tolerance :   5.0000e-09
  Last Orbital Gradient      ...    2.3614e-06  Tolerance :   1.0000e-05
  Last Orbital Rotation      ...    7.9842e-05  Tolerance :   1.0000e-05

             **** THE GBW FILE WAS UPDATED (/scratch/allen/tmpyp4_amber_gaff2/conf1/conf1/Conf232.orca.gbw) ****
             **** DENSITY /scratch/allen/tmpyp4_amber_gaff2/conf1/conf1/Conf232.orca.scfp WAS UPDATED ****
             **** ENERGY FILE WAS UPDATED (/scratch/allen/tmpyp4_amber_gaff2/conf1/conf1/Conf232.orca.en.tmp) ****
             **** THE GBW FILE WAS UPDATED (/scratch/allen/tmpyp4_amber_gaff2/conf1/conf1/Conf232.orca.gbw) ****
             **** DENSITY /scratch/allen/tmpyp4_amber_gaff2/conf1/conf1/Conf232.orca.scfp WAS UPDATED ****
----------------
ORBITAL ENERGIES
----------------

  NO   OCC          E(Eh)            E(eV) 
   0   2.0000     -15.650252      -425.8650 
   1   2.0000     -15.637936      -425.5299 
   2   2.0000     -15.629490      -425.3000 
   3   2.0000     -15.612485      -424.8373 
   4   2.0000     -15.520932      -422.3460 
   5   2.0000     -15.516340      -422.2211 
   6   2.0000     -15.446883      -420.3311 
   7   2.0000     -15.443419      -420.2368 
   8   2.0000     -11.309625      -307.7505 
   9   2.0000     -11.305130      -307.6282 
  10   2.0000     -11.302962      -307.5692 
  11   2.0000     -11.301734      -307.5358 
  12   2.0000     -11.296630      -307.3969 
  13   2.0000     -11.294544      -307.3402 
  14   2.0000     -11.291697      -307.2627 
  15   2.0000     -11.287242      -307.1415 
  16   2.0000     -11.286765      -307.1285 
  17   2.0000     -11.285828      -307.1030 
  18   2.0000     -11.274068      -306.7830 
  19   2.0000     -11.273194      -306.7592 
  20   2.0000     -11.254155      -306.2411 
  21   2.0000     -11.242392      -305.9210 
  22   2.0000     -11.241495      -305.8966 
  23   2.0000     -11.241287      -305.8910 
  24   2.0000     -11.234041      -305.6938 
  25   2.0000     -11.233738      -305.6855 
  26   2.0000     -11.232958      -305.6643 
  27   2.0000     -11.227614      -305.5189 
  28   2.0000     -11.227461      -305.5147 
  29   2.0000     -11.220549      -305.3267 
  30   2.0000     -11.215284      -305.1834 
  31   2.0000     -11.213819      -305.1435 
  32   2.0000     -11.203331      -304.8581 
  33   2.0000     -11.202757      -304.8425 
  34   2.0000     -11.192992      -304.5768 
  35   2.0000     -11.192500      -304.5634 
  36   2.0000     -11.177613      -304.1583 
  37   2.0000     -11.176251      -304.1212 
  38   2.0000     -11.175981      -304.1139 
  39   2.0000     -11.172282      -304.0133 
  40   2.0000     -11.168062      -303.8984 
  41   2.0000     -11.167941      -303.8951 
  42   2.0000     -11.166583      -303.8582 
  43   2.0000     -11.164263      -303.7950 
  44   2.0000     -11.163539      -303.7753 
  45   2.0000     -11.161596      -303.7225 
  46   2.0000     -11.151469      -303.4469 
  47   2.0000     -11.148599      -303.3688 
  48   2.0000     -11.148535      -303.3671 
  49   2.0000     -11.145913      -303.2957 
  50   2.0000     -11.139841      -303.1305 
  51   2.0000     -11.135455      -303.0111 
  52   2.0000      -1.335194       -36.3325 
  53   2.0000      -1.324571       -36.0434 
  54   2.0000      -1.317381       -35.8477 
  55   2.0000      -1.303616       -35.4732 
  56   2.0000      -1.220082       -33.2001 
  57   2.0000      -1.212251       -32.9870 
  58   2.0000      -1.164172       -31.6787 
  59   2.0000      -1.156451       -31.4686 
  60   2.0000      -1.122321       -30.5399 
  61   2.0000      -1.112742       -30.2792 
  62   2.0000      -1.106663       -30.1138 
  63   2.0000      -1.095630       -29.8136 
  64   2.0000      -1.058623       -28.8066 
  65   2.0000      -1.048475       -28.5304 
  66   2.0000      -1.042039       -28.3553 
  67   2.0000      -1.029934       -28.0259 
  68   2.0000      -1.028876       -27.9971 
  69   2.0000      -1.011436       -27.5226 
  70   2.0000      -1.009637       -27.4736 
  71   2.0000      -0.995908       -27.1000 
  72   2.0000      -0.984364       -26.7859 
  73   2.0000      -0.975021       -26.5317 
  74   2.0000      -0.971596       -26.4385 
  75   2.0000      -0.959482       -26.1088 
  76   2.0000      -0.951809       -25.9000 
  77   2.0000      -0.945875       -25.7386 
  78   2.0000      -0.939038       -25.5525 
  79   2.0000      -0.923068       -25.1179 
  80   2.0000      -0.894981       -24.3537 
  81   2.0000      -0.884022       -24.0555 
  82   2.0000      -0.875503       -23.8237 
  83   2.0000      -0.869466       -23.6594 
  84   2.0000      -0.862373       -23.4664 
  85   2.0000      -0.856524       -23.3072 
  86   2.0000      -0.848975       -23.1018 
  87   2.0000      -0.841707       -22.9040 
  88   2.0000      -0.822000       -22.3678 
  89   2.0000      -0.798730       -21.7345 
  90   2.0000      -0.797236       -21.6939 
  91   2.0000      -0.740634       -20.1537 
  92   2.0000      -0.733039       -19.9470 
  93   2.0000      -0.729896       -19.8615 
  94   2.0000      -0.721566       -19.6348 
  95   2.0000      -0.720434       -19.6040 
  96   2.0000      -0.712741       -19.3947 
  97   2.0000      -0.707637       -19.2558 
  98   2.0000      -0.699978       -19.0474 
  99   2.0000      -0.693981       -18.8842 
 100   2.0000      -0.688169       -18.7260 
 101   2.0000      -0.681289       -18.5388 
 102   2.0000      -0.679072       -18.4785 
 103   2.0000      -0.673999       -18.3404 
 104   2.0000      -0.669946       -18.2302 
 105   2.0000      -0.665172       -18.1003 
 106   2.0000      -0.664916       -18.0933 
 107   2.0000      -0.659175       -17.9371 
 108   2.0000      -0.658197       -17.9105 
 109   2.0000      -0.656479       -17.8637 
 110   2.0000      -0.652251       -17.7487 
 111   2.0000      -0.649318       -17.6688 
 112   2.0000      -0.646619       -17.5954 
 113   2.0000      -0.639301       -17.3963 
 114   2.0000      -0.635673       -17.2975 
 115   2.0000      -0.624601       -16.9963 
 116   2.0000      -0.624068       -16.9818 
 117   2.0000      -0.615351       -16.7445 
 118   2.0000      -0.612582       -16.6692 
 119   2.0000      -0.609763       -16.5925 
 120   2.0000      -0.609156       -16.5760 
 121   2.0000      -0.603471       -16.4213 
 122   2.0000      -0.596721       -16.2376 
 123   2.0000      -0.592444       -16.1212 
 124   2.0000      -0.591653       -16.0997 
 125   2.0000      -0.584099       -15.8942 
 126   2.0000      -0.578990       -15.7551 
 127   2.0000      -0.573957       -15.6182 
 128   2.0000      -0.568059       -15.4577 
 129   2.0000      -0.559770       -15.2321 
 130   2.0000      -0.553811       -15.0700 
 131   2.0000      -0.547379       -14.8949 
 132   2.0000      -0.541129       -14.7249 
 133   2.0000      -0.536277       -14.5928 
 134   2.0000      -0.534400       -14.5418 
 135   2.0000      -0.529059       -14.3964 
 136   2.0000      -0.526199       -14.3186 
 137   2.0000      -0.522678       -14.2228 
 138   2.0000      -0.520349       -14.1594 
 139   2.0000      -0.516478       -14.0541 
 140   2.0000      -0.510520       -13.8919 
 141   2.0000      -0.506583       -13.7848 
 142   2.0000      -0.505683       -13.7603 
 143   2.0000      -0.501373       -13.6431 
 144   2.0000      -0.500506       -13.6195 
 145   2.0000      -0.498400       -13.5622 
 146   2.0000      -0.495365       -13.4796 
 147   2.0000      -0.491687       -13.3795 
 148   2.0000      -0.489921       -13.3314 
 149   2.0000      -0.469573       -12.7777 
 150   2.0000      -0.461537       -12.5591 
 151   2.0000      -0.453224       -12.3328 
 152   2.0000      -0.448187       -12.1958 
 153   2.0000      -0.446859       -12.1596 
 154   2.0000      -0.446174       -12.1410 
 155   2.0000      -0.439591       -11.9619 
 156   2.0000      -0.435251       -11.8438 
 157   2.0000      -0.430663       -11.7189 
 158   2.0000      -0.394334       -10.7304 
 159   2.0000      -0.385396       -10.4872 
 160   2.0000      -0.377800       -10.2805 
 161   2.0000      -0.372042       -10.1238 
 162   2.0000      -0.367722       -10.0062 
 163   2.0000      -0.359027        -9.7696 
 164   2.0000      -0.353722        -9.6253 
 165   2.0000      -0.341945        -9.3048 
 166   2.0000      -0.337132        -9.1738 
 167   2.0000      -0.334313        -9.0971 
 168   2.0000      -0.328971        -8.9518 
 169   2.0000      -0.300258        -8.1704 
 170   2.0000      -0.297826        -8.1042 
 171   2.0000      -0.288434        -7.8487 
 172   2.0000      -0.286796        -7.8041 
 173   2.0000      -0.257000        -6.9933 
 174   2.0000      -0.247773        -6.7423 
 175   2.0000      -0.188730        -5.1356 
 176   2.0000      -0.178761        -4.8643 
 177   2.0000      -0.068723        -1.8701 
 178   2.0000      -0.055383        -1.5070 
 179   0.0000       0.030188         0.8214 
 180   0.0000       0.070051         1.9062 
 181   0.0000       0.092682         2.5220 
 182   0.0000       0.099807         2.7159 
 183   0.0000       0.126341         3.4379 
 184   0.0000       0.134851         3.6695 
 185   0.0000       0.140984         3.8364 
 186   0.0000       0.153038         4.1644 
 187   0.0000       0.156389         4.2556 
 188   0.0000       0.161176         4.3858 
 189   0.0000       0.163141         4.4393 
 190   0.0000       0.167242         4.5509 
 191   0.0000       0.175443         4.7740 
 192   0.0000       0.196114         5.3365 
 193   0.0000       0.199484         5.4282 
 194   0.0000       0.202900         5.5212 
 195   0.0000       0.206362         5.6154 
 196   0.0000       0.207206         5.6383 
 197   0.0000       0.210337         5.7236 
 198   0.0000       0.215535         5.8650 
 199   0.0000       0.218945         5.9578 
 200   0.0000       0.230970         6.2850 
 201   0.0000       0.237719         6.4687 
 202   0.0000       0.241421         6.5694 
 203   0.0000       0.248655         6.7662 
 204   0.0000       0.249862         6.7991 
 205   0.0000       0.254886         6.9358 
 206   0.0000       0.256549         6.9811 
 207   0.0000       0.258512         7.0345 
 208   0.0000       0.262775         7.1505 
 209   0.0000       0.264073         7.1858 
 210   0.0000       0.267195         7.2708 
 211   0.0000       0.269430         7.3316 
 212   0.0000       0.272140         7.4053 
 213   0.0000       0.274956         7.4819 
 214   0.0000       0.277179         7.5424 
 215   0.0000       0.279276         7.5995 
 216   0.0000       0.280110         7.6222 
 217   0.0000       0.283181         7.7057 
 218   0.0000       0.286197         7.7878 
 219   0.0000       0.288562         7.8522 
 220   0.0000       0.290354         7.9009 
 221   0.0000       0.291514         7.9325 
 222   0.0000       0.293874         7.9967 
 223   0.0000       0.295119         8.0306 
 224   0.0000       0.298848         8.1321 
 225   0.0000       0.300661         8.1814 
 226   0.0000       0.303653         8.2628 
 227   0.0000       0.308021         8.3817 
 228   0.0000       0.309636         8.4256 
 229   0.0000       0.313422         8.5286 
 230   0.0000       0.316904         8.6234 
 231   0.0000       0.321244         8.7415 
 232   0.0000       0.325107         8.8466 
 233   0.0000       0.329934         8.9780 
 234   0.0000       0.333815         9.0836 
 235   0.0000       0.340259         9.2589 
 236   0.0000       0.356198         9.6926 
 237   0.0000       0.386070        10.5055 
 238   0.0000       0.394565        10.7367 
 239   0.0000       0.400128        10.8880 
 240   0.0000       0.405124        11.0240 
 241   0.0000       0.414745        11.2858 
 242   0.0000       0.420223        11.4349 
 243   0.0000       0.424735        11.5576 
 244   0.0000       0.430016        11.7013 
 245   0.0000       0.430904        11.7255 
 246   0.0000       0.433434        11.7943 
 247   0.0000       0.438957        11.9446 
 248   0.0000       0.440665        11.9911 
 249   0.0000       0.443392        12.0653 
 250   0.0000       0.447237        12.1699 
 251   0.0000       0.454611        12.3706 
 252   0.0000       0.457274        12.4431 
 253   0.0000       0.464733        12.6460 
 254   0.0000       0.470851        12.8125 
 255   0.0000       0.474396        12.9090 
 256   0.0000       0.482473        13.1288 
 257   0.0000       0.485460        13.2100 
 258   0.0000       0.493131        13.4188 
 259   0.0000       0.497210        13.5298 
 260   0.0000       0.500350        13.6152 
 261   0.0000       0.503349        13.6968 
 262   0.0000       0.506062        13.7706 
 263   0.0000       0.509835        13.8733 
 264   0.0000       0.511952        13.9309 
 265   0.0000       0.514766        14.0075 
 266   0.0000       0.519474        14.1356 
 267   0.0000       0.523082        14.2338 
 268   0.0000       0.535549        14.5730 
 269   0.0000       0.538148        14.6437 
 270   0.0000       0.541734        14.7413 
 271   0.0000       0.545384        14.8406 
 272   0.0000       0.546249        14.8642 
 273   0.0000       0.553728        15.0677 
 274   0.0000       0.559918        15.2361 
 275   0.0000       0.564686        15.3659 
 276   0.0000       0.571921        15.5628 
 277   0.0000       0.579395        15.7661 
 278   0.0000       0.580546        15.7975 
 279   0.0000       0.585151        15.9228 
 280   0.0000       0.587039        15.9742 
 281   0.0000       0.591501        16.0955 
 282   0.0000       0.594486        16.1768 
 283   0.0000       0.596825        16.2404 
 284   0.0000       0.600268        16.3341 
 285   0.0000       0.601665        16.3721 
 286   0.0000       0.607055        16.5188 
 287   0.0000       0.608800        16.5663 
 288   0.0000       0.610716        16.6184 
 289   0.0000       0.615529        16.7494 
 290   0.0000       0.620986        16.8979 
 291   0.0000       0.627859        17.0849 
 292   0.0000       0.637572        17.3492 
 293   0.0000       0.638501        17.3745 
 294   0.0000       0.642639        17.4871 
 295   0.0000       0.651867        17.7382 
 296   0.0000       0.655797        17.8452 
 297   0.0000       0.659176        17.9371 
 298   0.0000       0.662197        18.0193 
 299   0.0000       0.665043        18.0967 
 300   0.0000       0.670021        18.2322 
 301   0.0000       0.671147        18.2628 
 302   0.0000       0.679622        18.4935 
 303   0.0000       0.681560        18.5462 
 304   0.0000       0.684819        18.6349 
 305   0.0000       0.686215        18.6729 
 306   0.0000       0.690839        18.7987 
 307   0.0000       0.691507        18.8169 
 308   0.0000       0.697993        18.9933 
 309   0.0000       0.699645        19.0383 
 310   0.0000       0.703211        19.1353 
 311   0.0000       0.704906        19.1815 
 312   0.0000       0.706603        19.2276 
 313   0.0000       0.708518        19.2798 
 314   0.0000       0.712994        19.4016 
 315   0.0000       0.714880        19.4529 
 316   0.0000       0.715556        19.4713 
 317   0.0000       0.718971        19.5642 
 318   0.0000       0.719826        19.5874 
 319   0.0000       0.721017        19.6199 
 320   0.0000       0.726837        19.7782 
 321   0.0000       0.728670        19.8281 
 322   0.0000       0.732443        19.9308 
 323   0.0000       0.734358        19.9829 
 324   0.0000       0.739308        20.1176 
 325   0.0000       0.741920        20.1887 
 326   0.0000       0.743958        20.2441 
 327   0.0000       0.745249        20.2792 
 328   0.0000       0.747470        20.3397 
 329   0.0000       0.748514        20.3681 
 330   0.0000       0.751509        20.4496 
 331   0.0000       0.755817        20.5668 
 332   0.0000       0.758032        20.6271 
 333   0.0000       0.761820        20.7302 
 334   0.0000       0.765117        20.8199 
 335   0.0000       0.773073        21.0364 
 336   0.0000       0.779356        21.2073 
 337   0.0000       0.782133        21.2829 
 338   0.0000       0.783493        21.3199 
 339   0.0000       0.787859        21.4387 
 340   0.0000       0.789216        21.4757 
 341   0.0000       0.793627        21.5957 
 342   0.0000       0.797760        21.7082 
 343   0.0000       0.802628        21.8406 
 344   0.0000       0.804425        21.8895 
 345   0.0000       0.805897        21.9296 
 346   0.0000       0.809742        22.0342 
 347   0.0000       0.811585        22.0843 
 348   0.0000       0.814101        22.1528 
 349   0.0000       0.816955        22.2305 
 350   0.0000       0.820216        22.3192 
 351   0.0000       0.823552        22.4100 
 352   0.0000       0.826243        22.4832 
 353   0.0000       0.827977        22.5304 
 354   0.0000       0.830123        22.5888 
 355   0.0000       0.831524        22.6269 
 356   0.0000       0.834145        22.6982 
 357   0.0000       0.834929        22.7196 
 358   0.0000       0.835994        22.7486 
 359   0.0000       0.839277        22.8379 
 360   0.0000       0.840254        22.8645 
 361   0.0000       0.841487        22.8980 
 362   0.0000       0.843311        22.9477 
 363   0.0000       0.844810        22.9884 
 364   0.0000       0.846994        23.0479 
 365   0.0000       0.847498        23.0616 
 366   0.0000       0.852866        23.2077 
 367   0.0000       0.857193        23.3254 
 368   0.0000       0.860414        23.4131 
 369   0.0000       0.863224        23.4895 
 370   0.0000       0.865211        23.5436 
 371   0.0000       0.869350        23.6562 
 372   0.0000       0.872634        23.7456 
 373   0.0000       0.876911        23.8620 
 374   0.0000       0.878166        23.8961 
 375   0.0000       0.883177        24.0325 
 376   0.0000       0.886424        24.1208 
 377   0.0000       0.886836        24.1320 
 378   0.0000       0.891710        24.2647 
 379   0.0000       0.894768        24.3479 
 380   0.0000       0.897761        24.4293 
 381   0.0000       0.899427        24.4747 
 382   0.0000       0.902311        24.5531 
 383   0.0000       0.902438        24.5566 
 384   0.0000       0.903830        24.5945 
 385   0.0000       0.906432        24.6653 
 386   0.0000       0.908967        24.7343 
 387   0.0000       0.910652        24.7801 
 388   0.0000       0.911524        24.8038 
 389   0.0000       0.913063        24.8457 
 390   0.0000       0.917082        24.9551 
 391   0.0000       0.920464        25.0471 
 392   0.0000       0.923734        25.1361 
 393   0.0000       0.924900        25.1678 
 394   0.0000       0.927464        25.2376 
 395   0.0000       0.931145        25.3377 
 396   0.0000       0.933842        25.4111 
 397   0.0000       0.935221        25.4487 
 398   0.0000       0.937151        25.5012 
 399   0.0000       0.941976        25.6325 
 400   0.0000       0.944860        25.7109 
 401   0.0000       0.947412        25.7804 
 402   0.0000       0.950447        25.8630 
 403   0.0000       0.952047        25.9065 
 404   0.0000       0.955048        25.9882 
 405   0.0000       0.955858        26.0102 
 406   0.0000       0.962662        26.1954 
 407   0.0000       0.964665        26.2499 
 408   0.0000       0.969043        26.3690 
 409   0.0000       0.971543        26.4370 
 410   0.0000       0.977456        26.5979 
 411   0.0000       0.979371        26.6500 
 412   0.0000       0.985450        26.8155 
 413   0.0000       0.986116        26.8336 
 414   0.0000       0.989006        26.9122 
 415   0.0000       0.990945        26.9650 
 416   0.0000       0.995596        27.0915 
 417   0.0000       1.002806        27.2877 
 418   0.0000       1.008333        27.4381 
 419   0.0000       1.016551        27.6618 
 420   0.0000       1.022329        27.8190 
 421   0.0000       1.028961        27.9995 
 422   0.0000       1.031896        28.0793 
 423   0.0000       1.039129        28.2761 
 424   0.0000       1.042698        28.3733 
 425   0.0000       1.047037        28.4913 
 426   0.0000       1.051841        28.6221 
 427   0.0000       1.066167        29.0119 
 428   0.0000       1.068058        29.0633 
 429   0.0000       1.072386        29.1811 
 430   0.0000       1.075244        29.2589 
 431   0.0000       1.079765        29.3819 
 432   0.0000       1.084519        29.5113 
 433   0.0000       1.091294        29.6956 
 434   0.0000       1.097100        29.8536 
 435   0.0000       1.099890        29.9295 
 436   0.0000       1.106089        30.0982 
 437   0.0000       1.112416        30.2704 
 438   0.0000       1.117043        30.3963 
 439   0.0000       1.117985        30.4219 
 440   0.0000       1.119429        30.4612 
 441   0.0000       1.124903        30.6102 
 442   0.0000       1.128085        30.6967 
 443   0.0000       1.130955        30.7749 
 444   0.0000       1.134152        30.8618 
 445   0.0000       1.135643        30.9024 
 446   0.0000       1.138536        30.9811 
 447   0.0000       1.142356        31.0851 
 448   0.0000       1.143838        31.1254 
 449   0.0000       1.145378        31.1673 
 450   0.0000       1.149343        31.2752 
 451   0.0000       1.150319        31.3018 
 452   0.0000       1.156007        31.4565 
 453   0.0000       1.156164        31.4608 
 454   0.0000       1.161890        31.6166 
 455   0.0000       1.168432        31.7947 
 456   0.0000       1.174549        31.9611 
 457   0.0000       1.176255        32.0075 
 458   0.0000       1.177669        32.0460 
 459   0.0000       1.186330        32.2817 
 460   0.0000       1.188093        32.3297 
 461   0.0000       1.192147        32.4400 
 462   0.0000       1.203953        32.7612 
 463   0.0000       1.205150        32.7938 
 464   0.0000       1.208448        32.8836 
 465   0.0000       1.210420        32.9372 
 466   0.0000       1.211783        32.9743 
 467   0.0000       1.218547        33.1584 
 468   0.0000       1.223812        33.3016 
 469   0.0000       1.227294        33.3964 
 470   0.0000       1.232447        33.5366 
 471   0.0000       1.234458        33.5913 
 472   0.0000       1.236242        33.6398 
 473   0.0000       1.239333        33.7240 
 474   0.0000       1.242258        33.8036 
 475   0.0000       1.247548        33.9475 
 476   0.0000       1.249832        34.0097 
 477   0.0000       1.250244        34.0209 
 478   0.0000       1.252671        34.0869 
 479   0.0000       1.254687        34.1418 
 480   0.0000       1.258677        34.2504 
 481   0.0000       1.265881        34.4464 
 482   0.0000       1.267570        34.4923 
 483   0.0000       1.272910        34.6377 
 484   0.0000       1.273378        34.6504 
 485   0.0000       1.278264        34.7833 
 486   0.0000       1.279396        34.8141 
 487   0.0000       1.281008        34.8580 
 488   0.0000       1.288830        35.0708 
 489   0.0000       1.290571        35.1182 
 490   0.0000       1.291135        35.1336 
 491   0.0000       1.295028        35.2395 
 492   0.0000       1.301251        35.4088 
 493   0.0000       1.308615        35.6092 
 494   0.0000       1.312266        35.7086 
 495   0.0000       1.313939        35.7541 
 496   0.0000       1.318742        35.8848 
 497   0.0000       1.322387        35.9840 
 498   0.0000       1.326154        36.0865 
 499   0.0000       1.329633        36.1811 
 500   0.0000       1.332789        36.2670 
 501   0.0000       1.337778        36.4028 
 502   0.0000       1.340276        36.4708 
 503   0.0000       1.345848        36.6224 
 504   0.0000       1.348364        36.6908 
 505   0.0000       1.352247        36.7965 
 506   0.0000       1.354719        36.8638 
 507   0.0000       1.357984        36.9526 
 508   0.0000       1.359658        36.9982 
 509   0.0000       1.362195        37.0672 
 510   0.0000       1.366435        37.1826 
[...]
      pz      :     0.022010  p :     0.079623
      px      :     0.043382
      py      :     0.014232
 77 H s       :     0.887897  s :     0.887897
      pz      :     0.047719  p :     0.078994
      px      :     0.015015
      py      :     0.016260
 78 H s       :     0.888282  s :     0.888282
      pz      :     0.025750  p :     0.078940
      px      :     0.020530
      py      :     0.032660
 79 H s       :     0.909515  s :     0.909515
      pz      :     0.022043  p :     0.086612
      px      :     0.021739
      py      :     0.042829
 80 H s       :     0.869098  s :     0.869098
      pz      :     0.039007  p :     0.084296
      px      :     0.030014
      py      :     0.015275
 81 H s       :     0.887210  s :     0.887210
      pz      :     0.037762  p :     0.083940
      px      :     0.016160
      py      :     0.030018
 82 H s       :     0.915301  s :     0.915301
      pz      :     0.022055  p :     0.086824
      px      :     0.031444
      py      :     0.033325
 83 H s       :     0.872803  s :     0.872803
      pz      :     0.039269  p :     0.084011
      px      :     0.015258
      py      :     0.029483
 84 H s       :     0.886953  s :     0.886953
      pz      :     0.035791  p :     0.083654
      px      :     0.031720
      py      :     0.016143
 85 H s       :     0.893428  s :     0.893428
      pz      :     0.022498  p :     0.079754
      px      :     0.014083
      py      :     0.043172
 86 H s       :     0.890796  s :     0.890796
      pz      :     0.024727  p :     0.078855
      px      :     0.032992
      py      :     0.021135
 87 H s       :     0.890131  s :     0.890131
      pz      :     0.047972  p :     0.078711
      px      :     0.015604
      py      :     0.015135
 88 H s       :     0.912842  s :     0.912842
      pz      :     0.021900  p :     0.086958
      px      :     0.042656
      py      :     0.022402
 89 H s       :     0.872325  s :     0.872325
      pz      :     0.037898  p :     0.083856
      px      :     0.030475
      py      :     0.015483


                      *****************************
                      * MAYER POPULATION ANALYSIS *
                      *****************************

  NA   - Mulliken gross atomic population
  ZA   - Total nuclear charge
  QA   - Mulliken gross atomic charge
  VA   - Mayer's total valence
  BVA  - Mayer's bonded valence
  FA   - Mayer's free valence

  ATOM       NA         ZA         QA         VA         BVA        FA
  0 C      5.7911     6.0000     0.2089     3.8323     3.8323    -0.0000
  1 N      7.4474     7.0000    -0.4474     3.3513     3.3513     0.0000
  2 C      6.0632     6.0000    -0.0632     3.9189     3.9189    -0.0000
  3 N      7.3364     7.0000    -0.3364     3.4499     3.4499    -0.0000
  4 C      6.0558     6.0000    -0.0558     3.9846     3.9846    -0.0000
  5 N      7.5630     7.0000    -0.5630     3.0880     3.0880     0.0000
  6 C      6.0835     6.0000    -0.0835     4.0041     4.0041    -0.0000
  7 N      7.3386     7.0000    -0.3386     3.4393     3.4393    -0.0000
  8 C      5.7970     6.0000     0.2030     3.8343     3.8343     0.0000
  9 N      7.5630     7.0000    -0.5630     3.0816     3.0816    -0.0000
 10 C      5.8839     6.0000     0.1161     3.9005     3.9005     0.0000
 11 N      7.4375     7.0000    -0.4375     3.3829     3.3829    -0.0000
 12 C      6.0775     6.0000    -0.0775     3.9185     3.9185    -0.0000
 13 N      7.4364     7.0000    -0.4364     3.3957     3.3957    -0.0000
 14 C      5.7557     6.0000     0.2443     3.7826     3.7826    -0.0000
 15 N      7.4409     7.0000    -0.4409     3.3715     3.3715    -0.0000
 16 C      5.7693     6.0000     0.2307     3.7880     3.7880    -0.0000
 17 C      6.0899     6.0000    -0.0899     4.0037     4.0037     0.0000
 18 C      6.2159     6.0000    -0.2159     3.7674     3.7674    -0.0000
 19 C      5.7596     6.0000     0.2404     3.8616     3.8616     0.0000
 20 C      5.7897     6.0000     0.2103     3.8267     3.8267    -0.0000
 21 C      6.0905     6.0000    -0.0905     3.9076     3.9076    -0.0000
 22 C      6.0884     6.0000    -0.0884     3.9832     3.9832     0.0000
 23 C      6.0453     6.0000    -0.0453     3.9911     3.9911    -0.0000
 24 C      5.7985     6.0000     0.2015     3.8225     3.8225     0.0000
 25 C      5.8860     6.0000     0.1140     3.8901     3.8901    -0.0000
 26 C      6.0723     6.0000    -0.0723     3.9088     3.9088     0.0000
 27 C      5.7816     6.0000     0.2184     3.8767     3.8767    -0.0000
 28 C      6.0558     6.0000    -0.0558     3.9879     3.9879    -0.0000
 29 C      6.1829     6.0000    -0.1829     3.7388     3.7388    -0.0000
 30 C      5.7609     6.0000     0.2391     3.7958     3.7958    -0.0000
 31 C      5.7825     6.0000     0.2175     3.8240     3.8240    -0.0000
 32 C      6.0642     6.0000    -0.0642     3.9196     3.9196     0.0000
 33 C      6.0743     6.0000    -0.0743     3.9811     3.9811    -0.0000
 34 C      6.0504     6.0000    -0.0504     3.9892     3.9892     0.0000
 35 C      5.7877     6.0000     0.2123     3.8225     3.8225    -0.0000
 36 C      5.8879     6.0000     0.1121     3.8859     3.8859    -0.0000
 37 C      6.0661     6.0000    -0.0661     3.9175     3.9175    -0.0000
 38 C      5.7649     6.0000     0.2351     3.7993     3.7993    -0.0000
 39 C      6.0601     6.0000    -0.0601     3.9884     3.9884    -0.0000
 40 C      6.1867     6.0000    -0.1867     3.7365     3.7365     0.0000
 41 C      5.7772     6.0000     0.2228     3.8829     3.8829    -0.0000
 42 C      5.7990     6.0000     0.2010     3.8271     3.8271    -0.0000
 43 C      6.0730     6.0000    -0.0730     3.9021     3.9021     0.0000
 44 C      6.0893     6.0000    -0.0893     3.9850     3.9850     0.0000
 45 C      6.0555     6.0000    -0.0555     3.9928     3.9928    -0.0000
 46 C      5.7939     6.0000     0.2061     3.8267     3.8267    -0.0000
 47 C      5.8844     6.0000     0.1156     3.8935     3.8935     0.0000
 48 C      6.0717     6.0000    -0.0717     3.9061     3.9061    -0.0000
 49 C      5.7693     6.0000     0.2307     3.8872     3.8872     0.0000
 50 C      6.0507     6.0000    -0.0507     3.9904     3.9904     0.0000
 51 C      6.1897     6.0000    -0.1897     3.7360     3.7360    -0.0000
 52 H      0.9510     1.0000     0.0490     0.9855     0.9855    -0.0000
 53 H      1.0147     1.0000    -0.0147     0.9985     0.9985    -0.0000
 54 H      0.9535     1.0000     0.0465     1.0088     1.0088    -0.0000
 55 H      0.9532     1.0000     0.0468     0.9863     0.9863    -0.0000
 56 H      0.9449     1.0000     0.0551     0.9706     0.9706     0.0000
 57 H      0.9468     1.0000     0.0532     0.9836     0.9836     0.0000
 58 H      0.9473     1.0000     0.0527     0.9851     0.9851     0.0000
 59 H      1.0067     1.0000    -0.0067     1.0011     1.0011    -0.0000
 60 H      0.9500     1.0000     0.0500     1.0100     1.0100    -0.0000
 61 H      0.8278     1.0000     0.1722     1.0423     1.0423    -0.0000
 62 H      0.8263     1.0000     0.1737     1.0435     1.0435    -0.0000
 63 H      0.9436     1.0000     0.0564     0.9853     0.9853    -0.0000
 64 H      1.0137     1.0000    -0.0137     0.9972     0.9972    -0.0000
 65 H      0.9524     1.0000     0.0476     1.0091     1.0091     0.0000
 66 H      0.9427     1.0000     0.0573     0.9852     0.9852     0.0000
 67 H      0.9372     1.0000     0.0628     0.9720     0.9720     0.0000
 68 H      0.9419     1.0000     0.0581     0.9868     0.9868     0.0000
 69 H      0.9419     1.0000     0.0581     0.9829     0.9829     0.0000
 70 H      1.0260     1.0000    -0.0260     0.9938     0.9938     0.0000
 71 H      0.9531     1.0000     0.0469     1.0064     1.0064     0.0000
 72 H      0.9385     1.0000     0.0615     0.9845     0.9845    -0.0000
 73 H      1.0121     1.0000    -0.0121     0.9994     0.9994     0.0000
 74 H      0.9487     1.0000     0.0513     1.0100     1.0100     0.0000
 75 H      0.9394     1.0000     0.0606     0.9850     0.9850     0.0000
 76 H      0.9337     1.0000     0.0663     0.9718     0.9718     0.0000
 77 H      0.9385     1.0000     0.0615     0.9852     0.9852    -0.0000
 78 H      0.9393     1.0000     0.0607     0.9849     0.9849    -0.0000
 79 H      1.0148     1.0000    -0.0148     0.9988     0.9988    -0.0000
 80 H      0.9481     1.0000     0.0519     1.0071     1.0071    -0.0000
 81 H      0.9465     1.0000     0.0535     0.9855     0.9855    -0.0000
 82 H      1.0239     1.0000    -0.0239     0.9940     0.9940     0.0000
 83 H      0.9573     1.0000     0.0427     1.0089     1.0089    -0.0000
 84 H      0.9465     1.0000     0.0535     0.9854     0.9854    -0.0000
 85 H      0.9403     1.0000     0.0597     0.9716     0.9716    -0.0000
 86 H      0.9440     1.0000     0.0560     0.9840     0.9840    -0.0000
 87 H      0.9433     1.0000     0.0567     0.9856     0.9856     0.0000
 88 H      1.0191     1.0000    -0.0191     0.9953     0.9953    -0.0000
 89 H      0.9555     1.0000     0.0445     1.0072     1.0072    -0.0000

  Mayer bond orders larger than 0.100000
B(  0-C ,  1-N ) :   1.1046 B(  0-C , 17-C ) :   1.6654 B(  0-C , 52-H ) :   0.9689 
B(  1-N ,  8-C ) :   1.1006 B(  1-N , 10-C ) :   0.9690 B(  2-C , 12-C ) :   1.5257 
B(  2-C , 16-C ) :   1.3366 B(  2-C , 53-H ) :   0.9771 B(  3-N , 14-C ) :   1.2093 
B(  3-N , 16-C ) :   1.1944 B(  3-N , 61-H ) :   0.8987 B(  4-C ,  6-C ) :   1.2411 
B(  4-C , 17-C ) :   1.2401 B(  4-C , 18-C ) :   1.3403 B(  5-N , 19-C ) :   1.4343 
B(  5-N , 27-C ) :   1.3930 B(  6-C ,  8-C ) :   1.6647 B(  6-C , 54-H ) :   0.9691 
B(  7-N , 30-C ) :   1.1946 B(  7-N , 38-C ) :   1.1979 B(  7-N , 62-H ) :   0.8978 
B(  8-C , 55-H ) :   0.9697 B(  9-N , 41-C ) :   1.4030 B(  9-N , 49-C ) :   1.4192 
B( 10-C , 56-H ) :   0.9764 B( 10-C , 57-H ) :   0.9819 B( 10-C , 58-H ) :   0.9839 
B( 11-N , 20-C ) :   1.1279 B( 11-N , 24-C ) :   1.1175 B( 11-N , 25-C ) :   0.9586 
B( 12-C , 14-C ) :   1.3380 B( 12-C , 59-H ) :   0.9751 B( 13-N , 31-C ) :   1.1364 
B( 13-N , 35-C ) :   1.1310 B( 13-N , 36-C ) :   0.9535 B( 14-C , 18-C ) :   1.1687 
B( 15-N , 42-C ) :   1.1126 B( 15-N , 46-C ) :   1.1174 B( 15-N , 47-C ) :   0.9620 
B( 16-C , 51-C ) :   1.1878 B( 17-C , 60-H ) :   0.9688 B( 18-C , 19-C ) :   1.1814 
B( 19-C , 21-C ) :   1.2215 B( 20-C , 28-C ) :   1.6242 B( 20-C , 63-H ) :   0.9702 
B( 21-C , 26-C ) :   1.6345 B( 21-C , 64-H ) :   0.9704 B( 22-C , 23-C ) :   1.2871 
B( 22-C , 28-C ) :   1.2713 B( 22-C , 29-C ) :   1.2242 B( 23-C , 24-C ) :   1.6177 
B( 23-C , 65-H ) :   0.9707 B( 24-C , 66-H ) :   0.9692 B( 25-C , 67-H ) :   0.9761 
B( 25-C , 68-H ) :   0.9829 B( 25-C , 69-H ) :   0.9822 B( 26-C , 27-C ) :   1.2194 
B( 26-C , 70-H ) :   0.9726 B( 27-C , 29-C ) :   1.2278 B( 28-C , 71-H ) :   0.9716 
B( 29-C , 30-C ) :   1.2204 B( 30-C , 32-C ) :   1.3028 B( 31-C , 39-C ) :   1.6163 
B( 31-C , 72-H ) :   0.9691 B( 32-C , 37-C ) :   1.5557 B( 32-C , 73-H ) :   0.9781 
B( 33-C , 34-C ) :   1.2862 B( 33-C , 39-C ) :   1.2800 B( 33-C , 40-C ) :   1.2241 
B( 34-C , 35-C ) :   1.6132 B( 34-C , 74-H ) :   0.9702 B( 35-C , 75-H ) :   0.9691 
B( 36-C , 76-H ) :   0.9764 B( 36-C , 77-H ) :   0.9819 B( 36-C , 78-H ) :   0.9828 
B( 37-C , 38-C ) :   1.3052 B( 37-C , 79-H ) :   0.9773 B( 38-C , 40-C ) :   1.2153 
B( 39-C , 80-H ) :   0.9712 B( 40-C , 41-C ) :   1.2303 B( 41-C , 43-C ) :   1.2033 
B( 42-C , 50-C ) :   1.6336 B( 42-C , 81-H ) :   0.9696 B( 43-C , 48-C ) :   1.6486 
B( 43-C , 82-H ) :   0.9732 B( 44-C , 45-C ) :   1.2681 B( 44-C , 50-C ) :   1.2686 
B( 44-C , 51-C ) :   1.2575 B( 45-C , 46-C ) :   1.6337 B( 45-C , 83-H ) :   0.9714 
B( 46-C , 84-H ) :   0.9701 B( 47-C , 85-H ) :   0.9761 B( 47-C , 86-H ) :   0.9828 
B( 47-C , 87-H ) :   0.9825 B( 48-C , 49-C ) :   1.2045 B( 48-C , 88-H ) :   0.9742 
B( 49-C , 51-C ) :   1.2279 B( 50-C , 89-H ) :   0.9712 

-------
TIMINGS
-------

Total SCF time: 0 days 0 hours 27 min 42 sec 

Total time                  ....    1662.073 sec
Sum of individual times     ....    1657.381 sec  ( 99.7%)

Fock matrix formation       ....    1630.312 sec  ( 98.1%)
Diagonalization             ....       8.738 sec  (  0.5%)
Density matrix formation    ....       0.518 sec  (  0.0%)
Population analysis         ....       0.638 sec  (  0.0%)
Initial guess               ....       2.521 sec  (  0.2%)
Orbital Transformation      ....       0.000 sec  (  0.0%)
Orbital Orthonormalization  ....       0.000 sec  (  0.0%)
DIIS solution               ....       3.956 sec  (  0.2%)
SOSCF solution              ....       9.407 sec  (  0.6%)

Maximum memory used throughout the entire SCF-calculation: 302.6 MB


           ************************************************************
           *        Program running with 16 parallel MPI-processes    *
           *              working on a common directory               *
           ************************************************************

------------------------------------------------------------------------------
                                ORCA  MP2 
------------------------------------------------------------------------------

Freezing NCore=104 chemical core electrons

----------
MP2 ENERGY (disk based algorithm)
----------

Dimension of the basis                    ...  918
Memory devoted to MP2                     ... 2000 MB   
Data format for buffers                   ... DOUBLE
Compression type for matrix containers    ... UNCOMPRESSED

-------------------------------
PARTIAL EXCHANGE TRANSFORMATION
-------------------------------

Transformation type                        ... one-operator
Generation of integrals (i,mue|j,nue)      ... ON
Generation of integrals (mue,kappa|nue,tau)... OFF
Generation of integrals (i,mue|a,nue)      ... OFF
Dimension of the basis                     ...  918
Number of internal MOs                     ...  127 (  52- 178)
Pair cutoff                                ... 2.500e-12 Eh
Number of AO pairs in the trafo            ... 421821
Total Number of distinct AO pairs          ... 421821
Memory devoted for trafo                   ... 2000.0 MB 
Max. Number of MO pairs treated together   ...  311      
Number Format for Storage                  ... Double (8 Byte)
Integral package used                      ... LIBINT

Starting integral evaluation:
    ... done with AO integral generation
Closing buffer AOK     (38.26 GB; CompressionRatio= 1.32)
Collecting buffer AOK 
Number of MO pairs included in the trafo   ... 8128
------------------------
SORTING OF (i,mue|j,nue)
------------------------

IBATCH = 1 of  2
IBATCH = 2 of  2
Closing buffer KAO     (51.03 GB; CompressionRatio= 1.00)
Collecting buffer KAO 
N(AO-Batches) Done                         ...  85564429 
N(AO-Batches) Skipped                      ...  82279916 
N(IJ)-pairs Skipped                        ...         0 
TOTAL TIME for half transformation         ...  2821.001 sec
AO-integral generation                     ...   210.566 sec
Half transformation                        ...   423.208 sec
K-integral sorting                         ...  1964.338 sec
Process 10:   Internal MO 132
Process 13:   Internal MO 156

Finished integral transformation - now doing MP2 part

Process  7:   Internal MO 108
OPERATOR COMBINATION   0   0: ij=( 52..178, 52..178)
Process  4:   Internal MO  84
Process  1:   Internal MO  60
Process  0:   Internal MO  54
Process  2:   Internal MO  69
Process  1:   Internal MO  63
Process  0:   Internal MO  57
Process  5:   Internal MO  93
Process  3:   Internal MO  78
Process  8:   Internal MO 117
Process  1:   Internal MO  66
Process 11:   Internal MO 141
Process  2:   Internal MO  72
Process  6:   Internal MO 102
Process 14:   Internal MO 165
Process  3:   Internal MO  81
Process  4:   Internal MO  87
Process  5:   Internal MO  96
Process  2:   Internal MO  75
Process  9:   Internal MO 126
Process  7:   Internal MO 111
Process 12:   Internal MO 150
Process 10:   Internal MO 135
Process 15:   Internal MO 174
Process  4:   Internal MO  90
Process  8:   Internal MO 120
Process  6:   Internal MO 105
Process  5:   Internal MO  99
Process 13:   Internal MO 159
Process  7:   Internal MO 114
Process 11:   Internal MO 144
Process  9:   Internal MO 129
Process 14:   Internal MO 168
Process 12:   Internal MO 153
Process  8:   Internal MO 123
Process 10:   Internal MO 138
Process 11:   Internal MO 147
Process 15:   Internal MO 177
Process 13:   Internal MO 162
Process 14:   Internal MO 171
-----------------------------------------------
 MP2 CORRELATION ENERGY   :     -7.288424737 Eh
-----------------------------------------------


-------
TIMINGS
-------
Total time                : 3068.766 sec
Integral trafo            : 2825.545 sec ( 92.1%)
K(i,j)                    :    8.420 sec (  0.3%)
T(i,j)                    :    0.071 sec (  0.0%)

---------------------------------------
MP2 TOTAL ENERGY:    -2130.913042494 Eh
---------------------------------------

Maximum memory used throughout the entire MP2-calculation: 2275.2 MB

-------------------------   --------------------
FINAL SINGLE POINT ENERGY     -2130.913042494298
-------------------------   --------------------


                            ***************************************
                            *     ORCA property calculations      *
                            ***************************************


  WARNING: The energy has been calculated at the MP2 level but the densities
           used in the property calculations are still SCF densities
           MP2 response densities have not been calculated 
           use %mp2 Density relaxed end
           or  %mp2 Density unrelaxed end

                                    ---------------------
                                    Active property flags
                                    ---------------------
   (+) Dipole Moment


------------------------------------------------------------------------------
                       ORCA ELECTRIC PROPERTIES CALCULATION
------------------------------------------------------------------------------

Dipole Moment Calculation                       ... on
Quadrupole Moment Calculation                   ... off
Polarizability Calculation                      ... off
GBWName                                         ... /scratch/allen/tmpyp4_amber_gaff2/conf1/conf1/Conf232.orca.gbw
Electron density                                ... /scratch/allen/tmpyp4_amber_gaff2/conf1/conf1/Conf232.orca.scfp
The origin for moment calculation is the CENTER OF MASS  = ( 0.001897, -0.002746 -0.001572)

-------------
DIPOLE MOMENT
-------------
                                X             Y             Z
Electronic contribution:      0.68515      -2.07793      -0.12662
Nuclear contribution   :      0.07868       0.24024       0.13562
                        -----------------------------------------
Total Dipole Moment    :      0.76382      -1.83770       0.00900
                        -----------------------------------------
Magnitude (a.u.)       :      1.99013
Magnitude (Debye)      :      5.05852



--------------------
Rotational spectrum 
--------------------
 
Rotational constants in cm-1:     0.001499     0.001476     0.000762 
Rotational constants in MHz :    44.939081    44.238716    22.831598 

 Dipole components along the rotational axes: 
x,y,z [a.u.] :     1.292834    -1.512999     0.006707 
x,y,z [Debye]:     3.286123    -3.845738     0.017049 

 

Timings for individual modules:

Sum of individual times         ...     4756.540 sec (=  79.276 min)
GTO integral calculation        ...        3.666 sec (=   0.061 min)   0.1 %
SCF iterations                  ...     1663.250 sec (=  27.721 min)  35.0 %
MP2 module                      ...     3089.624 sec (=  51.494 min)  65.0 %
                             ****ORCA TERMINATED NORMALLY****
TOTAL RUN TIME: 0 days 1 hours 19 minutes 19 seconds 984 msec
# of primitive gaussian functions

