
                                 *****************
                                 * O   R   C   A *
                                 *****************

                                            #,                                       
                                            ###                                      
                                            ####                                     
                                            #####                                    
                                            ######                                   
                                           ########,                                 
                                     ,,################,,,,,                         
                               ,,#################################,,                 
                          ,,##########################################,,             
                       ,#########################################, ''#####,          
                    ,#############################################,,   '####,        
                  ,##################################################,,,,####,       
                ,###########''''           ''''###############################       
              ,#####''   ,,,,##########,,,,          '''####'''          '####       
            ,##' ,,,,###########################,,,                        '##       
           ' ,,###''''                  '''############,,,                           
         ,,##''                                '''############,,,,        ,,,,,,###''
      ,#''                                            '''#######################'''  
     '                                                          ''''####''''         
             ,#######,   #######,   ,#######,      ##                                
            ,#'     '#,  ##    ##  ,#'     '#,    #''#        ######   ,####,        
            ##       ##  ##   ,#'  ##            #'  '#       #        #'  '#        
            ##       ##  #######   ##           ,######,      #####,   #    #        
            '#,     ,#'  ##    ##  '#,     ,#' ,#      #,         ##   #,  ,#        
             '#######'   ##     ##  '#######'  #'      '#     #####' # '####'        



                  #######################################################
                  #                        -***-                        #
                  #          Department of theory and spectroscopy      #
                  #    Directorship and core code : Frank Neese         #
                  #        Max Planck Institute fuer Kohlenforschung    #
                  #                Kaiser Wilhelm Platz 1               #
                  #                 D-45470 Muelheim/Ruhr               #
                  #                      Germany                        #
                  #                                                     #
                  #                  All rights reserved                #
                  #                        -***-                        #
                  #######################################################


                         Program Version 5.0.4 -  RELEASE  -


 With contributions from (in alphabetic order):
   Daniel Aravena         : Magnetic Suceptibility
   Michael Atanasov       : Ab Initio Ligand Field Theory (pilot matlab implementation)
   Alexander A. Auer      : GIAO ZORA, VPT2 properties, NMR spectrum
   Ute Becker             : Parallelization
   Giovanni Bistoni       : ED, misc. LED, open-shell LED, HFLD
   Martin Brehm           : Molecular dynamics
   Dmytro Bykov           : SCF Hessian
   Vijay G. Chilkuri      : MRCI spin determinant printing, contributions to CSF-ICE
   Dipayan Datta          : RHF DLPNO-CCSD density
   Achintya Kumar Dutta   : EOM-CC, STEOM-CC
   Dmitry Ganyushin       : Spin-Orbit,Spin-Spin,Magnetic field MRCI
   Miquel Garcia          : C-PCM and meta-GGA Hessian, CC/C-PCM, Gaussian charge scheme
   Yang Guo               : DLPNO-NEVPT2, F12-NEVPT2, CIM, IAO-localization
   Andreas Hansen         : Spin unrestricted coupled pair/coupled cluster methods
   Benjamin Helmich-Paris : MC-RPA, TRAH-SCF, COSX integrals
   Lee Huntington         : MR-EOM, pCC
   Robert Izsak           : Overlap fitted RIJCOSX, COSX-SCS-MP3, EOM
   Marcus Kettner         : VPT2
   Christian Kollmar      : KDIIS, OOCD, Brueckner-CCSD(T), CCSD density, CASPT2, CASPT2-K
   Simone Kossmann        : Meta GGA functionals, TD-DFT gradient, OOMP2, MP2 Hessian
   Martin Krupicka        : Initial AUTO-CI
   Lucas Lang             : DCDCAS
   Marvin Lechner         : AUTO-CI (C++ implementation), FIC-MRCC
   Dagmar Lenk            : GEPOL surface, SMD
   Dimitrios Liakos       : Extrapolation schemes; Compound Job, initial MDCI parallelization
   Dimitrios Manganas     : Further ROCIS development; embedding schemes
   Dimitrios Pantazis     : SARC Basis sets
   Anastasios Papadopoulos: AUTO-CI, single reference methods and gradients
   Taras Petrenko         : DFT Hessian,TD-DFT gradient, ASA, ECA, R-Raman, ABS, FL, XAS/XES, NRVS
   Peter Pinski           : DLPNO-MP2, DLPNO-MP2 Gradient
   Christoph Reimann      : Effective Core Potentials
   Marius Retegan         : Local ZFS, SOC
   Christoph Riplinger    : Optimizer, TS searches, QM/MM, DLPNO-CCSD(T), (RO)-DLPNO pert. Triples
   Tobias Risthaus        : Range-separated hybrids, TD-DFT gradient, RPA, STAB
   Michael Roemelt        : Original ROCIS implementation
   Masaaki Saitow         : Open-shell DLPNO-CCSD energy and density
   Barbara Sandhoefer     : DKH picture change effects
   Avijit Sen             : IP-ROCIS
   Kantharuban Sivalingam : CASSCF convergence, NEVPT2, FIC-MRCI
   Bernardo de Souza      : ESD, SOC TD-DFT
   Georgi Stoychev        : AutoAux, RI-MP2 NMR, DLPNO-MP2 response
   Willem Van den Heuvel  : Paramagnetic NMR
   Boris Wezisla          : Elementary symmetry handling
   Frank Wennmohs         : Technical directorship


 We gratefully acknowledge several colleagues who have allowed us to
 interface, adapt or use parts of their codes:
   Stefan Grimme, W. Hujo, H. Kruse, P. Pracht,  : VdW corrections, initial TS optimization,
                  C. Bannwarth, S. Ehlert          DFT functionals, gCP, sTDA/sTD-DF
   Ed Valeev, F. Pavosevic, A. Kumar             : LibInt (2-el integral package), F12 methods
   Garnet Chan, S. Sharma, J. Yang, R. Olivares  : DMRG
   Ulf Ekstrom                                   : XCFun DFT Library
   Mihaly Kallay                                 : mrcc  (arbitrary order and MRCC methods)
   Jiri Pittner, Ondrej Demel                    : Mk-CCSD
   Frank Weinhold                                : gennbo (NPA and NBO analysis)
   Christopher J. Cramer and Donald G. Truhlar   : smd solvation model
   Lars Goerigk                                  : TD-DFT with DH, B97 family of functionals
   V. Asgeirsson, H. Jonsson                     : NEB implementation
   FAccTs GmbH                                   : IRC, NEB, NEB-TS, DLPNO-Multilevel, CI-OPT
                                                   MM, QMMM, 2- and 3-layer-ONIOM, Crystal-QMMM,
                                                   LR-CPCM, SF, NACMEs, symmetry and pop. for TD-DFT,
                                                   nearIR, NL-DFT gradient (VV10), updates on ESD,
                                                   ML-optimized integration grids
   S Lehtola, MJT Oliveira, MAL Marques          : LibXC Library
   Liviu Ungur et al                             : ANISO software


 Your calculation uses the libint2 library for the computation of 2-el integrals
 For citations please refer to: http://libint.valeyev.net

 Your ORCA version has been built with support for libXC version: 5.1.0
 For citations please refer to: https://tddft.org/programs/libxc/

 This ORCA versions uses:
   CBLAS   interface :  Fast vector & matrix operations
   LAPACKE interface :  Fast linear algebra routines
   SCALAPACK package :  Parallel linear algebra routines
   Shared memory     :  Shared parallel matrices
   BLAS/LAPACK       :  OpenBLAS 0.3.15  USE64BITINT DYNAMIC_ARCH NO_AFFINITY Sandybridge SINGLE_THREADED
        Core in use  :  Sandybridge
   Copyright (c) 2011-2014, The OpenBLAS Project


================================================================================

----- Orbital basis set information -----
Your calculation utilizes the basis: cc-pVDZ 
       H, B-Ne : Obtained from the ccRepo (grant-hill.group.shef.ac.uk/ccrepo) Feb. 2017
                 T. H. Dunning, Jr., J. Chem. Phys. 90, 1007 (1989)
            He : Obtained from the ccRepo (grant-hill.group.shef.ac.uk/ccrepo) Feb. 2017
                 D. E. Woon, T. H. Dunning, Jr., J. Chem. Phys. 100, 2975 (1994)
  Li-Be, Na-Mg : Obtained from the ccRepo (grant-hill.group.shef.ac.uk/ccrepo) Feb. 2017
                 B. P. Prascher, D. E. Woon, K. A. Peterson, T. H. Dunning, Jr., A. K. Wilson, Theor. Chem. Acc. 128, 69 (2011)
         Al-Ar : Obtained from the ccRepo (grant-hill.group.shef.ac.uk/ccrepo) Feb. 2017
                 D. E. Woon, T. H. Dunning, Jr., J. Chem. Phys. 98, 1358 (1993)
            Ca : Obtained from the Peterson Research Group Website (tyr0.chem.wsu.edu/~kipeters) Feb. 2017
                 J. Koput, K. A. Peterson, J. Phys. Chem. 106, 9595 (2002)
         Sc-Zn : Obtained from the ccRepo (grant-hill.group.shef.ac.uk/ccrepo) Feb. 2017
                 N. B. Balabanov, K. A. Peterson, J. Chem. Phys. 123, 064107 (2005)
                 N. B. Balabanov, K. A. Peterson, J. Chem. Phys. 125, 074110 (2006)
         Ga-Kr : Obtained from the ccRepo (grant-hill.group.shef.ac.uk/ccrepo) Feb. 2017
                 A. K. Wilson, D. E. Woon, K. A. Peterson, T. H. Dunning, Jr., J. Chem. Phys. 110, 7667 (1999)

================================================================================
                                        WARNINGS
                       Please study these warnings very carefully!
================================================================================


WARNING: No MP2 level density has been requested!
         To caclulate MP2 level properties use
         %mp2 Density relaxed end
         or
         %mp2 Density unrelaxed end

WARNING: Post HF methods need fully converged wavefunctions
  ===> : Setting SCFConvForced true
         You can overwrite this default with %scf ConvForced false 


INFO   : the flag for use of the SHARK integral package has been found!

================================================================================
                                       INPUT FILE
================================================================================
NAME = /scratch/allen/tmpyp4_amber_gaff2/2.Mdgx/conf11/conf11/Conf97.orca
|  1> ! PAL2
|  2> ! mp2 cc-pvdz TightSCF  NoKeepInts
|  3> 
|  4> %scf
|  5>   MaxCore 2000
|  6> end
|  7> %mp2
|  8>   MaxCore 2000
|  9> end
| 10> * xyz 0 1
| 11>    C       -4.08200         5.80200        -1.07600
| 12>    C        1.47400         4.04100         0.05700
| 13>    C       -2.80200         4.09300         0.04900
| 14>    C       -3.10500         4.73500         1.26000
| 15>    C       -3.88100         5.87700         1.26400
| 16>    C       -5.21500         7.60000         0.15000
| 17>    C        0.13200         4.30700         0.06100
| 18>    C       -0.56900         3.05600         0.04700
| 19>    C        1.64900         2.61800         0.02300
| 20>    C       -3.31400         4.65500        -1.13100
| 21>    N       -4.35500         6.39700         0.10800
| 22>    N        0.38800         2.06700         0.02500
| 23>    N       -2.01000         0.39500        -0.07500
| 24>    N       -0.38800        -2.07400        -0.02700
| 25>    N        2.01000        -0.40100         0.06500
| 26>    C       -1.96000         2.86100         0.02400
| 27>    C       -2.62300         1.61500        -0.01800
| 28>    C       -5.57300        -4.32900         1.06600
| 29>    C       -4.07300         1.47100         0.05600
| 30>    C       -4.10600        -2.75600        -0.02600
| 31>    C       -4.99500        -2.75700        -1.11100
| 32>    C       -6.13200        -3.54200        -1.07600
| 33>    C       -7.65100        -5.11300         0.04000
| 34>    C       -4.32400         0.14100         0.03700
| 35>    C       -3.02500        -0.52000        -0.04800
| 36>    C       -4.42200        -3.56600         1.07500
| 37>    N       -6.40700        -4.31300         0.00100
| 38>    C       -2.86700        -1.92200        -0.04000
| 39>    C       -1.65000        -2.62400        -0.02700
| 40>    C        3.56800        -6.14200        -1.04000
| 41>    C       -1.47600        -4.04900        -0.03400
| 42>    C        2.80300        -4.09900        -0.00800
| 43>    C        3.65700        -4.38400         1.06900
| 44>    C        4.42700        -5.53000         1.05900
| 45>    C        5.24500        -7.58800         0.01400
| 46>    C       -0.13400        -4.31500        -0.02200
| 47>    C        0.56800        -3.06400        -0.02700
| 48>    C        2.77500        -5.01200        -1.07400
| 49>    N        4.37600        -6.39100         0.01700
| 50>    C        1.95900        -2.86900        -0.00900
| 51>    C        2.62100        -1.62200         0.00900
| 52>    C        5.54300         4.33900        -1.13000
| 53>    C        4.07000        -1.47900        -0.09400
| 54>    C        4.10400         2.75100        -0.02100
| 55>    C        5.02700         2.72900         1.03600
| 56>    C        6.16600         3.50900         0.97800
| 57>    C        7.61900         5.15300        -0.11500
| 58>    C        4.32100        -0.14800        -0.09200
| 59>    C        3.02500         0.51400         0.01500
| 60>    C        4.38700         3.58200        -1.11500
| 61>    C        2.86600         1.91600         0.01300
| 62>    N        6.41300         4.29600        -0.09500
| 63>    H       -4.48700         6.27700        -1.96100
| 64>    H        2.27400         4.76600         0.08100
| 65>    H       -2.74700         4.34400         2.20400
| 66>    H       -4.14800         6.40100         2.17300
| 67>    H       -6.25000         7.29100         0.31300
| 68>    H       -4.88200         8.24200         0.96500
| 69>    H       -5.12700         8.12700        -0.80000
| 70>    H       -0.33200         5.28200         0.06900
| 71>    H       -3.10400         4.21400        -2.09800
| 72>    H        0.18200         1.07200         0.00500
| 73>    H       -0.18300        -1.08000        -0.02100
| 74>    H       -5.86400        -4.96200         1.89500
| 75>    H       -4.79400         2.27200         0.13900
| 76>    H       -4.80000        -2.16000        -1.99400
| 77>    H       -6.84100        -3.58200        -1.89300
| 78>    H       -8.42800        -4.53600         0.54600
| 79>    H       -7.95600        -5.33700        -0.98100
| 80>    H       -7.45600        -6.03700         0.58400
| 81>    H       -5.28700        -0.34400         0.10000
| 82>    H       -3.78000        -3.60100         1.94700
| 83>    H        3.58700        -6.86800        -1.84300
| 84>    H       -2.27600        -4.77400        -0.05000
| 85>    H        3.71400        -3.72400         1.92600
| 86>    H        5.09200        -5.79500         1.87100
| 87>    H        6.20500        -7.32900        -0.43900
| 88>    H        5.39300        -7.91700         1.04200
| 89>    H        4.75900        -8.37300        -0.56400
| 90>    H        0.32900        -5.29000        -0.00800
| 91>    H        2.14600        -4.84200        -1.94000
| 92>    H        5.80800         4.98600        -1.95600
| 93>    H        4.78800        -2.28100        -0.18500
| 94>    H        4.86000         2.11400         1.91200
| 95>    H        6.90100         3.53100         1.77200
| 96>    H        7.38300         6.10900         0.35600
| 97>    H        8.41400         4.65200         0.43500
| 98>    H        7.92100         5.31000        -1.15000
| 99>    H        5.28300         0.33600        -0.17900
|100>    H        3.72000         3.63200        -1.96700
|101> *
|102> 
|103>                          ****END OF INPUT****
================================================================================

                       ****************************
                       * Single Point Calculation *
                       ****************************

---------------------------------
CARTESIAN COORDINATES (ANGSTROEM)
---------------------------------
  C     -4.082000    5.802000   -1.076000
  C      1.474000    4.041000    0.057000
  C     -2.802000    4.093000    0.049000
  C     -3.105000    4.735000    1.260000
  C     -3.881000    5.877000    1.264000
  C     -5.215000    7.600000    0.150000
  C      0.132000    4.307000    0.061000
  C     -0.569000    3.056000    0.047000
  C      1.649000    2.618000    0.023000
  C     -3.314000    4.655000   -1.131000
  N     -4.355000    6.397000    0.108000
  N      0.388000    2.067000    0.025000
  N     -2.010000    0.395000   -0.075000
  N     -0.388000   -2.074000   -0.027000
  N      2.010000   -0.401000    0.065000
  C     -1.960000    2.861000    0.024000
  C     -2.623000    1.615000   -0.018000
  C     -5.573000   -4.329000    1.066000
  C     -4.073000    1.471000    0.056000
  C     -4.106000   -2.756000   -0.026000
  C     -4.995000   -2.757000   -1.111000
  C     -6.132000   -3.542000   -1.076000
  C     -7.651000   -5.113000    0.040000
  C     -4.324000    0.141000    0.037000
  C     -3.025000   -0.520000   -0.048000
  C     -4.422000   -3.566000    1.075000
  N     -6.407000   -4.313000    0.001000
  C     -2.867000   -1.922000   -0.040000
  C     -1.650000   -2.624000   -0.027000
  C      3.568000   -6.142000   -1.040000
  C     -1.476000   -4.049000   -0.034000
  C      2.803000   -4.099000   -0.008000
  C      3.657000   -4.384000    1.069000
  C      4.427000   -5.530000    1.059000
  C      5.245000   -7.588000    0.014000
  C     -0.134000   -4.315000   -0.022000
  C      0.568000   -3.064000   -0.027000
  C      2.775000   -5.012000   -1.074000
  N      4.376000   -6.391000    0.017000
  C      1.959000   -2.869000   -0.009000
  C      2.621000   -1.622000    0.009000
  C      5.543000    4.339000   -1.130000
  C      4.070000   -1.479000   -0.094000
  C      4.104000    2.751000   -0.021000
  C      5.027000    2.729000    1.036000
  C      6.166000    3.509000    0.978000
  C      7.619000    5.153000   -0.115000
  C      4.321000   -0.148000   -0.092000
  C      3.025000    0.514000    0.015000
  C      4.387000    3.582000   -1.115000
  C      2.866000    1.916000    0.013000
  N      6.413000    4.296000   -0.095000
  H     -4.487000    6.277000   -1.961000
  H      2.274000    4.766000    0.081000
  H     -2.747000    4.344000    2.204000
  H     -4.148000    6.401000    2.173000
  H     -6.250000    7.291000    0.313000
  H     -4.882000    8.242000    0.965000
  H     -5.127000    8.127000   -0.800000
  H     -0.332000    5.282000    0.069000
  H     -3.104000    4.214000   -2.098000
  H      0.182000    1.072000    0.005000
  H     -0.183000   -1.080000   -0.021000
  H     -5.864000   -4.962000    1.895000
  H     -4.794000    2.272000    0.139000
  H     -4.800000   -2.160000   -1.994000
  H     -6.841000   -3.582000   -1.893000
  H     -8.428000   -4.536000    0.546000
  H     -7.956000   -5.337000   -0.981000
  H     -7.456000   -6.037000    0.584000
  H     -5.287000   -0.344000    0.100000
  H     -3.780000   -3.601000    1.947000
  H      3.587000   -6.868000   -1.843000
  H     -2.276000   -4.774000   -0.050000
  H      3.714000   -3.724000    1.926000
  H      5.092000   -5.795000    1.871000
  H      6.205000   -7.329000   -0.439000
  H      5.393000   -7.917000    1.042000
  H      4.759000   -8.373000   -0.564000
  H      0.329000   -5.290000   -0.008000
  H      2.146000   -4.842000   -1.940000
  H      5.808000    4.986000   -1.956000
  H      4.788000   -2.281000   -0.185000
  H      4.860000    2.114000    1.912000
  H      6.901000    3.531000    1.772000
  H      7.383000    6.109000    0.356000
  H      8.414000    4.652000    0.435000
  H      7.921000    5.310000   -1.150000
  H      5.283000    0.336000   -0.179000
  H      3.720000    3.632000   -1.967000

----------------------------
CARTESIAN COORDINATES (A.U.)
----------------------------
  NO LB      ZA    FRAG     MASS         X           Y           Z
   0 C     6.0000    0    12.011   -7.713862   10.964191   -2.033345
   1 C     6.0000    0    12.011    2.785456    7.636383    0.107714
   2 C     6.0000    0    12.011   -5.295013    7.734649    0.092597
   3 C     6.0000    0    12.011   -5.867600    8.947853    2.381055
   4 C     6.0000    0    12.011   -7.334027   11.105920    2.388614
   5 C     6.0000    0    12.011   -9.854922   14.361919    0.283459
   6 C     6.0000    0    12.011    0.249444    8.139050    0.115273
   7 C     6.0000    0    12.011   -1.075254    5.775003    0.088817
   8 C     6.0000    0    12.011    3.116158    4.947303    0.043464
   9 C     6.0000    0    12.011   -6.262552    8.796675   -2.137280
  10 N     7.0000    0    14.007   -8.229757   12.088578    0.204090
  11 N     7.0000    0    14.007    0.733214    3.906064    0.047243
  12 N     7.0000    0    14.007   -3.798350    0.746442   -0.141729
  13 N     7.0000    0    14.007   -0.733214   -3.919292   -0.051023
  14 N     7.0000    0    14.007    3.798350   -0.757780    0.122832
  15 C     6.0000    0    12.011   -3.703863    5.406506    0.045353
  16 C     6.0000    0    12.011   -4.956752    3.051908   -0.034015
  17 C     6.0000    0    12.011  -10.531444   -8.180624    2.014448
  18 C     6.0000    0    12.011   -7.696855    2.779787    0.105825
  19 C     6.0000    0    12.011   -7.759216   -5.208085   -0.049133
  20 C     6.0000    0    12.011   -9.439182   -5.209975   -2.099486
  21 C     6.0000    0    12.011  -11.587801   -6.693410   -2.033345
  22 C     6.0000    0    12.011  -14.458295   -9.662170    0.075589
  23 C     6.0000    0    12.011   -8.171176    0.266451    0.069920
  24 C     6.0000    0    12.011   -5.716422   -0.982658   -0.090707
  25 C     6.0000    0    12.011   -8.356369   -6.738763    2.031456
  26 N     7.0000    0    14.007  -12.107475   -8.150389    0.001890
  27 C     6.0000    0    12.011   -5.417845   -3.632054   -0.075589
  28 C     6.0000    0    12.011   -3.118048   -4.958641   -0.051023
  29 C     6.0000    0    12.011    6.742543  -11.606698   -1.965315
  30 C     6.0000    0    12.011   -2.789236   -7.651501   -0.064251
  31 C     6.0000    0    12.011    5.296902   -7.745987   -0.015118
  32 C     6.0000    0    12.011    6.910728   -8.284559    2.020117
  33 C     6.0000    0    12.011    8.365818  -10.450186    2.001220
  34 C     6.0000    0    12.011    9.911614  -14.339242    0.026456
  35 C     6.0000    0    12.011   -0.253223   -8.154168   -0.041574
  36 C     6.0000    0    12.011    1.073364   -5.790121   -0.051023
  37 C     6.0000    0    12.011    5.243990   -9.471307   -2.029566
  38 N     7.0000    0    14.007    8.269442  -12.077240    0.032125
  39 C     6.0000    0    12.011    3.701973   -5.421624   -0.017008
  40 C     6.0000    0    12.011    4.952972   -3.065136    0.017008
  41 C     6.0000    0    12.011   10.474752    8.199522   -2.135391
  42 C     6.0000    0    12.011    7.691185   -2.794905   -0.177634
  43 C     6.0000    0    12.011    7.755436    5.198637   -0.039684
  44 C     6.0000    0    12.011    9.499653    5.157063    1.957756
  45 C     6.0000    0    12.011   11.652051    6.631049    1.848152
  46 C     6.0000    0    12.011   14.397823    9.737759   -0.217319
  47 C     6.0000    0    12.011    8.165507   -0.279679   -0.173855
  48 C     6.0000    0    12.011    5.716422    0.971319    0.028346
  49 C     6.0000    0    12.011    8.290229    6.768999   -2.107045
  50 C     6.0000    0    12.011    5.415955    3.620715    0.024566
  51 N     7.0000    0    14.007   12.118814    8.118263   -0.179524
  52 H     1.0000    0     1.008   -8.479201   11.861811   -3.705753
  53 H     1.0000    0     1.008    4.297237    9.006435    0.153068
  54 H     1.0000    0     1.008   -5.191078    8.208970    4.164956
  55 H     1.0000    0     1.008   -7.838584   12.096137    4.106375
  56 H     1.0000    0     1.008  -11.810788   13.777993    0.591484
  57 H     1.0000    0     1.008   -9.225643   15.575123    1.823586
  58 H     1.0000    0     1.008   -9.688626   15.357804   -1.511781
  59 H     1.0000    0     1.008   -0.627389    9.981533    0.130391
  60 H     1.0000    0     1.008   -5.865710    7.963306   -3.964645
  61 H     1.0000    0     1.008    0.343930    2.025786    0.009449
  62 H     1.0000    0     1.008   -0.345820   -2.040904   -0.039684
  63 H     1.0000    0     1.008  -11.081354   -9.376821    3.581031
  64 H     1.0000    0     1.008   -9.059347    4.293458    0.262672
  65 H     1.0000    0     1.008   -9.070685   -4.081808   -3.768114
  66 H     1.0000    0     1.008  -12.927616   -6.768999   -3.577252
  67 H     1.0000    0     1.008  -15.926612   -8.571798    1.031790
  68 H     1.0000    0     1.008  -15.034661  -10.085468   -1.853821
  69 H     1.0000    0     1.008  -14.089798  -11.408277    1.103600
  70 H     1.0000    0     1.008   -9.990982   -0.650066    0.188973
  71 H     1.0000    0     1.008   -7.143165   -6.804904    3.679297
  72 H     1.0000    0     1.008    6.778448  -12.978639   -3.482765
  73 H     1.0000    0     1.008   -4.301017   -9.021553   -0.094486
  74 H     1.0000    0     1.008    7.018443   -7.037340    3.639613
  75 H     1.0000    0     1.008    9.622485  -10.950963    3.535678
  76 H     1.0000    0     1.008   11.725751  -13.849803   -0.829590
  77 H     1.0000    0     1.008   10.191293  -14.960962    1.969095
  78 H     1.0000    0     1.008    8.993207  -15.822677   -1.065806
  79 H     1.0000    0     1.008    0.621720   -9.996651   -0.015118
  80 H     1.0000    0     1.008    4.055352   -9.150054   -3.666069
  81 H     1.0000    0     1.008   10.975529    9.422175   -3.696304
  82 H     1.0000    0     1.008    9.048009   -4.310465   -0.349599
  83 H     1.0000    0     1.008    9.184069    3.994881    3.613156
  84 H     1.0000    0     1.008   13.041000    6.672623    3.348595
  85 H     1.0000    0     1.008   13.951848   11.544337    0.672743
  86 H     1.0000    0     1.008   15.900156    8.791006    0.822031
  87 H     1.0000    0     1.008   14.968521   10.034446   -2.173185
  88 H     1.0000    0     1.008    9.983423    0.634948   -0.338261
  89 H     1.0000    0     1.008    7.029781    6.863485   -3.717091

--------------------------------
INTERNAL COORDINATES (ANGSTROEM)
--------------------------------
 C      0   0   0     0.000000000000     0.00000000     0.00000000
 C      1   0   0     5.937503347367     0.00000000     0.00000000
 C      1   2   0     2.413442769158    37.32072223     0.00000000
 C      3   1   2     1.403742853944    87.92539349   103.77039055
 C      4   3   1     1.380708513771   120.13855418     0.11650042
 C      5   4   3     2.447300757978   152.54323191     1.66200079
 C      2   1   3     1.368114030335    12.84034859   331.86289334
 C      7   2   3     1.434084376876   108.05010202     0.84668783
 C      2   1   3     1.434123425651   113.82535465    38.33270585
 C      1   2   3     1.381469507445    40.63591859   311.32623091
 N      1   2   3     1.352926457720    98.75796008    79.36518551
 N      9   2   1     1.376127174356   106.58526707   346.85058721
 N     12   9   2     2.925062050624   168.53581413   171.12065651
 N     13  12   9     2.954513327098    91.55032014    11.12112580
 N     14  13  12     2.925371258490    88.43092389   359.84326247
 C      8   7   2     1.404790019896   127.24786865   181.11170171
 C     13  12   9     1.366535034311    81.72106996   188.00453233
 C     14  13  12     5.758810554272    80.56209567   166.76250791
 C     17  13  12     1.459010623676   111.08861209   183.82872609
 C     18  14  13     2.412235892279    27.27532823    36.33507194
 C     20  18  14     1.402692767501    87.95206320   148.94598259
 C     21  20  18     1.382106725257   120.14573887   359.70382047
 C     18  14  13     2.446510985056   144.15733107    82.80075377
 C     19  17  13     1.353610726908   106.29293361   359.75308708
 C     13  12   9     1.366813447402   172.21332906    33.46711076
 C     18  14  13     1.380960173213    15.08449437   309.23336894
 N     22  21  20     1.352773077792   120.73759875     0.27865223
 C     25  13  17     1.410897586645   125.60330303   182.37774668
 C     14  13  12     1.376642291955    80.24689249   177.85461986
 C     14  13  12     5.764089607215   164.51507311   312.20821879
 C     29  14  13     1.435600919476   106.58649366   178.76395472
 C     30  14  13     2.413316804732    27.10625047    82.12560436
 C     32  30  14     1.403734305344    87.90059683   149.76154742
 C     33  32  30     1.380694028378   120.14881443   359.74174632
 C     34  33  32     2.448777858443   152.49203239     2.45173620
 C     31  29  14     1.368160809262   108.16950133     0.70383075
 C     14  13  12     1.376239804685   169.26375223   353.09862627
 C     30  14  13     1.380907310430    14.68948582   353.70041132
 N     34  33  32     1.352658863128   120.85575621     0.19603406
 C     37  14  29     1.404717053360   126.01551127   180.90772073
 C     15  14  13     1.366491126938    81.61824056   183.09049352
 C      2   1   3     4.249062720177   145.28399637   160.60248422
 C     41  15  14     1.459677704153   111.05201287   175.08990246
 C     42   2   1     2.412953791518    41.78584867   207.12564760
 C     44  42   2     1.403446472082    87.95153797   233.97558675
 C     45  44  42     1.381696421071   120.11137308     0.19721020
 C     42   2   1     2.450019795838   135.97209175   117.44049670
 C     43  41  15     1.354461516618   106.26758155     0.30894352
 C     15  14  13     1.367461151185   171.87382904   332.35056460
 C     42   2   1     1.381886391857    32.59078432   255.98092679
 C      9   2   1     1.404988612053   126.98745415   167.85492474
 N     42   2   1     1.352765315936   113.57249190   145.17708590
 H      1   2   3     1.082993536453   129.49076696   214.82338157
 H      2   1   3     1.079907866440   119.88954085   206.97645581
 H      4   3   1     1.082673080851   121.04117203   179.51117448
 H      5   4   3     1.082656917033   122.77594297   179.43305280
 H      6   5   4     1.092371273881   104.44123011   100.01922948
 H      6   5   4     1.089622870538    84.70760916   209.50233599
 H      6   5   4     1.089941741562   133.88028039   322.32936261
 H      7   2  54     1.079807853278   126.66122480     1.30600390
 H     10   1   2     1.083360512480   118.76877865   245.86389861
 H     12   9   2     1.016297692608   125.29023241   180.00180175
 H     14  13  12     1.014936943854    44.97226959   359.42596618
 H     18  14  13     1.082871645210   128.03556573   234.20482432
 H     19  17  13     1.080893611786   126.41830519   178.11313280
 H     21  20  18     1.083569563987   121.05669627   180.67006309
 H     22  21  20     1.082483256222   122.73097286   180.59748951
 H     23  18  14     1.092105306278   103.92715769   234.93429879
 H     23  18  14     1.088871893291   134.19244188    12.25587044
 H     23  18  14     1.089833473518    84.85857450   125.45241208
 H     24  19  17     1.080075460327   127.28078426   178.44613241
 H     26  18  14     1.083408048706   118.76995697   244.94906660
 H     30  14  13     1.082703098730   127.99711412   279.66882698
 H     31  29  14     1.079759695488   125.22293469   180.92530585
 H     33  32  30     1.083188810873   121.01964473   180.74284758
 H     34  33  32     1.082494341787   122.70821597   180.59516895
 H     35  34  33     1.092652735319   105.73575241    97.19771933
 H     35  34  33     1.089462711615    84.05943581   206.43036958
 H     35  34  33     1.089268102902   133.08365142   318.50306270
 H     36  31  29     1.079439669458   126.61599965   178.98859863
 H     38  30  73     1.083742127999   118.77264435   359.90091293
 H     42   2   1     1.082178358682   119.31790784     1.80861635
 H     43  41  15     1.080281907652   126.36969097   182.06329380
 H     45  44  42     1.083277434455   121.10105945   179.58025624
 H     46  45  44     1.082194529648   122.72144639   179.46906377
 H     47  42   2     1.091546151109   106.65128841   315.16475048
 H     47  42   2     1.088818625851   132.46019523    94.52397119
 H     47  42   2     1.089531091801    83.63838232   206.04504406
 H     48  43  41     1.080402239909   127.23657387   181.62955349
 H     50  42   2     1.083186502870   118.77001737    94.71359229

---------------------------
INTERNAL COORDINATES (A.U.)
---------------------------
 C      0   0   0     0.000000000000     0.00000000     0.00000000
 C      1   0   0    11.220255245765     0.00000000     0.00000000
 C      1   2   0     4.560745873601    37.32072223     0.00000000
 C      3   1   2     2.652689556404    87.92539349   103.77039055
 C      4   3   1     2.609160961801   120.13855418     0.11650042
 C      5   4   3     4.624728199916   152.54323191     1.66200079
 C      2   1   3     2.585360837309    12.84034859   331.86289334
 C      7   2   3     2.710026725231   108.05010202     0.84668783
 C      2   1   3     2.710100516721   113.82535465    38.33270585
 C      1   2   3     2.610599031434    40.63591859   311.32623091
 N      1   2   3     2.556660484428    98.75796008    79.36518551
 N      9   2   1     2.600503484979   106.58526707   346.85058721
 N     12   9   2     5.527566200405   168.53581413   171.12065651
 N     13  12   9     5.583221047236    91.55032014    11.12112580
 N     14  13  12     5.528150518591    88.43092389   359.84326247
 C      8   7   2     2.654668413270   127.24786865   181.11170171
 C     13  12   9     2.582376967257    81.72106996   188.00453233
 C     14  13  12    10.882574804710    80.56209567   166.76250791
 C     17  13  12     2.757130505230   111.08861209   183.82872609
 C     18  14  13     4.558465206823    27.27532823    36.33507194
 C     20  18  14     2.650705180609    87.95206320   148.94598259
 C     21  20  18     2.611803198586   120.14573887   359.70382047
 C     18  14  13     4.623235745386   144.15733107    82.80075377
 C     19  17  13     2.557953565794   106.29293361   359.75308708
 C     13  12   9     2.582903091751   172.21332906    33.46711076
 C     18  14  13     2.609636529225    15.08449437   309.23336894
 N     22  21  20     2.556370638369   120.73759875     0.27865223
 C     25  13  17     2.666210041769   125.60330303   182.37774668
 C     14  13  12     2.601476916169    80.24689249   177.85461986
 C     14  13  12    10.892550769017   164.51507311   312.20821879
 C     29  14  13     2.712892575415   106.58649366   178.76395472
 C     30  14  13     4.560507835333    27.10625047    82.12560436
 C     32  30  14     2.652673401891    87.90059683   149.76154742
 C     33  32  30     2.609133588376   120.14881443   359.74174632
 C     34  33  32     4.627519515267   152.49203239     2.45173620
 C     31  29  14     2.585449236669   108.16950133     0.70383075
 C     14  13  12     2.600716325456   169.26375223   353.09862627
 C     30  14  13     2.609536633043    14.68948582   353.70041132
 N     34  33  32     2.556154803934   120.85575621     0.19603406
 C     37  14  29     2.654530526499   126.01551127   180.90772073
 C     15  14  13     2.582293994346    81.61824056   183.09049352
 C      2   1   3     8.029564866989   145.28399637   160.60248422
 C     41  15  14     2.758391104639   111.05201287   175.08990246
 C     42   2   1     4.559821839776    41.78584867   207.12564760
 C     44  42   2     2.652129475853    87.95153797   233.97558675
 C     45  44  42     2.611027836043   120.11137308     0.19721020
 C     42   2   1     4.629866436820   135.97209175   117.44049670
 C     43  41  15     2.559561325344   106.26758155     0.30894352
 C     15  14  13     2.584127074516   171.87382904   332.35056460
 C     42   2   1     2.611386828803    32.59078432   255.98092679
 C      9   2   1     2.655043698059   126.98745415   167.85492474
 N     42   2   1     2.556355970587   113.57249190   145.17708590
 H      1   2   3     2.046561188704   129.49076696   214.82338157
 H      2   1   3     2.040730117440   119.88954085   206.97645581
 H      4   3   1     2.045955615378   121.04117203   179.51117448
 H      5   4   3     2.045925070188   122.77594297   179.43305280
 H      6   5   4     2.064282544197   104.44123011   100.01922948
 H      6   5   4     2.059088814574    84.70760916   209.50233599
 H      6   5   4     2.059691393482   133.88028039   322.32936261
 H      7   2  54     2.040541119952   126.66122480     1.30600390
 H     10   1   2     2.047254672891   118.76877865   245.86389861
 H     12   9   2     1.920524309565   125.29023241   180.00180175
 H     14  13  12     1.917952867083    44.97226959   359.42596618
 H     18  14  13     2.046330847636   128.03556573   234.20482432
 H     19  17  13     2.042592906181   126.41830519   178.11313280
 H     21  20  18     2.047649722989   121.05669627   180.67006309
 H     22  21  20     2.045596898814   122.73097286   180.59748951
 H     23  18  14     2.063779938267   103.92715769   234.93429879
 H     23  18  14     2.057669673245   134.19244188    12.25587044
 H     23  18  14     2.059486796529    84.85857450   125.45241208
 H     24  19  17     2.041046823986   127.28078426   178.44613241
 H     26  18  14     2.047344503340   118.76995697   244.94906660
 H     30  14  13     2.046012340948   127.99711412   279.66882698
 H     31  29  14     2.040450114918   125.22293469   180.92530585
 H     33  32  30     2.046930203877   121.01964473   180.74284758
 H     34  33  32     2.045617847496   122.70821597   180.59516895
 H     35  34  33     2.064814429233   105.73575241    97.19771933
 H     35  34  33     2.058786158072    84.05943581   206.43036958
 H     35  34  33     2.058418400901   133.08365142   318.50306270
 H     36  31  29     2.039845353366   126.61599965   178.98859863
 H     38  30  73     2.047975821711   118.77264435   359.90091293
 H     42   2   1     2.045020725966   119.31790784     1.80861635
 H     43  41  15     2.041436952892   126.36969097   182.06329380
 H     45  44  42     2.047097678177   121.10105945   179.58025624
 H     46  45  44     2.045051284662   122.72144639   179.46906377
 H     47  42   2     2.062723288131   106.65128841   315.16475048
 H     47  42   2     2.057569012371   132.46019523    94.52397119
 H     47  42   2     2.058915377895    83.63838232   206.04504406
 H     48  43  41     2.041664347903   127.23657387   181.62955349
 H     50  42   2     2.046925842384   118.77001737    94.71359229

---------------------
BASIS SET INFORMATION
---------------------
There are 3 groups of distinct atoms

 Group   1 Type C   : 17s4p1d contracted to 3s2p1d pattern {881/31/1}
 Group   2 Type N   : 17s4p1d contracted to 3s2p1d pattern {881/31/1}
 Group   3 Type H   : 4s1p contracted to 2s1p pattern {31/1}

Atom   0C    basis set group =>   1
Atom   1N    basis set group =>   2
Atom   2C    basis set group =>   1
Atom   3N    basis set group =>   2
Atom   4C    basis set group =>   1
Atom   5N    basis set group =>   2
Atom   6C    basis set group =>   1
Atom   7N    basis set group =>   2
Atom   8C    basis set group =>   1
Atom   9N    basis set group =>   2
Atom  10C    basis set group =>   1
Atom  11N    basis set group =>   2
Atom  12C    basis set group =>   1
Atom  13N    basis set group =>   2
Atom  14C    basis set group =>   1
Atom  15N    basis set group =>   2
Atom  16C    basis set group =>   1
Atom  17C    basis set group =>   1
Atom  18C    basis set group =>   1
Atom  19C    basis set group =>   1
Atom  20C    basis set group =>   1
Atom  21C    basis set group =>   1
Atom  22C    basis set group =>   1
Atom  23C    basis set group =>   1
Atom  24C    basis set group =>   1
Atom  25C    basis set group =>   1
Atom  26C    basis set group =>   1
Atom  27C    basis set group =>   1
Atom  28C    basis set group =>   1
Atom  29C    basis set group =>   1
Atom  30C    basis set group =>   1
Atom  31C    basis set group =>   1
Atom  32C    basis set group =>   1
Atom  33C    basis set group =>   1
Atom  34C    basis set group =>   1
Atom  35C    basis set group =>   1
Atom  36C    basis set group =>   1
Atom  37C    basis set group =>   1
Atom  38C    basis set group =>   1
Atom  39C    basis set group =>   1
Atom  40C    basis set group =>   1
Atom  41C    basis set group =>   1
Atom  42C    basis set group =>   1
Atom  43C    basis set group =>   1
Atom  44C    basis set group =>   1
Atom  45C    basis set group =>   1
Atom  46C    basis set group =>   1
Atom  47C    basis set group =>   1
Atom  48C    basis set group =>   1
Atom  49C    basis set group =>   1
Atom  50C    basis set group =>   1
Atom  51C    basis set group =>   1
Atom  52H    basis set group =>   3
Atom  53H    basis set group =>   3
Atom  54H    basis set group =>   3
Atom  55H    basis set group =>   3
Atom  56H    basis set group =>   3
Atom  57H    basis set group =>   3
Atom  58H    basis set group =>   3
Atom  59H    basis set group =>   3
Atom  60H    basis set group =>   3
Atom  61H    basis set group =>   3
Atom  62H    basis set group =>   3
Atom  63H    basis set group =>   3
Atom  64H    basis set group =>   3
Atom  65H    basis set group =>   3
Atom  66H    basis set group =>   3
Atom  67H    basis set group =>   3
Atom  68H    basis set group =>   3
Atom  69H    basis set group =>   3
Atom  70H    basis set group =>   3
Atom  71H    basis set group =>   3
Atom  72H    basis set group =>   3
Atom  73H    basis set group =>   3
Atom  74H    basis set group =>   3
Atom  75H    basis set group =>   3
Atom  76H    basis set group =>   3
Atom  77H    basis set group =>   3
Atom  78H    basis set group =>   3
Atom  79H    basis set group =>   3
Atom  80H    basis set group =>   3
Atom  81H    basis set group =>   3
Atom  82H    basis set group =>   3
Atom  83H    basis set group =>   3
Atom  84H    basis set group =>   3
Atom  85H    basis set group =>   3
Atom  86H    basis set group =>   3
Atom  87H    basis set group =>   3
Atom  88H    basis set group =>   3
Atom  89H    basis set group =>   3


           ************************************************************
           *        Program running with 16 parallel MPI-processes    *
           *              working on a common directory               *
           ************************************************************
------------------------------------------------------------------------------
                           ORCA GTO INTEGRAL CALCULATION
------------------------------------------------------------------------------
------------------------------------------------------------------------------
                   ___                                                        
                  /   \      - P O W E R E D   B Y -                         
                 /     \                                                     
                 |  |  |   _    _      __       _____    __    __             
                 |  |  |  | |  | |    /  \     |  _  \  |  |  /  |          
                  \  \/   | |  | |   /    \    | | | |  |  | /  /          
                 / \  \   | |__| |  /  /\  \   | |_| |  |  |/  /          
                |  |  |   |  __  | /  /__\  \  |    /   |      \           
                |  |  |   | |  | | |   __   |  |    \   |  |\   \          
                \     /   | |  | | |  |  |  |  | |\  \  |  | \   \       
                 \___/    |_|  |_| |__|  |__|  |_| \__\ |__|  \__/        
                                                                              
                      - O R C A' S   B I G   F R I E N D -                    
                                      &                                       
                       - I N T E G R A L  F E E D E R -                       
                                                                              
 v1 FN, 2020, v2 2021                                                         
------------------------------------------------------------------------------


Reading SHARK input file /scratch/allen/tmpyp4_amber_gaff2/conf1/conf1/Conf97.orca.SHARKINP.tmp ... ok
----------------------
SHARK INTEGRAL PACKAGE
----------------------

Number of atoms                             ...     90
Number of basis functions                   ...   1230
Number of shells                            ...    738
Maximum angular momentum                    ...      2
Integral batch strategy                     ... SHARK/LIBINT Hybrid
RI-J (if used) integral strategy            ... SPLIT-RIJ (Revised 2003 algorithm where possible)
Printlevel                                  ...      1
Contraction scheme used                     ... PARTIAL GENERAL contraction
Coulomb Range Separation                    ... NOT USED
Exchange Range Separation                   ... NOT USED
Finite Nucleus Model                        ... NOT USED
Auxiliary Coulomb fitting basis             ... NOT available
Auxiliary J/K fitting basis                 ... NOT available
Auxiliary Correlation fitting basis         ... NOT available
Auxiliary 'external' fitting basis          ... NOT available
Integral threshold                          ...     2.500000e-11
Primitive cut-off                           ...     2.500000e-12
Primitive pair pre-selection threshold      ...     2.500000e-12

Calculating pre-screening integrals         ... done (  0.1 sec) Dimension = 738
Calculating pre-screening integrals (ORCA)  ... done (  0.3 sec) Dimension = 426
Organizing shell pair data                  ... done (  0.8 sec)
Shell pair information
Total number of shell pairs                 ...    272691
Shell pairs after pre-screening             ...     71618
Total number of primitive shell pairs       ...    422091
Primitive shell pairs kept                  ...     92357
          la=0 lb=0:  29428 shell pairs
          la=1 lb=0:  25961 shell pairs
          la=1 lb=1:   4687 shell pairs
          la=2 lb=0:   7897 shell pairs
          la=2 lb=1:   3114 shell pairs
          la=2 lb=2:    531 shell pairs

Calculating one electron integrals          ... done (  0.3 sec)
Calculating Nuclear repulsion               ... done (  0.0 sec) ENN=   6221.899235820028 Eh

SHARK setup successfully completed in   2.2 seconds

Maximum memory used throughout the entire GTOINT-calculation: 98.9 MB


           ************************************************************
           *        Program running with 16 parallel MPI-processes    *
           *              working on a common directory               *
           ************************************************************
-------------------------------------------------------------------------------
                                 ORCA SCF
-------------------------------------------------------------------------------

------------
SCF SETTINGS
------------
Hamiltonian:
 Ab initio Hamiltonian  Method          .... Hartree-Fock(GTOs)


General Settings:
 Integral files         IntName         .... /scratch/allen/tmpyp4_amber_gaff2/conf1/conf1/Conf97.orca
 Hartree-Fock type      HFTyp           .... RHF
 Total Charge           Charge          ....    0
 Multiplicity           Mult            ....    1
 Number of Electrons    NEL             ....  358
 Basis Dimension        Dim             ....  918
 Nuclear Repulsion      ENuc            ....   6221.8992358200 Eh

Convergence Acceleration:
 DIIS                   CNVDIIS         .... on
   Start iteration      DIISMaxIt       ....    12
   Startup error        DIISStart       ....  0.200000
   # of expansion vecs  DIISMaxEq       ....     5
   Bias factor          DIISBfac        ....   1.050
   Max. coefficient     DIISMaxC        ....  10.000
 Trust-Rad. Augm. Hess. CNVTRAH         .... auto
   Auto Start mean grad. ratio tolernc. ....  1.125000
   Auto Start start iteration           ....    20
   Auto Start num. interpolation iter.  ....    10
   Max. Number of Micro iterations      ....    16
   Max. Number of Macro iterations      .... Maxiter - #DIIS iter
   Number of Davidson start vectors     ....     2
   Converg. threshold I  (grad. norm)   ....   1.000e-05
   Converg. threshold II (energy diff.) ....   1.000e-08
   Grad. Scal. Fac. for Micro threshold ....   0.100
   Minimum threshold for Micro iter.    ....   0.010
   NR start threshold (gradient norm)   ....   0.001
   Initial trust radius                 ....   0.400
   Minimum AH scaling param. (alpha)    ....   1.000
   Maximum AH scaling param. (alpha)    .... 1000.000
   Orbital update algorithm             .... Taylor
   White noise on init. David. guess    .... on
   Maximum white noise                  ....   0.010
   Quad. conv. algorithm                .... NR
 SOSCF                  CNVSOSCF        .... on
   Start iteration      SOSCFMaxIt      ....   150
   Startup grad/error   SOSCFStart      ....  0.003300
 Level Shifting         CNVShift        .... on
   Level shift para.    LevelShift      ....    0.2500
   Turn off err/grad.   ShiftErr        ....    0.0010
 Zerner damping         CNVZerner       .... off
 Static damping         CNVDamp         .... on
   Fraction old density DampFac         ....    0.7000
   Max. Damping (<1)    DampMax         ....    0.9800
   Min. Damping (>=0)   DampMin         ....    0.0000
   Turn off err/grad.   DampErr         ....    0.1000
 Fernandez-Rico         CNVRico         .... off

SCF Procedure:
 Maximum # iterations   MaxIter         ....   125
 SCF integral mode      SCFMode         .... Direct
   Integral package                     .... SHARK and LIBINT hybrid scheme
 Reset frequency        DirectResetFreq ....    20
 Integral Threshold     Thresh          ....  2.500e-11 Eh
 Primitive CutOff       TCut            ....  2.500e-12 Eh

Convergence Tolerance:
 Convergence Check Mode ConvCheckMode   .... Total+1el-Energy
 Convergence forced     ConvForced      .... 1
 Energy Change          TolE            ....  1.000e-08 Eh
 1-El. energy change                    ....  1.000e-05 Eh
 Orbital Gradient       TolG            ....  1.000e-05
 Orbital Rotation angle TolX            ....  1.000e-05
 DIIS Error             TolErr          ....  5.000e-07


Diagonalization of the overlap matrix:
Smallest eigenvalue                        ... 2.264e-04
Time for diagonalization                   ...    0.403 sec
Threshold for overlap eigenvalues          ... 1.000e-08
Number of eigenvalues below threshold      ... 0
Time for construction of square roots      ...    0.248 sec
Total time needed                          ...    0.657 sec

Time for model grid setup =    1.052 sec

------------------------------
INITIAL GUESS: MODEL POTENTIAL
------------------------------
Loading Hartree-Fock densities                     ... done
Calculating cut-offs                               ... done
Initializing the effective Hamiltonian             ... done
Setting up the integral package (SHARK)            ... done
Starting the Coulomb interaction                   ... done (   1.1 sec)
Reading the grid                                   ... done
Mapping shells                                     ... done
Starting the XC term evaluation                    ... done (   0.2 sec)
Transforming the Hamiltonian                       ... done (   0.2 sec)
Diagonalizing the Hamiltonian                      ... done (   0.3 sec)
Back transforming the eigenvectors                 ... done (   0.1 sec)
Now organizing SCF variables                       ... done
                      ------------------
                      INITIAL GUESS DONE (   3.1 sec)
                      ------------------
--------------
SCF ITERATIONS
--------------
ITER       Energy         Delta-E        Max-DP      RMS-DP      [F,P]     Damp
               ***  Starting incremental Fock matrix formation  ***
  0  -2121.6431914313   0.000000000000 0.06932887  0.00121174  0.2350178 0.7000
  1  -2122.3122519791  -0.669060547825 0.05270089  0.00098182  0.1453731 0.7000
                               ***Turning on DIIS***
  2  -2122.7284288903  -0.416176911131 0.11727422  0.00221961  0.0807069 0.0000
  3  -2117.7454460075   4.982982882737 0.03467018  0.00068601  0.0442936 0.0000
  4  -2123.4088678357  -5.663421828151 0.00923304  0.00023043  0.0073197 0.0000
  5  -2123.5807151593  -0.171847323591 0.00529996  0.00013839  0.0051415 0.0000
  6  -2123.5605304394   0.020184719904 0.00442921  0.00009416  0.0023983 0.0000
  7  -2123.6652286770  -0.104698237665 0.00394894  0.00007885  0.0018849 0.0000
  8  -2123.6931069540  -0.027878276975 0.00382022  0.00007985  0.0017718 0.0000
                      *** Initiating the SOSCF procedure ***
                           *** Shutting down DIIS ***
                      *** Re-Reading the Fockian *** 
                      *** Removing any level shift *** 
ITER      Energy       Delta-E        Grad      Rot      Max-DP    RMS-DP
  9  -2123.65214765   0.0409593069  0.002834  0.002834  0.002924  0.000058
               *** Restarting incremental Fock matrix formation ***
 10  -2123.60903788   0.0431097668  0.002016  0.018717  0.005696  0.000095
 11  -2123.60964432  -0.0006064390  0.001298  0.062115  0.015838  0.000303
 12  -2123.61062034  -0.0009760230  0.001012  0.013058  0.004985  0.000069
 13  -2123.61086846  -0.0002481180  0.000817  0.015791  0.005098  0.000086
 14  -2123.61105359  -0.0001851260  0.000490  0.016214  0.004279  0.000063
 15  -2123.61113988  -0.0000862964  0.000328  0.016261  0.003629  0.000063
 16  -2123.61120539  -0.0000655120  0.000411  0.011877  0.002196  0.000041
 17  -2123.61123722  -0.0000318270  0.000214  0.003708  0.001092  0.000017
 18  -2123.61124730  -0.0000100741  0.000175  0.003763  0.000758  0.000013
 19  -2123.61125335  -0.0000060509  0.000141  0.004390  0.000780  0.000014
 20  -2123.61125810  -0.0000047526  0.000103  0.005885  0.000988  0.000018
 21  -2123.61126182  -0.0000037165  0.000073  0.003897  0.000708  0.000013
 22  -2123.61126365  -0.0000018373  0.000046  0.002245  0.000439  0.000008
 23  -2123.61126453  -0.0000008737  0.000040  0.000957  0.000293  0.000004
 24  -2123.61126498  -0.0000004556  0.000040  0.001189  0.000314  0.000004
 25  -2123.61126532  -0.0000003330  0.000030  0.001175  0.000341  0.000005
 26  -2123.61126556  -0.0000002470  0.000019  0.000876  0.000244  0.000003
 27  -2123.61126571  -0.0000001468  0.000016  0.000386  0.000109  0.000002
 28  -2123.61126577  -0.0000000636  0.000009  0.000111  0.000028  0.000001
 29  -2123.61126580  -0.0000000246  0.000004  0.000053  0.000014  0.000000
               *** Restarting incremental Fock matrix formation ***
 30  -2123.61126576   0.0000000347  0.000003  0.000084  0.000017  0.000000
                  ***Gradient check signals convergence***
              ***Rediagonalizing the Fockian in SOSCF/NRSCF***

               *****************************************************
               *                     SUCCESS                       *
               *           SCF CONVERGED AFTER  31 CYCLES          *
               *****************************************************


----------------
TOTAL SCF ENERGY
----------------

Total Energy       :        -2123.61126576 Eh          -57786.40035 eV

Components:
Nuclear Repulsion  :         6221.89923582 Eh          169306.48558 eV
Electronic Energy  :        -8345.51050158 Eh         -227092.88593 eV
One Electron Energy:       -15285.28865323 Eh         -415933.84992 eV
Two Electron Energy:         6939.77815165 Eh          188840.96400 eV

Virial components:
Potential Energy   :        -4245.59250455 Eh         -115528.44540 eV
Kinetic Energy     :         2121.98123879 Eh           57742.04506 eV
Virial Ratio       :            2.00076816


---------------
SCF CONVERGENCE
---------------

  Last Energy change         ...    2.7048e-09  Tolerance :   1.0000e-08
  Last MAX-Density change    ...    1.1677e-05  Tolerance :   1.0000e-07
  Last RMS-Density change    ...    2.6971e-07  Tolerance :   5.0000e-09
  Last Orbital Gradient      ...    1.7809e-06  Tolerance :   1.0000e-05
  Last Orbital Rotation      ...    7.2109e-05  Tolerance :   1.0000e-05

             **** THE GBW FILE WAS UPDATED (/scratch/allen/tmpyp4_amber_gaff2/conf1/conf1/Conf97.orca.gbw) ****
             **** DENSITY /scratch/allen/tmpyp4_amber_gaff2/conf1/conf1/Conf97.orca.scfp WAS UPDATED ****
             **** ENERGY FILE WAS UPDATED (/scratch/allen/tmpyp4_amber_gaff2/conf1/conf1/Conf97.orca.en.tmp) ****
             **** THE GBW FILE WAS UPDATED (/scratch/allen/tmpyp4_amber_gaff2/conf1/conf1/Conf97.orca.gbw) ****
             **** DENSITY /scratch/allen/tmpyp4_amber_gaff2/conf1/conf1/Conf97.orca.scfp WAS UPDATED ****
----------------
ORBITAL ENERGIES
----------------

  NO   OCC          E(Eh)            E(eV) 
   0   2.0000     -15.711550      -427.5330 
   1   2.0000     -15.630475      -425.3269 
   2   2.0000     -15.619220      -425.0206 
   3   2.0000     -15.580922      -423.9784 
   4   2.0000     -15.519882      -422.3175 
   5   2.0000     -15.505328      -421.9214 
   6   2.0000     -15.450834      -420.4386 
   7   2.0000     -15.427756      -419.8106 
   8   2.0000     -11.351747      -308.8968 
   9   2.0000     -11.350064      -308.8510 
  10   2.0000     -11.345377      -308.7234 
  11   2.0000     -11.306326      -307.6608 
  12   2.0000     -11.297554      -307.4221 
  13   2.0000     -11.291954      -307.2697 
  14   2.0000     -11.289972      -307.2158 
  15   2.0000     -11.282433      -307.0106 
  16   2.0000     -11.281607      -306.9881 
  17   2.0000     -11.281585      -306.9875 
  18   2.0000     -11.281519      -306.9857 
  19   2.0000     -11.272292      -306.7347 
  20   2.0000     -11.265924      -306.5614 
  21   2.0000     -11.246876      -306.0431 
  22   2.0000     -11.243086      -305.9399 
  23   2.0000     -11.234150      -305.6968 
  24   2.0000     -11.228185      -305.5345 
  25   2.0000     -11.227299      -305.5103 
  26   2.0000     -11.223498      -305.4069 
  27   2.0000     -11.219286      -305.2923 
  28   2.0000     -11.219022      -305.2851 
  29   2.0000     -11.209212      -305.0182 
  30   2.0000     -11.207907      -304.9826 
  31   2.0000     -11.193260      -304.5841 
  32   2.0000     -11.191950      -304.5484 
  33   2.0000     -11.191489      -304.5359 
  34   2.0000     -11.191475      -304.5355 
  35   2.0000     -11.190723      -304.5151 
  36   2.0000     -11.187316      -304.4223 
  37   2.0000     -11.181655      -304.2683 
  38   2.0000     -11.181442      -304.2625 
  39   2.0000     -11.175503      -304.1009 
  40   2.0000     -11.167884      -303.8936 
  41   2.0000     -11.165785      -303.8365 
  42   2.0000     -11.163700      -303.7797 
  43   2.0000     -11.160465      -303.6917 
  44   2.0000     -11.160374      -303.6892 
  45   2.0000     -11.146086      -303.3004 
  46   2.0000     -11.145422      -303.2823 
  47   2.0000     -11.142541      -303.2039 
  48   2.0000     -11.139740      -303.1277 
  49   2.0000     -11.133136      -302.9480 
  50   2.0000     -11.117897      -302.5333 
  51   2.0000     -11.112807      -302.3949 
  52   2.0000      -1.384864       -37.6841 
  53   2.0000      -1.318403       -35.8756 
  54   2.0000      -1.308129       -35.5960 
  55   2.0000      -1.275597       -34.7107 
  56   2.0000      -1.223091       -33.2820 
  57   2.0000      -1.201563       -32.6962 
  58   2.0000      -1.176043       -32.0018 
  59   2.0000      -1.160557       -31.5804 
  60   2.0000      -1.138033       -30.9675 
  61   2.0000      -1.107432       -30.1348 
  62   2.0000      -1.103407       -30.0252 
  63   2.0000      -1.097789       -29.8723 
  64   2.0000      -1.069274       -29.0964 
  65   2.0000      -1.053108       -28.6565 
  66   2.0000      -1.042737       -28.3743 
  67   2.0000      -1.033016       -28.1098 
  68   2.0000      -1.014592       -27.6084 
  69   2.0000      -1.004291       -27.3282 
  70   2.0000      -1.002531       -27.2803 
  71   2.0000      -0.993053       -27.0224 
  72   2.0000      -0.984569       -26.7915 
  73   2.0000      -0.977741       -26.6057 
  74   2.0000      -0.964118       -26.2350 
  75   2.0000      -0.962192       -26.1826 
  76   2.0000      -0.951231       -25.8843 
  77   2.0000      -0.941123       -25.6093 
  78   2.0000      -0.929434       -25.2912 
  79   2.0000      -0.920807       -25.0564 
  80   2.0000      -0.913500       -24.8576 
  81   2.0000      -0.889731       -24.2108 
  82   2.0000      -0.884674       -24.0732 
  83   2.0000      -0.869622       -23.6636 
  84   2.0000      -0.860474       -23.4147 
  85   2.0000      -0.847615       -23.0648 
  86   2.0000      -0.830851       -22.6086 
  87   2.0000      -0.827917       -22.5288 
  88   2.0000      -0.820908       -22.3381 
  89   2.0000      -0.794694       -21.6247 
  90   2.0000      -0.786780       -21.4094 
  91   2.0000      -0.768208       -20.9040 
  92   2.0000      -0.734478       -19.9862 
  93   2.0000      -0.733491       -19.9593 
  94   2.0000      -0.728068       -19.8117 
  95   2.0000      -0.722473       -19.6595 
  96   2.0000      -0.716688       -19.5021 
  97   2.0000      -0.707035       -19.2394 
  98   2.0000      -0.706011       -19.2115 
  99   2.0000      -0.701983       -19.1019 
 100   2.0000      -0.695663       -18.9299 
 101   2.0000      -0.689175       -18.7534 
 102   2.0000      -0.684277       -18.6201 
 103   2.0000      -0.674703       -18.3596 
 104   2.0000      -0.673523       -18.3275 
 105   2.0000      -0.667847       -18.1730 
 106   2.0000      -0.665735       -18.1156 
 107   2.0000      -0.662927       -18.0392 
 108   2.0000      -0.652797       -17.7635 
 109   2.0000      -0.649912       -17.6850 
 110   2.0000      -0.648488       -17.6463 
 111   2.0000      -0.642540       -17.4844 
 112   2.0000      -0.640261       -17.4224 
 113   2.0000      -0.636031       -17.3073 
 114   2.0000      -0.630502       -17.1568 
 115   2.0000      -0.629661       -17.1340 
 116   2.0000      -0.626537       -17.0489 
 117   2.0000      -0.617399       -16.8003 
 118   2.0000      -0.611643       -16.6437 
 119   2.0000      -0.610254       -16.6059 
 120   2.0000      -0.609360       -16.5815 
 121   2.0000      -0.601150       -16.3581 
 122   2.0000      -0.589901       -16.0520 
 123   2.0000      -0.587689       -15.9918 
 124   2.0000      -0.584840       -15.9143 
 125   2.0000      -0.579208       -15.7611 
 126   2.0000      -0.575678       -15.6650 
 127   2.0000      -0.573044       -15.5933 
 128   2.0000      -0.571183       -15.5427 
 129   2.0000      -0.565711       -15.3938 
 130   2.0000      -0.556549       -15.1445 
 131   2.0000      -0.545768       -14.8511 
 132   2.0000      -0.541537       -14.7360 
 133   2.0000      -0.539532       -14.6814 
 134   2.0000      -0.533900       -14.5282 
 135   2.0000      -0.529656       -14.4127 
 136   2.0000      -0.518565       -14.1109 
 137   2.0000      -0.515996       -14.0410 
 138   2.0000      -0.513722       -13.9791 
 139   2.0000      -0.512720       -13.9518 
 140   2.0000      -0.510368       -13.8878 
 141   2.0000      -0.502946       -13.6859 
 142   2.0000      -0.501605       -13.6494 
 143   2.0000      -0.498619       -13.5681 
 144   2.0000      -0.495098       -13.4723 
 145   2.0000      -0.493736       -13.4352 
 146   2.0000      -0.489731       -13.3262 
 147   2.0000      -0.474936       -12.9237 
 148   2.0000      -0.472509       -12.8576 
 149   2.0000      -0.465562       -12.6686 
 150   2.0000      -0.462092       -12.5742 
 151   2.0000      -0.460236       -12.5237 
 152   2.0000      -0.451783       -12.2936 
 153   2.0000      -0.441295       -12.0082 
 154   2.0000      -0.433827       -11.8050 
 155   2.0000      -0.432091       -11.7578 
 156   2.0000      -0.419307       -11.4099 
 157   2.0000      -0.414494       -11.2790 
 158   2.0000      -0.412426       -11.2227 
 159   2.0000      -0.405117       -11.0238 
 160   2.0000      -0.382202       -10.4002 
 161   2.0000      -0.369788       -10.0624 
 162   2.0000      -0.354515        -9.6468 
 163   2.0000      -0.352797        -9.6001 
 164   2.0000      -0.346085        -9.4175 
 165   2.0000      -0.340898        -9.2763 
 166   2.0000      -0.338559        -9.2127 
 167   2.0000      -0.319951        -8.7063 
 168   2.0000      -0.312937        -8.5155 
 169   2.0000      -0.303316        -8.2536 
 170   2.0000      -0.298334        -8.1181 
 171   2.0000      -0.282896        -7.6980 
 172   2.0000      -0.276893        -7.5346 
 173   2.0000      -0.265817        -7.2332 
 174   2.0000      -0.230190        -6.2638 
 175   2.0000      -0.183387        -4.9902 
 176   2.0000      -0.173468        -4.7203 
 177   2.0000      -0.062404        -1.6981 
 178   2.0000      -0.050965        -1.3868 
 179   0.0000       0.035300         0.9606 
 180   0.0000       0.056210         1.5296 
 181   0.0000       0.078817         2.1447 
 182   0.0000       0.098329         2.6757 
 183   0.0000       0.102163         2.7800 
 184   0.0000       0.127099         3.4585 
 185   0.0000       0.140110         3.8126 
 186   0.0000       0.148752         4.0477 
 187   0.0000       0.163029         4.4362 
 188   0.0000       0.166357         4.5268 
 189   0.0000       0.167394         4.5550 
 190   0.0000       0.169980         4.6254 
 191   0.0000       0.172924         4.7055 
 192   0.0000       0.177168         4.8210 
 193   0.0000       0.193454         5.2641 
 194   0.0000       0.203652         5.5417 
 195   0.0000       0.205107         5.5812 
 196   0.0000       0.211180         5.7465 
 197   0.0000       0.212308         5.7772 
 198   0.0000       0.217556         5.9200 
 199   0.0000       0.220918         6.0115 
 200   0.0000       0.232922         6.3381 
 201   0.0000       0.234449         6.3797 
 202   0.0000       0.237541         6.4638 
 203   0.0000       0.240417         6.5421 
 204   0.0000       0.241631         6.5751 
 205   0.0000       0.246596         6.7102 
 206   0.0000       0.250582         6.8187 
 207   0.0000       0.252489         6.8706 
 208   0.0000       0.252977         6.8839 
 209   0.0000       0.258002         7.0206 
 210   0.0000       0.263766         7.1774 
 211   0.0000       0.266268         7.2455 
 212   0.0000       0.267084         7.2677 
 213   0.0000       0.273543         7.4435 
 214   0.0000       0.278658         7.5827 
 215   0.0000       0.280736         7.6392 
 216   0.0000       0.283616         7.7176 
 217   0.0000       0.285086         7.7576 
 218   0.0000       0.287989         7.8366 
 219   0.0000       0.288499         7.8504 
 220   0.0000       0.291118         7.9217 
 221   0.0000       0.294170         8.0048 
 222   0.0000       0.298244         8.1156 
 223   0.0000       0.298798         8.1307 
 224   0.0000       0.300258         8.1704 
 225   0.0000       0.304880         8.2962 
 226   0.0000       0.305545         8.3143 
 227   0.0000       0.306417         8.3380 
 228   0.0000       0.316249         8.6056 
 229   0.0000       0.319008         8.6806 
 230   0.0000       0.326564         8.8863 
 231   0.0000       0.328450         8.9376 
 232   0.0000       0.331106         9.0099 
 233   0.0000       0.335328         9.1247 
 234   0.0000       0.339288         9.2325 
 235   0.0000       0.356798         9.7090 
 236   0.0000       0.358379         9.7520 
 237   0.0000       0.361513         9.8373 
 238   0.0000       0.378276        10.2934 
 239   0.0000       0.391251        10.6465 
 240   0.0000       0.397166        10.8074 
 241   0.0000       0.399780        10.8786 
 242   0.0000       0.407670        11.0933 
 243   0.0000       0.418864        11.3979 
 244   0.0000       0.424530        11.5521 
 245   0.0000       0.429189        11.6788 
 246   0.0000       0.436353        11.8738 
 247   0.0000       0.438249        11.9254 
 248   0.0000       0.442433        12.0392 
 249   0.0000       0.445064        12.1108 
 250   0.0000       0.451379        12.2827 
 251   0.0000       0.456177        12.4132 
 252   0.0000       0.461895        12.5688 
 253   0.0000       0.467941        12.7333 
 254   0.0000       0.470176        12.7941 
 255   0.0000       0.476409        12.9637 
 256   0.0000       0.476969        12.9790 
 257   0.0000       0.483475        13.1560 
 258   0.0000       0.487110        13.2549 
 259   0.0000       0.493527        13.4296 
 260   0.0000       0.501971        13.6593 
 261   0.0000       0.504114        13.7176 
 262   0.0000       0.508095        13.8260 
 263   0.0000       0.508744        13.8436 
 264   0.0000       0.511849        13.9281 
 265   0.0000       0.516469        14.0538 
 266   0.0000       0.520296        14.1580 
 267   0.0000       0.524819        14.2811 
 268   0.0000       0.531461        14.4618 
 269   0.0000       0.541605        14.7378 
 270   0.0000       0.544049        14.8043 
 271   0.0000       0.545604        14.8466 
 272   0.0000       0.546842        14.8803 
 273   0.0000       0.549972        14.9655 
 274   0.0000       0.552925        15.0459 
 275   0.0000       0.559576        15.2268 
 276   0.0000       0.567869        15.4525 
 277   0.0000       0.571221        15.5437 
 278   0.0000       0.578206        15.7338 
 279   0.0000       0.585356        15.9283 
 280   0.0000       0.588287        16.0081 
 281   0.0000       0.593469        16.1491 
 282   0.0000       0.596487        16.2312 
 283   0.0000       0.597897        16.2696 
 284   0.0000       0.602263        16.3884 
 285   0.0000       0.603922        16.4336 
 286   0.0000       0.605072        16.4648 
 287   0.0000       0.609224        16.5778 
 288   0.0000       0.613482        16.6937 
 289   0.0000       0.618319        16.8253 
 290   0.0000       0.625132        17.0107 
 291   0.0000       0.629266        17.1232 
 292   0.0000       0.631867        17.1940 
 293   0.0000       0.636407        17.3175 
 294   0.0000       0.642031        17.4705 
 295   0.0000       0.647485        17.6190 
 296   0.0000       0.652716        17.7613 
 297   0.0000       0.655961        17.8496 
 298   0.0000       0.660373        17.9697 
 299   0.0000       0.662599        18.0302 
 300   0.0000       0.667758        18.1706 
 301   0.0000       0.668434        18.1890 
 302   0.0000       0.670362        18.2415 
 303   0.0000       0.674658        18.3584 
 304   0.0000       0.677814        18.4443 
 305   0.0000       0.679718        18.4961 
 306   0.0000       0.683785        18.6067 
 307   0.0000       0.687097        18.6969 
 308   0.0000       0.691189        18.8082 
 309   0.0000       0.696577        18.9548 
 310   0.0000       0.697968        18.9927 
 311   0.0000       0.702248        19.1091 
 312   0.0000       0.705120        19.1873 
 313   0.0000       0.706355        19.2209 
 314   0.0000       0.714315        19.4375 
 315   0.0000       0.714874        19.4527 
 316   0.0000       0.715854        19.4794 
 317   0.0000       0.716921        19.5084 
 318   0.0000       0.718783        19.5591 
 319   0.0000       0.722613        19.6633 
 320   0.0000       0.725443        19.7403 
 321   0.0000       0.729218        19.8430 
 322   0.0000       0.731246        19.8982 
 323   0.0000       0.736709        20.0469 
 324   0.0000       0.741253        20.1705 
 325   0.0000       0.742193        20.1961 
 326   0.0000       0.743436        20.2299 
 327   0.0000       0.748606        20.3706 
 328   0.0000       0.751080        20.4379 
 329   0.0000       0.754714        20.5368 
 330   0.0000       0.757752        20.6195 
 331   0.0000       0.760519        20.6948 
 332   0.0000       0.762159        20.7394 
 333   0.0000       0.764375        20.7997 
 334   0.0000       0.766856        20.8672 
 335   0.0000       0.767934        20.8965 
 336   0.0000       0.772570        21.0227 
 337   0.0000       0.776171        21.1207 
 338   0.0000       0.781630        21.2692 
 339   0.0000       0.787087        21.4177 
 340   0.0000       0.789779        21.4910 
 341   0.0000       0.792215        21.5573 
 342   0.0000       0.794093        21.6084 
 343   0.0000       0.795544        21.6479 
 344   0.0000       0.798247        21.7214 
 345   0.0000       0.799299        21.7500 
 346   0.0000       0.803580        21.8665 
 347   0.0000       0.807708        21.9789 
 348   0.0000       0.812345        22.1050 
 349   0.0000       0.814744        22.1703 
 350   0.0000       0.816690        22.2233 
 351   0.0000       0.820818        22.3356 
 352   0.0000       0.823247        22.4017 
 353   0.0000       0.825734        22.4694 
 354   0.0000       0.826631        22.4938 
 355   0.0000       0.828919        22.5560 
 356   0.0000       0.832120        22.6431 
 357   0.0000       0.836410        22.7599 
 358   0.0000       0.839399        22.8412 
 359   0.0000       0.840450        22.8698 
 360   0.0000       0.844568        22.9819 
 361   0.0000       0.845702        23.0127 
 362   0.0000       0.849047        23.1038 
 363   0.0000       0.850534        23.1442 
 364   0.0000       0.851607        23.1734 
 365   0.0000       0.857201        23.3256 
 366   0.0000       0.858952        23.3733 
 367   0.0000       0.860512        23.4157 
 368   0.0000       0.861103        23.4318 
 369   0.0000       0.865873        23.5616 
 370   0.0000       0.867096        23.5949 
 371   0.0000       0.869969        23.6731 
 372   0.0000       0.872059        23.7299 
 373   0.0000       0.872508        23.7421 
 374   0.0000       0.874820        23.8051 
 375   0.0000       0.876285        23.8449 
 376   0.0000       0.878280        23.8992 
 377   0.0000       0.881636        23.9905 
 378   0.0000       0.885122        24.0854 
 379   0.0000       0.888813        24.1858 
 380   0.0000       0.890538        24.2328 
 381   0.0000       0.893207        24.3054 
 382   0.0000       0.900625        24.5073 
 383   0.0000       0.902871        24.5684 
 384   0.0000       0.904736        24.6191 
 385   0.0000       0.907255        24.6877 
 386   0.0000       0.909363        24.7450 
 387   0.0000       0.915474        24.9113 
 388   0.0000       0.916839        24.9485 
 389   0.0000       0.918385        24.9905 
 390   0.0000       0.920357        25.0442 
 391   0.0000       0.925453        25.1829 
 392   0.0000       0.926684        25.2164 
 393   0.0000       0.931688        25.3525 
 394   0.0000       0.933149        25.3923 
 395   0.0000       0.934464        25.4281 
 396   0.0000       0.935885        25.4667 
 397   0.0000       0.939284        25.5592 
 398   0.0000       0.941260        25.6130 
 399   0.0000       0.942299        25.6413 
 400   0.0000       0.947201        25.7746 
 401   0.0000       0.948977        25.8230 
 402   0.0000       0.951368        25.8880 
 403   0.0000       0.955503        26.0006 
 404   0.0000       0.958804        26.0904 
 405   0.0000       0.959559        26.1109 
 406   0.0000       0.962854        26.2006 
 407   0.0000       0.966083        26.2885 
 408   0.0000       0.967256        26.3204 
 409   0.0000       0.973219        26.4826 
 410   0.0000       0.979776        26.6611 
 411   0.0000       0.984700        26.7951 
 412   0.0000       0.986865        26.8540 
 413   0.0000       0.994861        27.0715 
 414   0.0000       0.995396        27.0861 
 415   0.0000       0.999015        27.1846 
 416   0.0000       1.004215        27.3261 
 417   0.0000       1.007252        27.4087 
 418   0.0000       1.008526        27.4434 
 419   0.0000       1.017375        27.6842 
 420   0.0000       1.023659        27.8552 
 421   0.0000       1.025062        27.8934 
 422   0.0000       1.032125        28.0855 
 423   0.0000       1.037673        28.2365 
 424   0.0000       1.038483        28.2586 
 425   0.0000       1.044791        28.4302 
 426   0.0000       1.055491        28.7214 
 427   0.0000       1.065147        28.9841 
 428   0.0000       1.068400        29.0726 
 429   0.0000       1.070438        29.1281 
 430   0.0000       1.073685        29.2165 
 431   0.0000       1.083368        29.4799 
 432   0.0000       1.085605        29.5408 
 433   0.0000       1.087354        29.5884 
 434   0.0000       1.094129        29.7728 
 435   0.0000       1.098440        29.8901 
 436   0.0000       1.107044        30.1242 
 437   0.0000       1.108590        30.1663 
 438   0.0000       1.112869        30.2827 
 439   0.0000       1.115362        30.3505 
 440   0.0000       1.116430        30.3796 
 441   0.0000       1.118999        30.4495 
 442   0.0000       1.123955        30.5844 
 443   0.0000       1.129067        30.7235 
 444   0.0000       1.133286        30.8383 
 445   0.0000       1.135381        30.8953 
 446   0.0000       1.141199        31.0536 
 447   0.0000       1.143609        31.1192 
 448   0.0000       1.146159        31.1886 
 449   0.0000       1.148657        31.2565 
 450   0.0000       1.155501        31.4428 
 451   0.0000       1.156760        31.4770 
 452   0.0000       1.158173        31.5155 
 453   0.0000       1.159874        31.5618 
 454   0.0000       1.164968        31.7004 
 455   0.0000       1.168503        31.7966 
 456   0.0000       1.173989        31.9459 
 457   0.0000       1.177249        32.0346 
 458   0.0000       1.185084        32.2478 
 459   0.0000       1.187596        32.3161 
 460   0.0000       1.189377        32.3646 
 461   0.0000       1.191159        32.4131 
 462   0.0000       1.198176        32.6040 
 463   0.0000       1.203993        32.7623 
 464   0.0000       1.205854        32.8129 
 465   0.0000       1.208834        32.8940 
 466   0.0000       1.211098        32.9556 
 467   0.0000       1.212800        33.0020 
 468   0.0000       1.219568        33.1861 
 469   0.0000       1.222132        33.2559 
 470   0.0000       1.227691        33.4072 
 471   0.0000       1.230037        33.4710 
 472   0.0000       1.232372        33.5346 
 473   0.0000       1.237848        33.6836 
 474   0.0000       1.239436        33.7268 
 475   0.0000       1.242421        33.8080 
 476   0.0000       1.245812        33.9003 
 477   0.0000       1.249024        33.9877 
 478   0.0000       1.256930        34.2028 
 479   0.0000       1.257438        34.2166 
 480   0.0000       1.259617        34.2759 
 481   0.0000       1.263737        34.3880 
 482   0.0000       1.265041        34.4235 
 483   0.0000       1.269974        34.5578 
 484   0.0000       1.275317        34.7032 
 485   0.0000       1.281199        34.8632 
 486   0.0000       1.284114        34.9425 
 487   0.0000       1.286939        35.0194 
 488   0.0000       1.289212        35.0812 
 489   0.0000       1.290874        35.1265 
 490   0.0000       1.296062        35.2676 
 491   0.0000       1.300081        35.3770 
 492   0.0000       1.302152        35.4334 
 493   0.0000       1.305550        35.5258 
 494   0.0000       1.311124        35.6775 
 495   0.0000       1.314621        35.7727 
 496   0.0000       1.318607        35.8811 
 497   0.0000       1.321746        35.9665 
 498   0.0000       1.326985        36.1091 
 499   0.0000       1.330731        36.2110 
 500   0.0000       1.332461        36.2581 
 501   0.0000       1.337646        36.3992 
 502   0.0000       1.339910        36.4608 
 503   0.0000       1.341946        36.5162 
[...]
      pz      :     0.021757  p :     0.079260
      px      :     0.042835
      py      :     0.014668
 77 H s       :     0.895833  s :     0.895833
      pz      :     0.047103  p :     0.078319
      px      :     0.015002
      py      :     0.016213
 78 H s       :     0.896246  s :     0.896246
      pz      :     0.025435  p :     0.078228
      px      :     0.020712
      py      :     0.032080
 79 H s       :     0.907042  s :     0.907042
      pz      :     0.022619  p :     0.087297
      px      :     0.021903
      py      :     0.042775
 80 H s       :     0.880133  s :     0.880133
      pz      :     0.038127  p :     0.083156
      px      :     0.029472
      py      :     0.015557
 81 H s       :     0.888854  s :     0.888854
      pz      :     0.037541  p :     0.083279
      px      :     0.016076
      py      :     0.029662
 82 H s       :     0.914325  s :     0.914325
      pz      :     0.022529  p :     0.087158
      px      :     0.030891
      py      :     0.033738
 83 H s       :     0.872349  s :     0.872349
      pz      :     0.039157  p :     0.083620
      px      :     0.015248
      py      :     0.029215
 84 H s       :     0.888927  s :     0.888927
      pz      :     0.035802  p :     0.084455
      px      :     0.031796
      py      :     0.016857
 85 H s       :     0.896257  s :     0.896257
      pz      :     0.022506  p :     0.079592
      px      :     0.014161
      py      :     0.042925
 86 H s       :     0.890837  s :     0.890837
      pz      :     0.024694  p :     0.078884
      px      :     0.032987
      py      :     0.021203
 87 H s       :     0.891410  s :     0.891410
      pz      :     0.047795  p :     0.078576
      px      :     0.015660
      py      :     0.015121
 88 H s       :     0.918572  s :     0.918572
      pz      :     0.022593  p :     0.086841
      px      :     0.041933
      py      :     0.022314
 89 H s       :     0.875471  s :     0.875471
      pz      :     0.037795  p :     0.084029
      px      :     0.030459
      py      :     0.015775


                      *****************************
                      * MAYER POPULATION ANALYSIS *
                      *****************************

  NA   - Mulliken gross atomic population
  ZA   - Total nuclear charge
  QA   - Mulliken gross atomic charge
  VA   - Mayer's total valence
  BVA  - Mayer's bonded valence
  FA   - Mayer's free valence

  ATOM       NA         ZA         QA         VA         BVA        FA
  0 C      5.7642     6.0000     0.2358     3.8019     3.8019    -0.0000
  1 N      7.4138     7.0000    -0.4138     3.4745     3.4745    -0.0000
  2 C      6.0669     6.0000    -0.0669     3.9200     3.9200    -0.0000
  3 N      7.3439     7.0000    -0.3439     3.4213     3.4213    -0.0000
  4 C      6.0720     6.0000    -0.0720     3.9572     3.9572    -0.0000
  5 N      7.5655     7.0000    -0.5655     3.0672     3.0672    -0.0000
  6 C      6.0244     6.0000    -0.0244     3.9604     3.9604    -0.0000
  7 N      7.3369     7.0000    -0.3369     3.4453     3.4453    -0.0000
  8 C      5.7686     6.0000     0.2314     3.8018     3.8018     0.0000
  9 N      7.5662     7.0000    -0.5662     3.0923     3.0923    -0.0000
 10 C      5.8962     6.0000     0.1038     3.8606     3.8606     0.0000
 11 N      7.4397     7.0000    -0.4397     3.3733     3.3733    -0.0000
 12 C      6.0583     6.0000    -0.0583     3.9093     3.9093     0.0000
 13 N      7.4510     7.0000    -0.4510     3.3175     3.3175     0.0000
 14 C      5.7808     6.0000     0.2192     3.8102     3.8102    -0.0000
 15 N      7.4418     7.0000    -0.4418     3.3627     3.3627     0.0000
 16 C      5.7432     6.0000     0.2568     3.8057     3.8057    -0.0000
 17 C      6.0318     6.0000    -0.0318     3.9637     3.9637    -0.0000
 18 C      6.1741     6.0000    -0.1741     3.6759     3.6759    -0.0000
 19 C      5.7718     6.0000     0.2282     3.9036     3.9036     0.0000
 20 C      5.8119     6.0000     0.1881     3.8209     3.8209    -0.0000
 21 C      6.0664     6.0000    -0.0664     3.8905     3.8905    -0.0000
 22 C      6.0911     6.0000    -0.0911     3.9850     3.9850    -0.0000
 23 C      6.0677     6.0000    -0.0677     3.9882     3.9882     0.0000
 24 C      5.7824     6.0000     0.2176     3.8303     3.8303    -0.0000
 25 C      5.8851     6.0000     0.1149     3.8936     3.8936     0.0000
 26 C      6.0661     6.0000    -0.0661     3.9087     3.9087    -0.0000
 27 C      5.7524     6.0000     0.2476     3.9027     3.9027    -0.0000
 28 C      6.0396     6.0000    -0.0396     3.9908     3.9908    -0.0000
 29 C      6.1963     6.0000    -0.1963     3.7286     3.7286     0.0000
 30 C      5.7795     6.0000     0.2205     3.7782     3.7782    -0.0000
 31 C      5.8119     6.0000     0.1881     3.8338     3.8338    -0.0000
 32 C      6.0642     6.0000    -0.0642     3.9134     3.9134     0.0000
 33 C      6.1027     6.0000    -0.1027     3.9844     3.9844     0.0000
 34 C      6.0501     6.0000    -0.0501     3.9997     3.9997     0.0000
 35 C      5.8220     6.0000     0.1780     3.8298     3.8298    -0.0000
 36 C      5.8789     6.0000     0.1211     3.9106     3.9106    -0.0000
 37 C      6.0706     6.0000    -0.0706     3.9135     3.9135    -0.0000
 38 C      5.7550     6.0000     0.2450     3.7947     3.7947     0.0000
 39 C      6.0657     6.0000    -0.0657     3.9990     3.9990    -0.0000
 40 C      6.2043     6.0000    -0.2043     3.7528     3.7528    -0.0000
 41 C      5.7843     6.0000     0.2157     3.8735     3.8735    -0.0000
 42 C      5.7881     6.0000     0.2119     3.8328     3.8328     0.0000
 43 C      6.0776     6.0000    -0.0776     3.9050     3.9050     0.0000
 44 C      6.0923     6.0000    -0.0923     3.9832     3.9832    -0.0000
 45 C      6.0383     6.0000    -0.0383     3.9961     3.9961    -0.0000
 46 C      5.8162     6.0000     0.1838     3.8201     3.8201     0.0000
 47 C      5.8832     6.0000     0.1168     3.8974     3.8974     0.0000
 48 C      6.0826     6.0000    -0.0826     3.8973     3.8973     0.0000
 49 C      5.7926     6.0000     0.2074     3.8626     3.8626    -0.0000
 50 C      6.0675     6.0000    -0.0675     3.9903     3.9903     0.0000
 51 C      6.1894     6.0000    -0.1894     3.7421     3.7421     0.0000
 52 H      0.9184     1.0000     0.0816     0.9821     0.9821    -0.0000
 53 H      1.0070     1.0000    -0.0070     1.0025     1.0025     0.0000
 54 H      0.9329     1.0000     0.0671     1.0047     1.0047     0.0000
 55 H      0.9195     1.0000     0.0805     0.9829     0.9829     0.0000
 56 H      0.9153     1.0000     0.0847     0.9727     0.9727    -0.0000
 57 H      0.9239     1.0000     0.0761     0.9846     0.9846    -0.0000
 58 H      0.9257     1.0000     0.0743     0.9871     0.9871    -0.0000
 59 H      1.0290     1.0000    -0.0290     0.9959     0.9959     0.0000
 60 H      0.9342     1.0000     0.0658     1.0053     1.0053    -0.0000
 61 H      0.8229     1.0000     0.1771     1.0438     1.0438     0.0000
 62 H      0.8322     1.0000     0.1678     1.0433     1.0433    -0.0000
 63 H      0.9473     1.0000     0.0527     0.9863     0.9863     0.0000
 64 H      1.0350     1.0000    -0.0350     0.9932     0.9932     0.0000
 65 H      0.9595     1.0000     0.0405     1.0078     1.0078     0.0000
 66 H      0.9452     1.0000     0.0548     0.9847     0.9847    -0.0000
 67 H      0.9419     1.0000     0.0581     0.9716     0.9716     0.0000
 68 H      0.9441     1.0000     0.0559     0.9864     0.9864     0.0000
 69 H      0.9411     1.0000     0.0589     0.9830     0.9830    -0.0000
 70 H      1.0134     1.0000    -0.0134     0.9982     0.9982     0.0000
 71 H      0.9534     1.0000     0.0466     1.0076     1.0076    -0.0000
 72 H      0.9627     1.0000     0.0373     0.9860     0.9860    -0.0000
 73 H      1.0192     1.0000    -0.0192     0.9962     0.9962     0.0000
 74 H      0.9708     1.0000     0.0292     1.0091     1.0091     0.0000
 75 H      0.9641     1.0000     0.0359     0.9868     0.9868    -0.0000
 76 H      0.9539     1.0000     0.0461     0.9702     0.9702    -0.0000
 77 H      0.9541     1.0000     0.0459     0.9842     0.9842     0.0000
 78 H      0.9549     1.0000     0.0451     0.9835     0.9835     0.0000
 79 H      1.0115     1.0000    -0.0115     1.0020     1.0020    -0.0000
 80 H      0.9711     1.0000     0.0289     1.0062     1.0062    -0.0000
 81 H      0.9499     1.0000     0.0501     0.9852     0.9852     0.0000
 82 H      1.0233     1.0000    -0.0233     0.9951     0.9951     0.0000
 83 H      0.9575     1.0000     0.0425     1.0108     1.0108     0.0000
 84 H      0.9510     1.0000     0.0490     0.9864     0.9864    -0.0000
 85 H      0.9460     1.0000     0.0540     0.9713     0.9713    -0.0000
 86 H      0.9438     1.0000     0.0562     0.9841     0.9841     0.0000
 87 H      0.9457     1.0000     0.0543     0.9852     0.9852     0.0000
 88 H      1.0308     1.0000    -0.0308     0.9910     0.9910     0.0000
 89 H      0.9612     1.0000     0.0388     1.0058     1.0058    -0.0000

  Mayer bond orders larger than 0.100000
B(  0-C ,  1-N ) :   1.2034 B(  0-C , 17-C ) :   1.5214 B(  0-C , 52-H ) :   0.9668 
B(  1-N ,  8-C ) :   1.1966 B(  1-N , 10-C ) :   0.9273 B(  2-C , 12-C ) :   1.5782 
B(  2-C , 16-C ) :   1.2747 B(  2-C , 53-H ) :   0.9793 B(  3-N , 14-C ) :   1.1754 
B(  3-N , 16-C ) :   1.2024 B(  3-N , 61-H ) :   0.8955 B(  4-C ,  6-C ) :   1.3542 
B(  4-C , 17-C ) :   1.3555 B(  4-C , 18-C ) :   1.0618 B(  5-N , 19-C ) :   1.3672 
B(  5-N , 27-C ) :   1.4464 B(  6-C ,  8-C ) :   1.5239 B(  6-C , 54-H ) :   0.9707 
B(  7-N , 30-C ) :   1.1835 B(  7-N , 38-C ) :   1.2156 B(  7-N , 62-H ) :   0.9013 
B(  8-C , 55-H ) :   0.9678 B(  9-N , 41-C ) :   1.4330 B(  9-N , 49-C ) :   1.3948 
B( 10-C , 56-H ) :   0.9766 B( 10-C , 57-H ) :   0.9808 B( 10-C , 58-H ) :   0.9816 
B( 11-N , 20-C ) :   1.0983 B( 11-N , 24-C ) :   1.1349 B( 11-N , 25-C ) :   0.9619 
B( 12-C , 14-C ) :   1.2753 B( 12-C , 59-H ) :   0.9771 B( 13-N , 31-C ) :   1.0840 
B( 13-N , 35-C ) :   1.0731 B( 13-N , 36-C ) :   0.9816 B( 14-C , 18-C ) :   1.2607 
B( 15-N , 42-C ) :   1.1256 B( 15-N , 46-C ) :   1.0901 B( 15-N , 47-C ) :   0.9663 
B( 16-C , 51-C ) :   1.2461 B( 17-C , 60-H ) :   0.9710 B( 18-C , 19-C ) :   1.3074 
B( 19-C , 21-C ) :   1.1650 B( 20-C , 28-C ) :   1.6281 B( 20-C , 63-H ) :   0.9709 
B( 21-C , 26-C ) :   1.6805 B( 21-C , 64-H ) :   0.9719 B( 22-C , 23-C ) :   1.2569 
B( 22-C , 28-C ) :   1.2805 B( 22-C , 29-C ) :   1.2541 B( 23-C , 24-C ) :   1.6335 
B( 23-C , 65-H ) :   0.9722 B( 24-C , 66-H ) :   0.9690 B( 25-C , 67-H ) :   0.9762 
B( 25-C , 68-H ) :   0.9834 B( 25-C , 69-H ) :   0.9819 B( 26-C , 27-C ) :   1.1734 
B( 26-C , 70-H ) :   0.9756 B( 27-C , 29-C ) :   1.2417 B( 28-C , 71-H ) :   0.9709 
B( 29-C , 30-C ) :   1.1782 B( 30-C , 32-C ) :   1.3482 B( 31-C , 39-C ) :   1.6827 
B( 31-C , 72-H ) :   0.9708 B( 32-C , 37-C ) :   1.5118 B( 32-C , 73-H ) :   0.9771 
B( 33-C , 34-C ) :   1.2344 B( 33-C , 39-C ) :   1.2262 B( 33-C , 40-C ) :   1.3533 
B( 34-C , 35-C ) :   1.6811 B( 34-C , 74-H ) :   0.9709 B( 35-C , 75-H ) :   0.9708 
B( 36-C , 76-H ) :   0.9755 B( 36-C , 77-H ) :   0.9825 B( 36-C , 78-H ) :   0.9838 
B( 37-C , 38-C ) :   1.3420 B( 37-C , 79-H ) :   0.9792 B( 38-C , 40-C ) :   1.1806 
B( 39-C , 80-H ) :   0.9721 B( 40-C , 41-C ) :   1.1696 B( 41-C , 43-C ) :   1.2561 
B( 42-C , 50-C ) :   1.6421 B( 42-C , 81-H ) :   0.9696 B( 43-C , 48-C ) :   1.5949 
B( 43-C , 82-H ) :   0.9755 B( 44-C , 45-C ) :   1.2802 B( 44-C , 50-C ) :   1.2495 
B( 44-C , 51-C ) :   1.2490 B( 45-C , 46-C ) :   1.6333 B( 45-C , 83-H ) :   0.9702 
B( 46-C , 84-H ) :   0.9709 B( 47-C , 85-H ) :   0.9760 B( 47-C , 86-H ) :   0.9826 
B( 47-C , 87-H ) :   0.9830 B( 48-C , 49-C ) :   1.2506 B( 48-C , 88-H ) :   0.9726 
B( 49-C , 51-C ) :   1.1889 B( 50-C , 89-H ) :   0.9722 

-------
TIMINGS
-------

Total SCF time: 0 days 0 hours 34 min 34 sec 

Total time                  ....    2074.031 sec
Sum of individual times     ....    2069.246 sec  ( 99.8%)

Fock matrix formation       ....    2044.787 sec  ( 98.6%)
Diagonalization             ....       5.908 sec  (  0.3%)
Density matrix formation    ....       0.788 sec  (  0.0%)
Population analysis         ....       0.532 sec  (  0.0%)
Initial guess               ....       2.057 sec  (  0.1%)
Orbital Transformation      ....       0.000 sec  (  0.0%)
Orbital Orthonormalization  ....       0.000 sec  (  0.0%)
DIIS solution               ....       2.920 sec  (  0.1%)
SOSCF solution              ....      11.203 sec  (  0.5%)

Maximum memory used throughout the entire SCF-calculation: 302.6 MB


           ************************************************************
           *        Program running with 16 parallel MPI-processes    *
           *              working on a common directory               *
           ************************************************************

------------------------------------------------------------------------------
                                ORCA  MP2 
------------------------------------------------------------------------------

Freezing NCore=104 chemical core electrons

----------
MP2 ENERGY (disk based algorithm)
----------

Dimension of the basis                    ...  918
Memory devoted to MP2                     ... 2000 MB   
Data format for buffers                   ... DOUBLE
Compression type for matrix containers    ... UNCOMPRESSED

-------------------------------
PARTIAL EXCHANGE TRANSFORMATION
-------------------------------

Transformation type                        ... one-operator
Generation of integrals (i,mue|j,nue)      ... ON
Generation of integrals (mue,kappa|nue,tau)... OFF
Generation of integrals (i,mue|a,nue)      ... OFF
Dimension of the basis                     ...  918
Number of internal MOs                     ...  127 (  52- 178)
Pair cutoff                                ... 2.500e-12 Eh
Number of AO pairs in the trafo            ... 421821
Total Number of distinct AO pairs          ... 421821
Memory devoted for trafo                   ... 2000.0 MB 
Max. Number of MO pairs treated together   ...  311      
Number Format for Storage                  ... Double (8 Byte)
Integral package used                      ... LIBINT

Starting integral evaluation:
    ... done with AO integral generation
Closing buffer AOK     (37.74 GB; CompressionRatio= 1.34)
Collecting buffer AOK 
Number of MO pairs included in the trafo   ... 8128
------------------------
SORTING OF (i,mue|j,nue)
------------------------

IBATCH = 1 of  2
IBATCH = 2 of  2
Closing buffer KAO     (51.03 GB; CompressionRatio= 1.00)
Collecting buffer KAO 
N(AO-Batches) Done                         ...  85595298 
N(AO-Batches) Skipped                      ...  81842642 
N(IJ)-pairs Skipped                        ...         0 
TOTAL TIME for half transformation         ...  3200.324 sec
AO-integral generation                     ...   211.376 sec
Half transformation                        ...   375.795 sec
K-integral sorting                         ...  2440.339 sec
Process 10:   Internal MO 132
Process 13:   Internal MO 156
Process  1:   Internal MO  60

Finished integral transformation - now doing MP2 part

OPERATOR COMBINATION   0   0: ij=( 52..178, 52..178)
Process  4:   Internal MO  84
Process  7:   Internal MO 108
Process  0:   Internal MO  54
Process  0:   Internal MO  57
Process  2:   Internal MO  69
Process  1:   Internal MO  63
Process  5:   Internal MO  93
Process  3:   Internal MO  78
Process  8:   Internal MO 117
Process  1:   Internal MO  66
Process  2:   Internal MO  72
Process 11:   Internal MO 141
Process  6:   Internal MO 102
Process  4:   Internal MO  87
Process 14:   Internal MO 165
Process  2:   Internal MO  75
Process  3:   Internal MO  81
Process  9:   Internal MO 126
Process  7:   Internal MO 111
Process  5:   Internal MO  96
Process 12:   Internal MO 150
Process  4:   Internal MO  90
Process 15:   Internal MO 174
Process 10:   Internal MO 135
Process  6:   Internal MO 105
Process  8:   Internal MO 120
Process  5:   Internal MO  99
Process 13:   Internal MO 159
Process 11:   Internal MO 144
Process  7:   Internal MO 114
Process  9:   Internal MO 129
Process 14:   Internal MO 168
Process 12:   Internal MO 153
Process  8:   Internal MO 123
Process 10:   Internal MO 138
Process 11:   Internal MO 147
Process 15:   Internal MO 177
Process 13:   Internal MO 162
Process 14:   Internal MO 171
-----------------------------------------------
 MP2 CORRELATION ENERGY   :     -7.264064725 Eh
-----------------------------------------------


-------
TIMINGS
-------
Total time                : 3752.579 sec
Integral trafo            : 3202.666 sec ( 85.3%)
K(i,j)                    :    5.885 sec (  0.2%)
T(i,j)                    :    0.109 sec (  0.0%)

---------------------------------------
MP2 TOTAL ENERGY:    -2130.875330485 Eh
---------------------------------------

Maximum memory used throughout the entire MP2-calculation: 2275.2 MB

-------------------------   --------------------
FINAL SINGLE POINT ENERGY     -2130.875330485347
-------------------------   --------------------


                            ***************************************
                            *     ORCA property calculations      *
                            ***************************************


  WARNING: The energy has been calculated at the MP2 level but the densities
           used in the property calculations are still SCF densities
           MP2 response densities have not been calculated 
           use %mp2 Density relaxed end
           or  %mp2 Density unrelaxed end

                                    ---------------------
                                    Active property flags
                                    ---------------------
   (+) Dipole Moment


------------------------------------------------------------------------------
                       ORCA ELECTRIC PROPERTIES CALCULATION
------------------------------------------------------------------------------

Dipole Moment Calculation                       ... on
Quadrupole Moment Calculation                   ... off
Polarizability Calculation                      ... off
GBWName                                         ... /scratch/allen/tmpyp4_amber_gaff2/conf1/conf1/Conf97.orca.gbw
Electron density                                ... /scratch/allen/tmpyp4_amber_gaff2/conf1/conf1/Conf97.orca.scfp
The origin for moment calculation is the CENTER OF MASS  = ( 0.002003, -0.002756  0.003873)

-------------
DIPOLE MOMENT
-------------
                                X             Y             Z
Electronic contribution:     -4.38616       4.98555      -0.15919
Nuclear contribution   :     -0.02174       0.17013       0.21403
                        -----------------------------------------
Total Dipole Moment    :     -4.40790       5.15568       0.05484
                        -----------------------------------------
Magnitude (a.u.)       :      6.78334
Magnitude (Debye)      :     17.24187



--------------------
Rotational spectrum 
--------------------
 
Rotational constants in cm-1:     0.001498     0.001472     0.000763 
Rotational constants in MHz :    44.898397    44.141489    22.868064 

 Dipole components along the rotational axes: 
x,y,z [a.u.] :     6.062142     3.043319     0.047772 
x,y,z [Debye]:    15.408740     7.735502     0.121428 

 

Timings for individual modules:

Sum of individual times         ...     5854.064 sec (=  97.568 min)
GTO integral calculation        ...        3.287 sec (=   0.055 min)   0.1 %
SCF iterations                  ...     2075.075 sec (=  34.585 min)  35.4 %
MP2 module                      ...     3775.702 sec (=  62.928 min)  64.5 %
                             ****ORCA TERMINATED NORMALLY****
TOTAL RUN TIME: 0 days 1 hours 37 minutes 37 seconds 473 msec
# of primitive gaussian functions

