
                                 *****************
                                 * O   R   C   A *
                                 *****************

                                            #,                                       
                                            ###                                      
                                            ####                                     
                                            #####                                    
                                            ######                                   
                                           ########,                                 
                                     ,,################,,,,,                         
                               ,,#################################,,                 
                          ,,##########################################,,             
                       ,#########################################, ''#####,          
                    ,#############################################,,   '####,        
                  ,##################################################,,,,####,       
                ,###########''''           ''''###############################       
              ,#####''   ,,,,##########,,,,          '''####'''          '####       
            ,##' ,,,,###########################,,,                        '##       
           ' ,,###''''                  '''############,,,                           
         ,,##''                                '''############,,,,        ,,,,,,###''
      ,#''                                            '''#######################'''  
     '                                                          ''''####''''         
             ,#######,   #######,   ,#######,      ##                                
            ,#'     '#,  ##    ##  ,#'     '#,    #''#        ######   ,####,        
            ##       ##  ##   ,#'  ##            #'  '#       #        #'  '#        
            ##       ##  #######   ##           ,######,      #####,   #    #        
            '#,     ,#'  ##    ##  '#,     ,#' ,#      #,         ##   #,  ,#        
             '#######'   ##     ##  '#######'  #'      '#     #####' # '####'        



                  #######################################################
                  #                        -***-                        #
                  #          Department of theory and spectroscopy      #
                  #    Directorship and core code : Frank Neese         #
                  #        Max Planck Institute fuer Kohlenforschung    #
                  #                Kaiser Wilhelm Platz 1               #
                  #                 D-45470 Muelheim/Ruhr               #
                  #                      Germany                        #
                  #                                                     #
                  #                  All rights reserved                #
                  #                        -***-                        #
                  #######################################################


                         Program Version 5.0.4 -  RELEASE  -


 With contributions from (in alphabetic order):
   Daniel Aravena         : Magnetic Suceptibility
   Michael Atanasov       : Ab Initio Ligand Field Theory (pilot matlab implementation)
   Alexander A. Auer      : GIAO ZORA, VPT2 properties, NMR spectrum
   Ute Becker             : Parallelization
   Giovanni Bistoni       : ED, misc. LED, open-shell LED, HFLD
   Martin Brehm           : Molecular dynamics
   Dmytro Bykov           : SCF Hessian
   Vijay G. Chilkuri      : MRCI spin determinant printing, contributions to CSF-ICE
   Dipayan Datta          : RHF DLPNO-CCSD density
   Achintya Kumar Dutta   : EOM-CC, STEOM-CC
   Dmitry Ganyushin       : Spin-Orbit,Spin-Spin,Magnetic field MRCI
   Miquel Garcia          : C-PCM and meta-GGA Hessian, CC/C-PCM, Gaussian charge scheme
   Yang Guo               : DLPNO-NEVPT2, F12-NEVPT2, CIM, IAO-localization
   Andreas Hansen         : Spin unrestricted coupled pair/coupled cluster methods
   Benjamin Helmich-Paris : MC-RPA, TRAH-SCF, COSX integrals
   Lee Huntington         : MR-EOM, pCC
   Robert Izsak           : Overlap fitted RIJCOSX, COSX-SCS-MP3, EOM
   Marcus Kettner         : VPT2
   Christian Kollmar      : KDIIS, OOCD, Brueckner-CCSD(T), CCSD density, CASPT2, CASPT2-K
   Simone Kossmann        : Meta GGA functionals, TD-DFT gradient, OOMP2, MP2 Hessian
   Martin Krupicka        : Initial AUTO-CI
   Lucas Lang             : DCDCAS
   Marvin Lechner         : AUTO-CI (C++ implementation), FIC-MRCC
   Dagmar Lenk            : GEPOL surface, SMD
   Dimitrios Liakos       : Extrapolation schemes; Compound Job, initial MDCI parallelization
   Dimitrios Manganas     : Further ROCIS development; embedding schemes
   Dimitrios Pantazis     : SARC Basis sets
   Anastasios Papadopoulos: AUTO-CI, single reference methods and gradients
   Taras Petrenko         : DFT Hessian,TD-DFT gradient, ASA, ECA, R-Raman, ABS, FL, XAS/XES, NRVS
   Peter Pinski           : DLPNO-MP2, DLPNO-MP2 Gradient
   Christoph Reimann      : Effective Core Potentials
   Marius Retegan         : Local ZFS, SOC
   Christoph Riplinger    : Optimizer, TS searches, QM/MM, DLPNO-CCSD(T), (RO)-DLPNO pert. Triples
   Tobias Risthaus        : Range-separated hybrids, TD-DFT gradient, RPA, STAB
   Michael Roemelt        : Original ROCIS implementation
   Masaaki Saitow         : Open-shell DLPNO-CCSD energy and density
   Barbara Sandhoefer     : DKH picture change effects
   Avijit Sen             : IP-ROCIS
   Kantharuban Sivalingam : CASSCF convergence, NEVPT2, FIC-MRCI
   Bernardo de Souza      : ESD, SOC TD-DFT
   Georgi Stoychev        : AutoAux, RI-MP2 NMR, DLPNO-MP2 response
   Willem Van den Heuvel  : Paramagnetic NMR
   Boris Wezisla          : Elementary symmetry handling
   Frank Wennmohs         : Technical directorship


 We gratefully acknowledge several colleagues who have allowed us to
 interface, adapt or use parts of their codes:
   Stefan Grimme, W. Hujo, H. Kruse, P. Pracht,  : VdW corrections, initial TS optimization,
                  C. Bannwarth, S. Ehlert          DFT functionals, gCP, sTDA/sTD-DF
   Ed Valeev, F. Pavosevic, A. Kumar             : LibInt (2-el integral package), F12 methods
   Garnet Chan, S. Sharma, J. Yang, R. Olivares  : DMRG
   Ulf Ekstrom                                   : XCFun DFT Library
   Mihaly Kallay                                 : mrcc  (arbitrary order and MRCC methods)
   Jiri Pittner, Ondrej Demel                    : Mk-CCSD
   Frank Weinhold                                : gennbo (NPA and NBO analysis)
   Christopher J. Cramer and Donald G. Truhlar   : smd solvation model
   Lars Goerigk                                  : TD-DFT with DH, B97 family of functionals
   V. Asgeirsson, H. Jonsson                     : NEB implementation
   FAccTs GmbH                                   : IRC, NEB, NEB-TS, DLPNO-Multilevel, CI-OPT
                                                   MM, QMMM, 2- and 3-layer-ONIOM, Crystal-QMMM,
                                                   LR-CPCM, SF, NACMEs, symmetry and pop. for TD-DFT,
                                                   nearIR, NL-DFT gradient (VV10), updates on ESD,
                                                   ML-optimized integration grids
   S Lehtola, MJT Oliveira, MAL Marques          : LibXC Library
   Liviu Ungur et al                             : ANISO software


 Your calculation uses the libint2 library for the computation of 2-el integrals
 For citations please refer to: http://libint.valeyev.net

 Your ORCA version has been built with support for libXC version: 5.1.0
 For citations please refer to: https://tddft.org/programs/libxc/

 This ORCA versions uses:
   CBLAS   interface :  Fast vector & matrix operations
   LAPACKE interface :  Fast linear algebra routines
   SCALAPACK package :  Parallel linear algebra routines
   Shared memory     :  Shared parallel matrices
   BLAS/LAPACK       :  OpenBLAS 0.3.15  USE64BITINT DYNAMIC_ARCH NO_AFFINITY Sandybridge SINGLE_THREADED
        Core in use  :  Sandybridge
   Copyright (c) 2011-2014, The OpenBLAS Project


================================================================================

----- Orbital basis set information -----
Your calculation utilizes the basis: cc-pVDZ 
       H, B-Ne : Obtained from the ccRepo (grant-hill.group.shef.ac.uk/ccrepo) Feb. 2017
                 T. H. Dunning, Jr., J. Chem. Phys. 90, 1007 (1989)
            He : Obtained from the ccRepo (grant-hill.group.shef.ac.uk/ccrepo) Feb. 2017
                 D. E. Woon, T. H. Dunning, Jr., J. Chem. Phys. 100, 2975 (1994)
  Li-Be, Na-Mg : Obtained from the ccRepo (grant-hill.group.shef.ac.uk/ccrepo) Feb. 2017
                 B. P. Prascher, D. E. Woon, K. A. Peterson, T. H. Dunning, Jr., A. K. Wilson, Theor. Chem. Acc. 128, 69 (2011)
         Al-Ar : Obtained from the ccRepo (grant-hill.group.shef.ac.uk/ccrepo) Feb. 2017
                 D. E. Woon, T. H. Dunning, Jr., J. Chem. Phys. 98, 1358 (1993)
            Ca : Obtained from the Peterson Research Group Website (tyr0.chem.wsu.edu/~kipeters) Feb. 2017
                 J. Koput, K. A. Peterson, J. Phys. Chem. 106, 9595 (2002)
         Sc-Zn : Obtained from the ccRepo (grant-hill.group.shef.ac.uk/ccrepo) Feb. 2017
                 N. B. Balabanov, K. A. Peterson, J. Chem. Phys. 123, 064107 (2005)
                 N. B. Balabanov, K. A. Peterson, J. Chem. Phys. 125, 074110 (2006)
         Ga-Kr : Obtained from the ccRepo (grant-hill.group.shef.ac.uk/ccrepo) Feb. 2017
                 A. K. Wilson, D. E. Woon, K. A. Peterson, T. H. Dunning, Jr., J. Chem. Phys. 110, 7667 (1999)

================================================================================
                                        WARNINGS
                       Please study these warnings very carefully!
================================================================================


WARNING: No MP2 level density has been requested!
         To caclulate MP2 level properties use
         %mp2 Density relaxed end
         or
         %mp2 Density unrelaxed end

WARNING: Post HF methods need fully converged wavefunctions
  ===> : Setting SCFConvForced true
         You can overwrite this default with %scf ConvForced false 


INFO   : the flag for use of the SHARK integral package has been found!

================================================================================
                                       INPUT FILE
================================================================================
NAME = /scratch/allen/tmpyp4_amber_gaff2/2.Mdgx/conf11/conf11/Conf333.orca
|  1> ! PAL2
|  2> ! mp2 cc-pvdz TightSCF  NoKeepInts
|  3> 
|  4> %scf
|  5>   MaxCore 2000
|  6> end
|  7> %mp2
|  8>   MaxCore 2000
|  9> end
| 10> * xyz 0 1
| 11>    C       -3.15600         6.39900         0.66500
| 12>    C        1.47400         4.04100         0.05700
| 13>    C       -2.80200         4.09300         0.04900
| 14>    C       -4.08300         4.10300        -0.52500
| 15>    C       -4.85000         5.25000        -0.48800
| 16>    C       -5.21800         7.59900         0.09200
| 17>    C        0.13200         4.30700         0.06100
| 18>    C       -0.56900         3.05600         0.04700
| 19>    C        1.64900         2.61800         0.02300
| 20>    C       -2.34900         5.27800         0.64800
| 21>    N       -4.38600         6.37500         0.10300
| 22>    N        0.38800         2.06700         0.02500
| 23>    N       -2.01000         0.39500        -0.07500
| 24>    N       -0.38800        -2.07400        -0.02700
| 25>    N        2.01000        -0.40100         0.06500
| 26>    C       -1.96000         2.86100         0.02400
| 27>    C       -2.62300         1.61500        -0.01800
| 28>    C       -5.57300        -4.32900         1.06600
| 29>    C       -4.07300         1.47100         0.05600
| 30>    C       -4.10600        -2.75600        -0.02600
| 31>    C       -4.99500        -2.75700        -1.11100
| 32>    C       -6.13200        -3.54200        -1.07600
| 33>    C       -7.65100        -5.11300         0.04000
| 34>    C       -4.32400         0.14100         0.03700
| 35>    C       -3.02500        -0.52000        -0.04800
| 36>    C       -4.42200        -3.56600         1.07500
| 37>    N       -6.40700        -4.31300         0.00100
| 38>    C       -2.86700        -1.92200        -0.04000
| 39>    C       -1.65000        -2.62400        -0.02700
| 40>    C        3.56800        -6.14200        -1.04000
| 41>    C       -1.47600        -4.04900        -0.03400
| 42>    C        2.80300        -4.09900        -0.00800
| 43>    C        3.65700        -4.38400         1.06900
| 44>    C        4.42700        -5.53000         1.05900
| 45>    C        5.24500        -7.58800         0.01400
| 46>    C       -0.13400        -4.31500        -0.02200
| 47>    C        0.56800        -3.06400        -0.02700
| 48>    C        2.77500        -5.01200        -1.07400
| 49>    N        4.37600        -6.39100         0.01700
| 50>    C        1.95900        -2.86900        -0.00900
| 51>    C        2.62100        -1.62200         0.00900
| 52>    C        5.54300         4.33900        -1.13000
| 53>    C        4.07000        -1.47900        -0.09400
| 54>    C        4.10400         2.75100        -0.02100
| 55>    C        5.02700         2.72900         1.03600
| 56>    C        6.16600         3.50900         0.97800
| 57>    C        7.61900         5.15300        -0.11500
| 58>    C        4.32100        -0.14800        -0.09200
| 59>    C        3.02500         0.51400         0.01500
| 60>    C        4.38700         3.58200        -1.11500
| 61>    C        2.86600         1.91600         0.01300
| 62>    N        6.41300         4.29600        -0.09500
| 63>    H       -2.85300         7.33100         1.12700
| 64>    H        2.27400         4.76600         0.08100
| 65>    H       -4.48400         3.22200        -1.01100
| 66>    H       -5.83900         5.30800        -0.92500
| 67>    H       -5.04100         8.14100        -0.83900
| 68>    H       -6.26700         7.31100         0.16600
| 69>    H       -4.94000         8.21900         0.94400
| 70>    H       -0.33200         5.28200         0.06900
| 71>    H       -1.37500         5.33000         1.12100
| 72>    H        0.18200         1.07200         0.00500
| 73>    H       -0.18300        -1.08000        -0.02100
| 74>    H       -5.86400        -4.96200         1.89500
| 75>    H       -4.79400         2.27200         0.13900
| 76>    H       -4.80000        -2.16000        -1.99400
| 77>    H       -6.84100        -3.58200        -1.89300
| 78>    H       -8.42800        -4.53600         0.54600
| 79>    H       -7.95600        -5.33700        -0.98100
| 80>    H       -7.45600        -6.03700         0.58400
| 81>    H       -5.28700        -0.34400         0.10000
| 82>    H       -3.78000        -3.60100         1.94700
| 83>    H        3.58700        -6.86800        -1.84300
| 84>    H       -2.27600        -4.77400        -0.05000
| 85>    H        3.71400        -3.72400         1.92600
| 86>    H        5.09200        -5.79500         1.87100
| 87>    H        6.20500        -7.32900        -0.43900
| 88>    H        5.39300        -7.91700         1.04200
| 89>    H        4.75900        -8.37300        -0.56400
| 90>    H        0.32900        -5.29000        -0.00800
| 91>    H        2.14600        -4.84200        -1.94000
| 92>    H        5.80800         4.98600        -1.95600
| 93>    H        4.78800        -2.28100        -0.18500
| 94>    H        4.86000         2.11400         1.91200
| 95>    H        6.90100         3.53100         1.77200
| 96>    H        7.38300         6.10900         0.35600
| 97>    H        8.41400         4.65200         0.43500
| 98>    H        7.92100         5.31000        -1.15000
| 99>    H        5.28300         0.33600        -0.17900
|100>    H        3.72000         3.63200        -1.96700
|101> *
|102> 
|103>                          ****END OF INPUT****
================================================================================

                       ****************************
                       * Single Point Calculation *
                       ****************************

---------------------------------
CARTESIAN COORDINATES (ANGSTROEM)
---------------------------------
  C     -3.156000    6.399000    0.665000
  C      1.474000    4.041000    0.057000
  C     -2.802000    4.093000    0.049000
  C     -4.083000    4.103000   -0.525000
  C     -4.850000    5.250000   -0.488000
  C     -5.218000    7.599000    0.092000
  C      0.132000    4.307000    0.061000
  C     -0.569000    3.056000    0.047000
  C      1.649000    2.618000    0.023000
  C     -2.349000    5.278000    0.648000
  N     -4.386000    6.375000    0.103000
  N      0.388000    2.067000    0.025000
  N     -2.010000    0.395000   -0.075000
  N     -0.388000   -2.074000   -0.027000
  N      2.010000   -0.401000    0.065000
  C     -1.960000    2.861000    0.024000
  C     -2.623000    1.615000   -0.018000
  C     -5.573000   -4.329000    1.066000
  C     -4.073000    1.471000    0.056000
  C     -4.106000   -2.756000   -0.026000
  C     -4.995000   -2.757000   -1.111000
  C     -6.132000   -3.542000   -1.076000
  C     -7.651000   -5.113000    0.040000
  C     -4.324000    0.141000    0.037000
  C     -3.025000   -0.520000   -0.048000
  C     -4.422000   -3.566000    1.075000
  N     -6.407000   -4.313000    0.001000
  C     -2.867000   -1.922000   -0.040000
  C     -1.650000   -2.624000   -0.027000
  C      3.568000   -6.142000   -1.040000
  C     -1.476000   -4.049000   -0.034000
  C      2.803000   -4.099000   -0.008000
  C      3.657000   -4.384000    1.069000
  C      4.427000   -5.530000    1.059000
  C      5.245000   -7.588000    0.014000
  C     -0.134000   -4.315000   -0.022000
  C      0.568000   -3.064000   -0.027000
  C      2.775000   -5.012000   -1.074000
  N      4.376000   -6.391000    0.017000
  C      1.959000   -2.869000   -0.009000
  C      2.621000   -1.622000    0.009000
  C      5.543000    4.339000   -1.130000
  C      4.070000   -1.479000   -0.094000
  C      4.104000    2.751000   -0.021000
  C      5.027000    2.729000    1.036000
  C      6.166000    3.509000    0.978000
  C      7.619000    5.153000   -0.115000
  C      4.321000   -0.148000   -0.092000
  C      3.025000    0.514000    0.015000
  C      4.387000    3.582000   -1.115000
  C      2.866000    1.916000    0.013000
  N      6.413000    4.296000   -0.095000
  H     -2.853000    7.331000    1.127000
  H      2.274000    4.766000    0.081000
  H     -4.484000    3.222000   -1.011000
  H     -5.839000    5.308000   -0.925000
  H     -5.041000    8.141000   -0.839000
  H     -6.267000    7.311000    0.166000
  H     -4.940000    8.219000    0.944000
  H     -0.332000    5.282000    0.069000
  H     -1.375000    5.330000    1.121000
  H      0.182000    1.072000    0.005000
  H     -0.183000   -1.080000   -0.021000
  H     -5.864000   -4.962000    1.895000
  H     -4.794000    2.272000    0.139000
  H     -4.800000   -2.160000   -1.994000
  H     -6.841000   -3.582000   -1.893000
  H     -8.428000   -4.536000    0.546000
  H     -7.956000   -5.337000   -0.981000
  H     -7.456000   -6.037000    0.584000
  H     -5.287000   -0.344000    0.100000
  H     -3.780000   -3.601000    1.947000
  H      3.587000   -6.868000   -1.843000
  H     -2.276000   -4.774000   -0.050000
  H      3.714000   -3.724000    1.926000
  H      5.092000   -5.795000    1.871000
  H      6.205000   -7.329000   -0.439000
  H      5.393000   -7.917000    1.042000
  H      4.759000   -8.373000   -0.564000
  H      0.329000   -5.290000   -0.008000
  H      2.146000   -4.842000   -1.940000
  H      5.808000    4.986000   -1.956000
  H      4.788000   -2.281000   -0.185000
  H      4.860000    2.114000    1.912000
  H      6.901000    3.531000    1.772000
  H      7.383000    6.109000    0.356000
  H      8.414000    4.652000    0.435000
  H      7.921000    5.310000   -1.150000
  H      5.283000    0.336000   -0.179000
  H      3.720000    3.632000   -1.967000

----------------------------
CARTESIAN COORDINATES (A.U.)
----------------------------
  NO LB      ZA    FRAG     MASS         X           Y           Z
   0 C     6.0000    0    12.011   -5.963976   12.092358    1.256668
   1 C     6.0000    0    12.011    2.785456    7.636383    0.107714
   2 C     6.0000    0    12.011   -5.295013    7.734649    0.092597
   3 C     6.0000    0    12.011   -7.715752    7.753546   -0.992106
   4 C     6.0000    0    12.011   -9.165172    9.921062   -0.922186
   5 C     6.0000    0    12.011   -9.860591   14.360029    0.173855
   6 C     6.0000    0    12.011    0.249444    8.139050    0.115273
   7 C     6.0000    0    12.011   -1.075254    5.775003    0.088817
   8 C     6.0000    0    12.011    3.116158    4.947303    0.043464
   9 C     6.0000    0    12.011   -4.438967    9.973975    1.224543
  10 N     7.0000    0    14.007   -8.288339   12.047004    0.194642
  11 N     7.0000    0    14.007    0.733214    3.906064    0.047243
  12 N     7.0000    0    14.007   -3.798350    0.746442   -0.141729
  13 N     7.0000    0    14.007   -0.733214   -3.919292   -0.051023
  14 N     7.0000    0    14.007    3.798350   -0.757780    0.122832
  15 C     6.0000    0    12.011   -3.703863    5.406506    0.045353
  16 C     6.0000    0    12.011   -4.956752    3.051908   -0.034015
  17 C     6.0000    0    12.011  -10.531444   -8.180624    2.014448
  18 C     6.0000    0    12.011   -7.696855    2.779787    0.105825
  19 C     6.0000    0    12.011   -7.759216   -5.208085   -0.049133
  20 C     6.0000    0    12.011   -9.439182   -5.209975   -2.099486
  21 C     6.0000    0    12.011  -11.587801   -6.693410   -2.033345
  22 C     6.0000    0    12.011  -14.458295   -9.662170    0.075589
  23 C     6.0000    0    12.011   -8.171176    0.266451    0.069920
  24 C     6.0000    0    12.011   -5.716422   -0.982658   -0.090707
  25 C     6.0000    0    12.011   -8.356369   -6.738763    2.031456
  26 N     7.0000    0    14.007  -12.107475   -8.150389    0.001890
  27 C     6.0000    0    12.011   -5.417845   -3.632054   -0.075589
  28 C     6.0000    0    12.011   -3.118048   -4.958641   -0.051023
  29 C     6.0000    0    12.011    6.742543  -11.606698   -1.965315
  30 C     6.0000    0    12.011   -2.789236   -7.651501   -0.064251
  31 C     6.0000    0    12.011    5.296902   -7.745987   -0.015118
  32 C     6.0000    0    12.011    6.910728   -8.284559    2.020117
  33 C     6.0000    0    12.011    8.365818  -10.450186    2.001220
  34 C     6.0000    0    12.011    9.911614  -14.339242    0.026456
  35 C     6.0000    0    12.011   -0.253223   -8.154168   -0.041574
  36 C     6.0000    0    12.011    1.073364   -5.790121   -0.051023
  37 C     6.0000    0    12.011    5.243990   -9.471307   -2.029566
  38 N     7.0000    0    14.007    8.269442  -12.077240    0.032125
  39 C     6.0000    0    12.011    3.701973   -5.421624   -0.017008
  40 C     6.0000    0    12.011    4.952972   -3.065136    0.017008
  41 C     6.0000    0    12.011   10.474752    8.199522   -2.135391
  42 C     6.0000    0    12.011    7.691185   -2.794905   -0.177634
  43 C     6.0000    0    12.011    7.755436    5.198637   -0.039684
  44 C     6.0000    0    12.011    9.499653    5.157063    1.957756
  45 C     6.0000    0    12.011   11.652051    6.631049    1.848152
  46 C     6.0000    0    12.011   14.397823    9.737759   -0.217319
  47 C     6.0000    0    12.011    8.165507   -0.279679   -0.173855
  48 C     6.0000    0    12.011    5.716422    0.971319    0.028346
  49 C     6.0000    0    12.011    8.290229    6.768999   -2.107045
  50 C     6.0000    0    12.011    5.415955    3.620715    0.024566
  51 N     7.0000    0    14.007   12.118814    8.118263   -0.179524
  52 H     1.0000    0     1.008   -5.391389   13.853582    2.129721
  53 H     1.0000    0     1.008    4.297237    9.006435    0.153068
  54 H     1.0000    0     1.008   -8.473532    6.088698   -1.910513
  55 H     1.0000    0     1.008  -11.034111   10.030666   -1.747997
  56 H     1.0000    0     1.008   -9.526109   15.384260   -1.585480
  57 H     1.0000    0     1.008  -11.842914   13.815788    0.313695
  58 H     1.0000    0     1.008   -9.335247   15.531659    1.783901
  59 H     1.0000    0     1.008   -0.627389    9.981533    0.130391
  60 H     1.0000    0     1.008   -2.598373   10.072240    2.118383
  61 H     1.0000    0     1.008    0.343930    2.025786    0.009449
  62 H     1.0000    0     1.008   -0.345820   -2.040904   -0.039684
  63 H     1.0000    0     1.008  -11.081354   -9.376821    3.581031
  64 H     1.0000    0     1.008   -9.059347    4.293458    0.262672
  65 H     1.0000    0     1.008   -9.070685   -4.081808   -3.768114
  66 H     1.0000    0     1.008  -12.927616   -6.768999   -3.577252
  67 H     1.0000    0     1.008  -15.926612   -8.571798    1.031790
  68 H     1.0000    0     1.008  -15.034661  -10.085468   -1.853821
  69 H     1.0000    0     1.008  -14.089798  -11.408277    1.103600
  70 H     1.0000    0     1.008   -9.990982   -0.650066    0.188973
  71 H     1.0000    0     1.008   -7.143165   -6.804904    3.679297
  72 H     1.0000    0     1.008    6.778448  -12.978639   -3.482765
  73 H     1.0000    0     1.008   -4.301017   -9.021553   -0.094486
  74 H     1.0000    0     1.008    7.018443   -7.037340    3.639613
  75 H     1.0000    0     1.008    9.622485  -10.950963    3.535678
  76 H     1.0000    0     1.008   11.725751  -13.849803   -0.829590
  77 H     1.0000    0     1.008   10.191293  -14.960962    1.969095
  78 H     1.0000    0     1.008    8.993207  -15.822677   -1.065806
  79 H     1.0000    0     1.008    0.621720   -9.996651   -0.015118
  80 H     1.0000    0     1.008    4.055352   -9.150054   -3.666069
  81 H     1.0000    0     1.008   10.975529    9.422175   -3.696304
  82 H     1.0000    0     1.008    9.048009   -4.310465   -0.349599
  83 H     1.0000    0     1.008    9.184069    3.994881    3.613156
  84 H     1.0000    0     1.008   13.041000    6.672623    3.348595
  85 H     1.0000    0     1.008   13.951848   11.544337    0.672743
  86 H     1.0000    0     1.008   15.900156    8.791006    0.822031
  87 H     1.0000    0     1.008   14.968521   10.034446   -2.173185
  88 H     1.0000    0     1.008    9.983423    0.634948   -0.338261
  89 H     1.0000    0     1.008    7.029781    6.863485   -3.717091

--------------------------------
INTERNAL COORDINATES (ANGSTROEM)
--------------------------------
 C      0   0   0     0.000000000000     0.00000000     0.00000000
 C      1   0   0     5.231321821490     0.00000000     0.00000000
 C      1   2   0     2.412966638808    53.82318379     0.00000000
 C      3   1   2     1.403758170056    87.91981019   203.11319483
 C      4   3   1     1.380314094690   120.13480592     0.12807632
 C      5   4   3     2.447371038482   152.55778212     1.67762761
 C      2   1   3     1.368114030335    17.03271643     8.36862927
 C      7   2   1     1.434084376876   108.05010202   202.13966552
 C      2   1   3     1.434123425651   123.91795096   343.67359529
 C      1   2   3     1.381368524327    27.83834849    24.71247646
 N      1   2   3     1.352523567262   138.46806771   323.72840093
 N      9   2   1     1.376127174356   106.58526707     6.63997574
 N     12   9   2     2.925062050624   168.53581413   171.12065651
 N     13  12   9     2.954513327098    91.55032014    11.12112580
 N     14  13  12     2.925371258490    88.43092389   359.84326247
 C      8   7   2     1.404790019896   127.24786865   181.11170171
 C     13  12   9     1.366535034311    81.72106996   188.00453233
 C     14  13  12     5.758810554272    80.56209567   166.76250791
 C     17  13  12     1.459010623676   111.08861209   183.82872609
 C     18  14  13     2.412235892279    27.27532823    36.33507194
 C     20  18  14     1.402692767501    87.95206320   148.94598259
 C     21  20  18     1.382106725257   120.14573887   359.70382047
 C     18  14  13     2.446510985056   144.15733107    82.80075377
 C     19  17  13     1.353610726908   106.29293361   359.75308708
 C     13  12   9     1.366813447402   172.21332906    33.46711076
 C     18  14  13     1.380960173213    15.08449437   309.23336894
 N     22  21  20     1.352773077792   120.73759875     0.27865223
 C     25  13  17     1.410897586645   125.60330303   182.37774668
 C     14  13  12     1.376642291955    80.24689249   177.85461986
 C     14  13  12     5.764089607215   164.51507311   312.20821879
 C     29  14  13     1.435600919476   106.58649366   178.76395472
 C     30  14  13     2.413316804732    27.10625047    82.12560436
 C     32  30  14     1.403734305344    87.90059683   149.76154742
 C     33  32  30     1.380694028378   120.14881443   359.74174632
 C     34  33  32     2.448777858443   152.49203239     2.45173620
 C     31  29  14     1.368160809262   108.16950133     0.70383075
 C     14  13  12     1.376239804685   169.26375223   353.09862627
 C     30  14  13     1.380907310430    14.68948582   353.70041132
 N     34  33  32     1.352658863128   120.85575621     0.19603406
 C     37  14  29     1.404717053360   126.01551127   180.90772073
 C     15  14  13     1.366491126938    81.61824056   183.09049352
 C      2   1   3     4.249062720177   148.03838419   146.42712864
 C     41  15  14     1.459677704153   111.05201287   175.08990246
 C     42   2   1     2.412953791518    41.78584867   170.61973327
 C     44  42   2     1.403446472082    87.95153797   233.97558675
 C     45  44  42     1.381696421071   120.11137308     0.19721020
 C     42   2   1     2.450019795838   135.97209175    80.93458237
 C     43  41  15     1.354461516618   106.26758155     0.30894352
 C     15  14  13     1.367461151185   171.87382904   332.35056460
 C     42   2   1     1.381886391857    32.59078432   219.47501246
 C      9   2   1     1.404988612053   126.98745415   187.64431327
 N     42   2   1     1.352765315936   113.57249190   108.67117156
 H      1   2   3     1.083456044332   100.94001310   168.96764323
 H      2   1   3     1.079907866440   110.51532714   170.41559970
 H      4   3   1     1.083124184939   121.03290009   179.51749440
 H      5   4   3     1.082799150351   122.76722982   179.41727320
 H      6   5   4     1.091720660242   104.47929770   100.02824484
 H      6   5   4     1.090330683784    84.67683391   209.52765799
 H      6   5   4     1.089765112306   133.86697532   322.34334521
 H      7   2   1     1.079807853278   126.66122480    22.37807930
 H     10   1   2     1.084024446219   118.72532311    43.32643180
 H     12   9   2     1.016297692608   125.29023241   180.00180175
 H     14  13  12     1.014936943854    44.97226959   359.42596618
 H     18  14  13     1.082871645210   128.03556573   234.20482432
 H     19  17  13     1.080893611786   126.41830519   178.11313280
 H     21  20  18     1.083569563987   121.05669627   180.67006309
 H     22  21  20     1.082483256222   122.73097286   180.59748951
 H     23  18  14     1.092105306278   103.92715769   234.93429879
 H     23  18  14     1.088871893291   134.19244188    12.25587044
 H     23  18  14     1.089833473518    84.85857450   125.45241208
 H     24  19  17     1.080075460327   127.28078426   178.44613241
 H     26  18  14     1.083408048706   118.76995697   244.94906660
 H     30  14  13     1.082703098730   127.99711412   279.66882698
 H     31  29  14     1.079759695488   125.22293469   180.92530585
 H     33  32  30     1.083188810873   121.01964473   180.74284758
 H     34  33  32     1.082494341787   122.70821597   180.59516895
 H     35  34  33     1.092652735319   105.73575241    97.19771933
 H     35  34  33     1.089462711615    84.05943581   206.43036958
 H     35  34  33     1.089268102902   133.08365142   318.50306270
 H     36  31  29     1.079439669458   126.61599965   178.98859863
 H     38  30  73     1.083742127999   118.77264435   359.90091293
 H     42   2   1     1.082178358682   119.31790784   325.30270201
 H     43  41  15     1.080281907652   126.36969097   182.06329380
 H     45  44  42     1.083277434455   121.10105945   179.58025624
 H     46  45  44     1.082194529648   122.72144639   179.46906377
 H     47  42   2     1.091546151109   106.65128841   315.16475048
 H     47  42   2     1.088818625851   132.46019523    94.52397119
 H     47  42   2     1.089531091801    83.63838232   206.04504406
 H     48  43  41     1.080402239909   127.23657387   181.62955349
 H     50  42   2     1.083186502870   118.77001737    94.71359229

---------------------------
INTERNAL COORDINATES (A.U.)
---------------------------
 C      0   0   0     0.000000000000     0.00000000     0.00000000
 C      1   0   0     9.885765561023     0.00000000     0.00000000
 C      1   2   0     4.559846117635    53.82318379     0.00000000
 C      3   1   2     2.652718499661    87.91981019   203.11319483
 C      4   3   1     2.608415617756   120.13480592     0.12807632
 C      5   4   3     4.624861010821   152.55778212     1.67762761
 C      2   1   3     2.585360837309    17.03271643     8.36862927
 C      7   2   1     2.710026725231   108.05010202   202.13966552
 C      2   1   3     2.710100516721   123.91795096   343.67359529
 C      1   2   3     2.610408200996    27.83834849    24.71247646
 N      1   2   3     2.555899131800   138.46806771   323.72840093
 N      9   2   1     2.600503484979   106.58526707     6.63997574
 N     12   9   2     5.527566200405   168.53581413   171.12065651
 N     13  12   9     5.583221047236    91.55032014    11.12112580
 N     14  13  12     5.528150518591    88.43092389   359.84326247
 C      8   7   2     2.654668413270   127.24786865   181.11170171
 C     13  12   9     2.582376967257    81.72106996   188.00453233
 C     14  13  12    10.882574804710    80.56209567   166.76250791
 C     17  13  12     2.757130505230   111.08861209   183.82872609
 C     18  14  13     4.558465206823    27.27532823    36.33507194
 C     20  18  14     2.650705180609    87.95206320   148.94598259
 C     21  20  18     2.611803198586   120.14573887   359.70382047
 C     18  14  13     4.623235745386   144.15733107    82.80075377
 C     19  17  13     2.557953565794   106.29293361   359.75308708
 C     13  12   9     2.582903091751   172.21332906    33.46711076
 C     18  14  13     2.609636529225    15.08449437   309.23336894
 N     22  21  20     2.556370638369   120.73759875     0.27865223
 C     25  13  17     2.666210041769   125.60330303   182.37774668
 C     14  13  12     2.601476916169    80.24689249   177.85461986
 C     14  13  12    10.892550769017   164.51507311   312.20821879
 C     29  14  13     2.712892575415   106.58649366   178.76395472
 C     30  14  13     4.560507835333    27.10625047    82.12560436
 C     32  30  14     2.652673401891    87.90059683   149.76154742
 C     33  32  30     2.609133588376   120.14881443   359.74174632
 C     34  33  32     4.627519515267   152.49203239     2.45173620
 C     31  29  14     2.585449236669   108.16950133     0.70383075
 C     14  13  12     2.600716325456   169.26375223   353.09862627
 C     30  14  13     2.609536633043    14.68948582   353.70041132
 N     34  33  32     2.556154803934   120.85575621     0.19603406
 C     37  14  29     2.654530526499   126.01551127   180.90772073
 C     15  14  13     2.582293994346    81.61824056   183.09049352
 C      2   1   3     8.029564866989   148.03838419   146.42712864
 C     41  15  14     2.758391104639   111.05201287   175.08990246
 C     42   2   1     4.559821839776    41.78584867   170.61973327
 C     44  42   2     2.652129475853    87.95153797   233.97558675
 C     45  44  42     2.611027836043   120.11137308     0.19721020
 C     42   2   1     4.629866436820   135.97209175    80.93458237
 C     43  41  15     2.559561325344   106.26758155     0.30894352
 C     15  14  13     2.584127074516   171.87382904   332.35056460
 C     42   2   1     2.611386828803    32.59078432   219.47501246
 C      9   2   1     2.655043698059   126.98745415   187.64431327
 N     42   2   1     2.556355970587   113.57249190   108.67117156
 H      1   2   3     2.047435201930   100.94001310   168.96764323
 H      2   1   3     2.040730117440   110.51532714   170.41559970
 H      4   3   1     2.046808078562   121.03290009   179.51749440
 H      5   4   3     2.046193852205   122.76722982   179.41727320
 H      6   5   4     2.063053062602   104.47929770   100.02824484
 H      6   5   4     2.060426387762    84.67683391   209.52765799
 H      6   5   4     2.059357612561   133.86697532   322.34334521
 H      7   2   1     2.040541119952   126.66122480    22.37807930
 H     10   1   2     2.048509325829   118.72532311    43.32643180
 H     12   9   2     1.920524309565   125.29023241   180.00180175
 H     14  13  12     1.917952867083    44.97226959   359.42596618
 H     18  14  13     2.046330847636   128.03556573   234.20482432
 H     19  17  13     2.042592906181   126.41830519   178.11313280
 H     21  20  18     2.047649722989   121.05669627   180.67006309
 H     22  21  20     2.045596898814   122.73097286   180.59748951
 H     23  18  14     2.063779938267   103.92715769   234.93429879
 H     23  18  14     2.057669673245   134.19244188    12.25587044
 H     23  18  14     2.059486796529    84.85857450   125.45241208
 H     24  19  17     2.041046823986   127.28078426   178.44613241
 H     26  18  14     2.047344503340   118.76995697   244.94906660
 H     30  14  13     2.046012340948   127.99711412   279.66882698
 H     31  29  14     2.040450114918   125.22293469   180.92530585
 H     33  32  30     2.046930203877   121.01964473   180.74284758
 H     34  33  32     2.045617847496   122.70821597   180.59516895
 H     35  34  33     2.064814429233   105.73575241    97.19771933
 H     35  34  33     2.058786158072    84.05943581   206.43036958
 H     35  34  33     2.058418400901   133.08365142   318.50306270
 H     36  31  29     2.039845353366   126.61599965   178.98859863
 H     38  30  73     2.047975821711   118.77264435   359.90091293
 H     42   2   1     2.045020725966   119.31790784   325.30270201
 H     43  41  15     2.041436952892   126.36969097   182.06329380
 H     45  44  42     2.047097678177   121.10105945   179.58025624
 H     46  45  44     2.045051284662   122.72144639   179.46906377
 H     47  42   2     2.062723288131   106.65128841   315.16475048
 H     47  42   2     2.057569012371   132.46019523    94.52397119
 H     47  42   2     2.058915377895    83.63838232   206.04504406
 H     48  43  41     2.041664347903   127.23657387   181.62955349
 H     50  42   2     2.046925842384   118.77001737    94.71359229

---------------------
BASIS SET INFORMATION
---------------------
There are 3 groups of distinct atoms

 Group   1 Type C   : 17s4p1d contracted to 3s2p1d pattern {881/31/1}
 Group   2 Type N   : 17s4p1d contracted to 3s2p1d pattern {881/31/1}
 Group   3 Type H   : 4s1p contracted to 2s1p pattern {31/1}

Atom   0C    basis set group =>   1
Atom   1N    basis set group =>   2
Atom   2C    basis set group =>   1
Atom   3N    basis set group =>   2
Atom   4C    basis set group =>   1
Atom   5N    basis set group =>   2
Atom   6C    basis set group =>   1
Atom   7N    basis set group =>   2
Atom   8C    basis set group =>   1
Atom   9N    basis set group =>   2
Atom  10C    basis set group =>   1
Atom  11N    basis set group =>   2
Atom  12C    basis set group =>   1
Atom  13N    basis set group =>   2
Atom  14C    basis set group =>   1
Atom  15N    basis set group =>   2
Atom  16C    basis set group =>   1
Atom  17C    basis set group =>   1
Atom  18C    basis set group =>   1
Atom  19C    basis set group =>   1
Atom  20C    basis set group =>   1
Atom  21C    basis set group =>   1
Atom  22C    basis set group =>   1
Atom  23C    basis set group =>   1
Atom  24C    basis set group =>   1
Atom  25C    basis set group =>   1
Atom  26C    basis set group =>   1
Atom  27C    basis set group =>   1
Atom  28C    basis set group =>   1
Atom  29C    basis set group =>   1
Atom  30C    basis set group =>   1
Atom  31C    basis set group =>   1
Atom  32C    basis set group =>   1
Atom  33C    basis set group =>   1
Atom  34C    basis set group =>   1
Atom  35C    basis set group =>   1
Atom  36C    basis set group =>   1
Atom  37C    basis set group =>   1
Atom  38C    basis set group =>   1
Atom  39C    basis set group =>   1
Atom  40C    basis set group =>   1
Atom  41C    basis set group =>   1
Atom  42C    basis set group =>   1
Atom  43C    basis set group =>   1
Atom  44C    basis set group =>   1
Atom  45C    basis set group =>   1
Atom  46C    basis set group =>   1
Atom  47C    basis set group =>   1
Atom  48C    basis set group =>   1
Atom  49C    basis set group =>   1
Atom  50C    basis set group =>   1
Atom  51C    basis set group =>   1
Atom  52H    basis set group =>   3
Atom  53H    basis set group =>   3
Atom  54H    basis set group =>   3
Atom  55H    basis set group =>   3
Atom  56H    basis set group =>   3
Atom  57H    basis set group =>   3
Atom  58H    basis set group =>   3
Atom  59H    basis set group =>   3
Atom  60H    basis set group =>   3
Atom  61H    basis set group =>   3
Atom  62H    basis set group =>   3
Atom  63H    basis set group =>   3
Atom  64H    basis set group =>   3
Atom  65H    basis set group =>   3
Atom  66H    basis set group =>   3
Atom  67H    basis set group =>   3
Atom  68H    basis set group =>   3
Atom  69H    basis set group =>   3
Atom  70H    basis set group =>   3
Atom  71H    basis set group =>   3
Atom  72H    basis set group =>   3
Atom  73H    basis set group =>   3
Atom  74H    basis set group =>   3
Atom  75H    basis set group =>   3
Atom  76H    basis set group =>   3
Atom  77H    basis set group =>   3
Atom  78H    basis set group =>   3
Atom  79H    basis set group =>   3
Atom  80H    basis set group =>   3
Atom  81H    basis set group =>   3
Atom  82H    basis set group =>   3
Atom  83H    basis set group =>   3
Atom  84H    basis set group =>   3
Atom  85H    basis set group =>   3
Atom  86H    basis set group =>   3
Atom  87H    basis set group =>   3
Atom  88H    basis set group =>   3
Atom  89H    basis set group =>   3


           ************************************************************
           *        Program running with 8 parallel MPI-processes     *
           *              working on a common directory               *
           ************************************************************
------------------------------------------------------------------------------
                           ORCA GTO INTEGRAL CALCULATION
------------------------------------------------------------------------------
------------------------------------------------------------------------------
                   ___                                                        
                  /   \      - P O W E R E D   B Y -                         
                 /     \                                                     
                 |  |  |   _    _      __       _____    __    __             
                 |  |  |  | |  | |    /  \     |  _  \  |  |  /  |          
                  \  \/   | |  | |   /    \    | | | |  |  | /  /          
                 / \  \   | |__| |  /  /\  \   | |_| |  |  |/  /          
                |  |  |   |  __  | /  /__\  \  |    /   |      \           
                |  |  |   | |  | | |   __   |  |    \   |  |\   \          
                \     /   | |  | | |  |  |  |  | |\  \  |  | \   \       
                 \___/    |_|  |_| |__|  |__|  |_| \__\ |__|  \__/        
                                                                              
                      - O R C A' S   B I G   F R I E N D -                    
                                      &                                       
                       - I N T E G R A L  F E E D E R -                       
                                                                              
 v1 FN, 2020, v2 2021                                                         
------------------------------------------------------------------------------


Reading SHARK input file /scratch/chu_02/allen/tmpyp4_amber_gaff2/conf1/conf1/Conf333.orca.SHARKINP.tmp ... ok
----------------------
SHARK INTEGRAL PACKAGE
----------------------

Number of atoms                             ...     90
Number of basis functions                   ...   1230
Number of shells                            ...    738
Maximum angular momentum                    ...      2
Integral batch strategy                     ... SHARK/LIBINT Hybrid
RI-J (if used) integral strategy            ... SPLIT-RIJ (Revised 2003 algorithm where possible)
Printlevel                                  ...      1
Contraction scheme used                     ... PARTIAL GENERAL contraction
Coulomb Range Separation                    ... NOT USED
Exchange Range Separation                   ... NOT USED
Finite Nucleus Model                        ... NOT USED
Auxiliary Coulomb fitting basis             ... NOT available
Auxiliary J/K fitting basis                 ... NOT available
Auxiliary Correlation fitting basis         ... NOT available
Auxiliary 'external' fitting basis          ... NOT available
Integral threshold                          ...     2.500000e-11
Primitive cut-off                           ...     2.500000e-12
Primitive pair pre-selection threshold      ...     2.500000e-12

Calculating pre-screening integrals         ... done (  0.1 sec) Dimension = 738
Calculating pre-screening integrals (ORCA)  ... done (  0.3 sec) Dimension = 426
Organizing shell pair data                  ... done (  0.5 sec)
Shell pair information
Total number of shell pairs                 ...    272691
Shell pairs after pre-screening             ...     71666
Total number of primitive shell pairs       ...    422091
Primitive shell pairs kept                  ...     92532
          la=0 lb=0:  29412 shell pairs
          la=1 lb=0:  26007 shell pairs
          la=1 lb=1:   4707 shell pairs
          la=2 lb=0:   7889 shell pairs
          la=2 lb=1:   3122 shell pairs
          la=2 lb=2:    529 shell pairs

Calculating one electron integrals          ... done (  0.2 sec)
Calculating Nuclear repulsion               ... done (  0.0 sec) ENN=   6231.668929547443 Eh

SHARK setup successfully completed in   1.5 seconds

Maximum memory used throughout the entire GTOINT-calculation: 99.0 MB


           ************************************************************
           *        Program running with 8 parallel MPI-processes     *
           *              working on a common directory               *
           ************************************************************
-------------------------------------------------------------------------------
                                 ORCA SCF
-------------------------------------------------------------------------------

------------
SCF SETTINGS
------------
Hamiltonian:
 Ab initio Hamiltonian  Method          .... Hartree-Fock(GTOs)


General Settings:
 Integral files         IntName         .... /scratch/chu_02/allen/tmpyp4_amber_gaff2/conf1/conf1/Conf333.orca
 Hartree-Fock type      HFTyp           .... RHF
 Total Charge           Charge          ....    0
 Multiplicity           Mult            ....    1
 Number of Electrons    NEL             ....  358
 Basis Dimension        Dim             ....  918
 Nuclear Repulsion      ENuc            ....   6231.6689295474 Eh

Convergence Acceleration:
 DIIS                   CNVDIIS         .... on
   Start iteration      DIISMaxIt       ....    12
   Startup error        DIISStart       ....  0.200000
   # of expansion vecs  DIISMaxEq       ....     5
   Bias factor          DIISBfac        ....   1.050
   Max. coefficient     DIISMaxC        ....  10.000
 Trust-Rad. Augm. Hess. CNVTRAH         .... auto
   Auto Start mean grad. ratio tolernc. ....  1.125000
   Auto Start start iteration           ....    20
   Auto Start num. interpolation iter.  ....    10
   Max. Number of Micro iterations      ....    16
   Max. Number of Macro iterations      .... Maxiter - #DIIS iter
   Number of Davidson start vectors     ....     2
   Converg. threshold I  (grad. norm)   ....   1.000e-05
   Converg. threshold II (energy diff.) ....   1.000e-08
   Grad. Scal. Fac. for Micro threshold ....   0.100
   Minimum threshold for Micro iter.    ....   0.010
   NR start threshold (gradient norm)   ....   0.001
   Initial trust radius                 ....   0.400
   Minimum AH scaling param. (alpha)    ....   1.000
   Maximum AH scaling param. (alpha)    .... 1000.000
   Orbital update algorithm             .... Taylor
   White noise on init. David. guess    .... on
   Maximum white noise                  ....   0.010
   Quad. conv. algorithm                .... NR
 SOSCF                  CNVSOSCF        .... on
   Start iteration      SOSCFMaxIt      ....   150
   Startup grad/error   SOSCFStart      ....  0.003300
 Level Shifting         CNVShift        .... on
   Level shift para.    LevelShift      ....    0.2500
   Turn off err/grad.   ShiftErr        ....    0.0010
 Zerner damping         CNVZerner       .... off
 Static damping         CNVDamp         .... on
   Fraction old density DampFac         ....    0.7000
   Max. Damping (<1)    DampMax         ....    0.9800
   Min. Damping (>=0)   DampMin         ....    0.0000
   Turn off err/grad.   DampErr         ....    0.1000
 Fernandez-Rico         CNVRico         .... off

SCF Procedure:
 Maximum # iterations   MaxIter         ....   125
 SCF integral mode      SCFMode         .... Direct
   Integral package                     .... SHARK and LIBINT hybrid scheme
 Reset frequency        DirectResetFreq ....    20
 Integral Threshold     Thresh          ....  2.500e-11 Eh
 Primitive CutOff       TCut            ....  2.500e-12 Eh

Convergence Tolerance:
 Convergence Check Mode ConvCheckMode   .... Total+1el-Energy
 Convergence forced     ConvForced      .... 1
 Energy Change          TolE            ....  1.000e-08 Eh
 1-El. energy change                    ....  1.000e-05 Eh
 Orbital Gradient       TolG            ....  1.000e-05
 Orbital Rotation angle TolX            ....  1.000e-05
 DIIS Error             TolErr          ....  5.000e-07


Diagonalization of the overlap matrix:
Smallest eigenvalue                        ... 2.176e-04
Time for diagonalization                   ...    0.212 sec
Threshold for overlap eigenvalues          ... 1.000e-08
Number of eigenvalues below threshold      ... 0
Time for construction of square roots      ...    0.126 sec
Total time needed                          ...    0.342 sec

Time for model grid setup =    1.314 sec

------------------------------
INITIAL GUESS: MODEL POTENTIAL
------------------------------
Loading Hartree-Fock densities                     ... done
Calculating cut-offs                               ... done
Initializing the effective Hamiltonian             ... done
Setting up the integral package (SHARK)            ... done
Starting the Coulomb interaction                   ... done (   1.6 sec)
Reading the grid                                   ... done
Mapping shells                                     ... done
Starting the XC term evaluation                    ... done (   0.3 sec)
Transforming the Hamiltonian                       ... done (   0.1 sec)
Diagonalizing the Hamiltonian                      ... done (   0.2 sec)
Back transforming the eigenvectors                 ... done (   0.0 sec)
Now organizing SCF variables                       ... done
                      ------------------
                      INITIAL GUESS DONE (   3.6 sec)
                      ------------------
--------------
SCF ITERATIONS
--------------
ITER       Energy         Delta-E        Max-DP      RMS-DP      [F,P]     Damp
               ***  Starting incremental Fock matrix formation  ***
  0  -2121.6884701834   0.000000000000 0.08088707  0.00122025  0.2318750 0.7000
  1  -2122.3404114042  -0.651941220818 0.06076112  0.00099212  0.1437173 0.7000
                               ***Turning on DIIS***
  2  -2122.7460878559  -0.405676451735 0.14117089  0.00225457  0.0802626 0.0000
  3  -2117.9768616008   4.769226255126 0.03370581  0.00066850  0.0437682 0.0000
  4  -2123.4270893066  -5.450227705813 0.01081997  0.00022465  0.0083647 0.0000
  5  -2123.5787834933  -0.151694186659 0.00537102  0.00013190  0.0049602 0.0000
  6  -2123.5625907171   0.016192776224 0.00364813  0.00008476  0.0020600 0.0000
  7  -2123.6588865240  -0.096295806963 0.00310913  0.00006683  0.0015905 0.0000
  8  -2123.6688393159  -0.009952791877 0.00328826  0.00006332  0.0014808 0.0000
  9  -2123.6391823555   0.029656960442 0.00262352  0.00004453  0.0011861 0.0000
 10  -2123.6482755245  -0.009093169048 0.00527961  0.00009321  0.0009193 0.0000
                      *** Initiating the SOSCF procedure ***
                           *** Shutting down DIIS ***
                      *** Re-Reading the Fockian *** 
                      *** Removing any level shift *** 
ITER      Energy       Delta-E        Grad      Rot      Max-DP    RMS-DP
 11  -2123.53987639   0.1083991368  0.000180  0.000180  0.000240  0.000005
               *** Restarting incremental Fock matrix formation ***
 12  -2123.60597297  -0.0660965854  0.000853  0.006261  0.001408  0.000035
 13  -2123.60607875  -0.0001057768  0.001066  0.031625  0.006586  0.000136
 14  -2123.60626137  -0.0001826159  0.000346  0.001753  0.000639  0.000012
 15  -2123.60627678  -0.0000154176  0.000160  0.002155  0.000676  0.000016
 16  -2123.60628533  -0.0000085499  0.000155  0.002648  0.000455  0.000009
 17  -2123.60628804  -0.0000027093  0.000123  0.001821  0.000300  0.000006
 18  -2123.60628943  -0.0000013872  0.000065  0.000634  0.000267  0.000003
 19  -2123.60629006  -0.0000006258  0.000041  0.000594  0.000152  0.000003
 20  -2123.60629029  -0.0000002338  0.000021  0.000356  0.000093  0.000002
 21  -2123.60629040  -0.0000001080  0.000020  0.000454  0.000107  0.000002
 22  -2123.60629048  -0.0000000815  0.000016  0.000435  0.000086  0.000002
 23  -2123.60629053  -0.0000000520  0.000008  0.000307  0.000060  0.000001
 24  -2123.60629056  -0.0000000302  0.000006  0.000252  0.000042  0.000001
 25  -2123.60629058  -0.0000000210  0.000006  0.000169  0.000027  0.000001
 26  -2123.60629060  -0.0000000132  0.000005  0.000166  0.000026  0.000001
 27  -2123.60629061  -0.0000000099  0.000003  0.000134  0.000023  0.000000
                  ***Gradient check signals convergence***
              ***Rediagonalizing the Fockian in SOSCF/NRSCF***

               *****************************************************
               *                     SUCCESS                       *
               *           SCF CONVERGED AFTER  28 CYCLES          *
               *****************************************************


----------------
TOTAL SCF ENERGY
----------------

Total Energy       :        -2123.60629061 Eh          -57786.26496 eV

Components:
Nuclear Repulsion  :         6231.66892955 Eh          169572.33246 eV
Electronic Energy  :        -8355.27522016 Eh         -227358.59743 eV
One Electron Energy:       -15304.09995717 Eh         -416445.73153 eV
Two Electron Energy:         6948.82473701 Eh          189087.13410 eV

Virial components:
Potential Energy   :        -4245.80513685 Eh         -115534.23142 eV
Kinetic Energy     :         2122.19884624 Eh           57747.96646 eV
Virial Ratio       :            2.00066320


---------------
SCF CONVERGENCE
---------------

  Last Energy change         ...   -3.9527e-09  Tolerance :   1.0000e-08
  Last MAX-Density change    ...    1.2718e-05  Tolerance :   1.0000e-07
  Last RMS-Density change    ...    2.8072e-07  Tolerance :   5.0000e-09
  Last Orbital Gradient      ...    2.0367e-06  Tolerance :   1.0000e-05
  Last Orbital Rotation      ...    8.3265e-05  Tolerance :   1.0000e-05

             **** THE GBW FILE WAS UPDATED (/scratch/chu_02/allen/tmpyp4_amber_gaff2/conf1/conf1/Conf333.orca.gbw) ****
             **** DENSITY /scratch/chu_02/allen/tmpyp4_amber_gaff2/conf1/conf1/Conf333.orca.scfp WAS UPDATED ****
             **** ENERGY FILE WAS UPDATED (/scratch/chu_02/allen/tmpyp4_amber_gaff2/conf1/conf1/Conf333.orca.en.tmp) ****
             **** THE GBW FILE WAS UPDATED (/scratch/chu_02/allen/tmpyp4_amber_gaff2/conf1/conf1/Conf333.orca.gbw) ****
             **** DENSITY /scratch/chu_02/allen/tmpyp4_amber_gaff2/conf1/conf1/Conf333.orca.scfp WAS UPDATED ****
----------------
ORBITAL ENERGIES
----------------

  NO   OCC          E(Eh)            E(eV) 
   0   2.0000     -15.674387      -426.5218 
   1   2.0000     -15.636885      -425.5013 
   2   2.0000     -15.629106      -425.2896 
   3   2.0000     -15.589383      -424.2087 
   4   2.0000     -15.525352      -422.4663 
   5   2.0000     -15.515720      -422.2042 
   6   2.0000     -15.452187      -420.4754 
   7   2.0000     -15.442486      -420.2114 
   8   2.0000     -11.325343      -308.1782 
   9   2.0000     -11.324597      -308.1579 
  10   2.0000     -11.323380      -308.1248 
  11   2.0000     -11.301155      -307.5201 
  12   2.0000     -11.296612      -307.3964 
  13   2.0000     -11.295150      -307.3567 
  14   2.0000     -11.289520      -307.2035 
  15   2.0000     -11.288567      -307.1775 
  16   2.0000     -11.284464      -307.0659 
  17   2.0000     -11.277005      -306.8629 
  18   2.0000     -11.272192      -306.7319 
  19   2.0000     -11.259621      -306.3899 
  20   2.0000     -11.258670      -306.3640 
  21   2.0000     -11.255649      -306.2818 
  22   2.0000     -11.252425      -306.1940 
  23   2.0000     -11.240572      -305.8715 
  24   2.0000     -11.233930      -305.6908 
  25   2.0000     -11.233413      -305.6767 
  26   2.0000     -11.232830      -305.6608 
  27   2.0000     -11.227695      -305.5211 
  28   2.0000     -11.227377      -305.5125 
  29   2.0000     -11.210997      -305.0667 
  30   2.0000     -11.209515      -305.0264 
  31   2.0000     -11.198600      -304.7294 
  32   2.0000     -11.190650      -304.5131 
  33   2.0000     -11.190026      -304.4961 
  34   2.0000     -11.189373      -304.4783 
  35   2.0000     -11.189255      -304.4751 
  36   2.0000     -11.188658      -304.4589 
  37   2.0000     -11.185260      -304.3664 
  38   2.0000     -11.184153      -304.3363 
  39   2.0000     -11.174383      -304.0704 
  40   2.0000     -11.173662      -304.0508 
  41   2.0000     -11.168815      -303.9189 
  42   2.0000     -11.168808      -303.9187 
  43   2.0000     -11.161468      -303.7190 
  44   2.0000     -11.159673      -303.6701 
  45   2.0000     -11.158655      -303.6424 
  46   2.0000     -11.157623      -303.6144 
  47   2.0000     -11.153522      -303.5028 
  48   2.0000     -11.146998      -303.3252 
  49   2.0000     -11.138995      -303.1075 
  50   2.0000     -11.133126      -302.9478 
  51   2.0000     -11.123904      -302.6968 
  52   2.0000      -1.355786       -36.8928 
  53   2.0000      -1.323757       -36.0213 
  54   2.0000      -1.317247       -35.8441 
  55   2.0000      -1.283610       -34.9288 
  56   2.0000      -1.226154       -33.3653 
  57   2.0000      -1.210038       -32.9268 
  58   2.0000      -1.171090       -31.8670 
  59   2.0000      -1.152828       -31.3700 
  60   2.0000      -1.139788       -31.0152 
  61   2.0000      -1.112346       -30.2685 
  62   2.0000      -1.107007       -30.1232 
  63   2.0000      -1.079830       -29.3837 
  64   2.0000      -1.077822       -29.3290 
  65   2.0000      -1.047859       -28.5137 
  66   2.0000      -1.042011       -28.3546 
  67   2.0000      -1.038655       -28.2632 
  68   2.0000      -1.015134       -27.6232 
  69   2.0000      -1.012582       -27.5538 
  70   2.0000      -1.009281       -27.4639 
  71   2.0000      -0.993488       -27.0342 
  72   2.0000      -0.986556       -26.8456 
  73   2.0000      -0.980343       -26.6765 
  74   2.0000      -0.971818       -26.4445 
  75   2.0000      -0.960376       -26.1332 
  76   2.0000      -0.952938       -25.9308 
  77   2.0000      -0.946188       -25.7471 
  78   2.0000      -0.935186       -25.4477 
  79   2.0000      -0.918947       -25.0058 
  80   2.0000      -0.906725       -24.6732 
  81   2.0000      -0.893994       -24.3268 
  82   2.0000      -0.875444       -23.8220 
  83   2.0000      -0.872755       -23.7489 
  84   2.0000      -0.867929       -23.6175 
  85   2.0000      -0.856378       -23.3032 
  86   2.0000      -0.839343       -22.8397 
  87   2.0000      -0.836684       -22.7673 
  88   2.0000      -0.823780       -22.4162 
  89   2.0000      -0.797825       -21.7099 
  90   2.0000      -0.791248       -21.5309 
  91   2.0000      -0.750681       -20.4271 
  92   2.0000      -0.741905       -20.1883 
  93   2.0000      -0.733421       -19.9574 
  94   2.0000      -0.724532       -19.7155 
  95   2.0000      -0.721255       -19.6263 
  96   2.0000      -0.715810       -19.4782 
  97   2.0000      -0.710953       -19.3460 
  98   2.0000      -0.706242       -19.2178 
  99   2.0000      -0.697019       -18.9669 
 100   2.0000      -0.696191       -18.9443 
 101   2.0000      -0.684185       -18.6176 
 102   2.0000      -0.680756       -18.5243 
 103   2.0000      -0.679582       -18.4924 
 104   2.0000      -0.677076       -18.4242 
 105   2.0000      -0.671951       -18.2847 
 106   2.0000      -0.669134       -18.2081 
 107   2.0000      -0.661393       -17.9974 
 108   2.0000      -0.655186       -17.8285 
 109   2.0000      -0.654231       -17.8025 
 110   2.0000      -0.649367       -17.6702 
 111   2.0000      -0.643139       -17.5007 
 112   2.0000      -0.642204       -17.4753 
 113   2.0000      -0.640003       -17.4154 
 114   2.0000      -0.636856       -17.3297 
 115   2.0000      -0.626514       -17.0483 
 116   2.0000      -0.623548       -16.9676 
 117   2.0000      -0.617870       -16.8131 
 118   2.0000      -0.614665       -16.7259 
 119   2.0000      -0.613192       -16.6858 
 120   2.0000      -0.609399       -16.5826 
 121   2.0000      -0.607902       -16.5419 
 122   2.0000      -0.599355       -16.3093 
 123   2.0000      -0.586175       -15.9506 
 124   2.0000      -0.583077       -15.8663 
 125   2.0000      -0.580590       -15.7987 
 126   2.0000      -0.578670       -15.7464 
 127   2.0000      -0.576407       -15.6848 
 128   2.0000      -0.567422       -15.4403 
 129   2.0000      -0.558883       -15.2080 
 130   2.0000      -0.550379       -14.9766 
 131   2.0000      -0.547680       -14.9031 
 132   2.0000      -0.543598       -14.7921 
 133   2.0000      -0.541150       -14.7254 
 134   2.0000      -0.539514       -14.6809 
 135   2.0000      -0.534401       -14.5418 
 136   2.0000      -0.527282       -14.3481 
 137   2.0000      -0.522416       -14.2157 
 138   2.0000      -0.518284       -14.1032 
 139   2.0000      -0.513640       -13.9769 
 140   2.0000      -0.512044       -13.9334 
 141   2.0000      -0.510472       -13.8906 
 142   2.0000      -0.510254       -13.8847 
 143   2.0000      -0.503591       -13.7034 
 144   2.0000      -0.500712       -13.6251 
 145   2.0000      -0.496158       -13.5011 
 146   2.0000      -0.493808       -13.4372 
 147   2.0000      -0.483343       -13.1524 
 148   2.0000      -0.478999       -13.0342 
 149   2.0000      -0.466718       -12.7000 
 150   2.0000      -0.465963       -12.6795 
 151   2.0000      -0.457293       -12.4436 
 152   2.0000      -0.450107       -12.2480 
 153   2.0000      -0.446127       -12.1397 
 154   2.0000      -0.441759       -12.0209 
 155   2.0000      -0.431134       -11.7317 
 156   2.0000      -0.428789       -11.6679 
 157   2.0000      -0.419975       -11.4281 
 158   2.0000      -0.405954       -11.0466 
 159   2.0000      -0.387072       -10.5328 
 160   2.0000      -0.384096       -10.4518 
 161   2.0000      -0.378281       -10.2935 
 162   2.0000      -0.371271       -10.1028 
 163   2.0000      -0.358707        -9.7609 
 164   2.0000      -0.353935        -9.6311 
 165   2.0000      -0.340050        -9.2532 
 166   2.0000      -0.337780        -9.1915 
 167   2.0000      -0.326986        -8.8977 
 168   2.0000      -0.323754        -8.8098 
 169   2.0000      -0.305155        -8.3037 
 170   2.0000      -0.299446        -8.1483 
 171   2.0000      -0.285574        -7.7709 
 172   2.0000      -0.281400        -7.6573 
 173   2.0000      -0.262120        -7.1326 
 174   2.0000      -0.243258        -6.6194 
 175   2.0000      -0.190019        -5.1707 
 176   2.0000      -0.180432        -4.9098 
 177   2.0000      -0.076455        -2.0804 
 178   2.0000      -0.058589        -1.5943 
 179   0.0000       0.028338         0.7711 
 180   0.0000       0.066011         1.7963 
 181   0.0000       0.091265         2.4834 
 182   0.0000       0.109551         2.9810 
 183   0.0000       0.110817         3.0155 
 184   0.0000       0.135171         3.6782 
 185   0.0000       0.141048         3.8381 
 186   0.0000       0.143740         3.9114 
 187   0.0000       0.163416         4.4468 
 188   0.0000       0.164591         4.4788 
 189   0.0000       0.167175         4.5491 
 190   0.0000       0.170722         4.6456 
 191   0.0000       0.183192         4.9849 
 192   0.0000       0.186613         5.0780 
 193   0.0000       0.187526         5.1029 
 194   0.0000       0.203207         5.5296 
 195   0.0000       0.206541         5.6203 
 196   0.0000       0.207160         5.6371 
 197   0.0000       0.210248         5.7211 
 198   0.0000       0.219136         5.9630 
 199   0.0000       0.226686         6.1684 
 200   0.0000       0.233146         6.3442 
 201   0.0000       0.236146         6.4259 
 202   0.0000       0.238143         6.4802 
 203   0.0000       0.240972         6.5572 
 204   0.0000       0.247691         6.7400 
 205   0.0000       0.255389         6.9495 
 206   0.0000       0.256958         6.9922 
 207   0.0000       0.258702         7.0396 
 208   0.0000       0.260494         7.0884 
 209   0.0000       0.261818         7.1244 
 210   0.0000       0.262651         7.1471 
 211   0.0000       0.267881         7.2894 
 212   0.0000       0.269754         7.3404 
 213   0.0000       0.271596         7.3905 
 214   0.0000       0.272425         7.4131 
 215   0.0000       0.277114         7.5407 
 216   0.0000       0.279158         7.5963 
 217   0.0000       0.280331         7.6282 
 218   0.0000       0.285928         7.7805 
 219   0.0000       0.288316         7.8455 
 220   0.0000       0.289362         7.8740 
 221   0.0000       0.292530         7.9601 
 222   0.0000       0.294491         8.0135 
 223   0.0000       0.295476         8.0403 
 224   0.0000       0.298312         8.1175 
 225   0.0000       0.299554         8.1513 
 226   0.0000       0.305623         8.3164 
 227   0.0000       0.308551         8.3961 
 228   0.0000       0.309912         8.4331 
 229   0.0000       0.323867         8.8129 
 230   0.0000       0.327130         8.9017 
 231   0.0000       0.332059         9.0358 
 232   0.0000       0.334589         9.1046 
 233   0.0000       0.340193         9.2571 
 234   0.0000       0.352263         9.5856 
 235   0.0000       0.353960         9.6317 
 236   0.0000       0.370500        10.0818 
 237   0.0000       0.377226        10.2649 
 238   0.0000       0.393125        10.6975 
 239   0.0000       0.396330        10.7847 
 240   0.0000       0.400727        10.9043 
 241   0.0000       0.410317        11.1653 
 242   0.0000       0.414550        11.2805 
 243   0.0000       0.419545        11.4164 
 244   0.0000       0.427590        11.6353 
 245   0.0000       0.434552        11.8248 
 246   0.0000       0.437298        11.8995 
 247   0.0000       0.439012        11.9461 
 248   0.0000       0.443046        12.0559 
 249   0.0000       0.448935        12.2161 
 250   0.0000       0.457632        12.4528 
 251   0.0000       0.460798        12.5389 
 252   0.0000       0.467263        12.7149 
 253   0.0000       0.469756        12.7827 
 254   0.0000       0.472427        12.8554 
 255   0.0000       0.474680        12.9167 
 256   0.0000       0.477272        12.9872 
 257   0.0000       0.481391        13.0993 
 258   0.0000       0.486281        13.2324 
 259   0.0000       0.497625        13.5411 
 260   0.0000       0.502993        13.6871 
 261   0.0000       0.504086        13.7169 
 262   0.0000       0.507677        13.8146 
 263   0.0000       0.509907        13.8753 
 264   0.0000       0.514422        13.9981 
 265   0.0000       0.517124        14.0717 
 266   0.0000       0.524509        14.2726 
 267   0.0000       0.529044        14.3960 
 268   0.0000       0.532922        14.5015 
 269   0.0000       0.537907        14.6372 
 270   0.0000       0.539817        14.6892 
 271   0.0000       0.546328        14.8664 
 272   0.0000       0.554684        15.0937 
 273   0.0000       0.558810        15.2060 
 274   0.0000       0.562105        15.2957 
 275   0.0000       0.564639        15.3646 
 276   0.0000       0.569926        15.5085 
 277   0.0000       0.572157        15.5692 
 278   0.0000       0.577034        15.7019 
 279   0.0000       0.586705        15.9650 
 280   0.0000       0.589523        16.0417 
 281   0.0000       0.590103        16.0575 
 282   0.0000       0.594413        16.1748 
 283   0.0000       0.596433        16.2298 
 284   0.0000       0.597940        16.2708 
 285   0.0000       0.600517        16.3409 
 286   0.0000       0.608348        16.5540 
 287   0.0000       0.612376        16.6636 
 288   0.0000       0.613929        16.7059 
 289   0.0000       0.626174        17.0391 
 290   0.0000       0.626959        17.0604 
 291   0.0000       0.628444        17.1008 
 292   0.0000       0.635312        17.2877 
 293   0.0000       0.636704        17.3256 
 294   0.0000       0.645962        17.5775 
 295   0.0000       0.649241        17.6668 
 296   0.0000       0.653650        17.7867 
 297   0.0000       0.656339        17.8599 
 298   0.0000       0.663586        18.0571 
 299   0.0000       0.667851        18.1731 
 300   0.0000       0.669041        18.2055 
 301   0.0000       0.675024        18.3683 
 302   0.0000       0.675756        18.3882 
 303   0.0000       0.678141        18.4531 
 304   0.0000       0.681641        18.5484 
 305   0.0000       0.686044        18.6682 
 306   0.0000       0.689425        18.7602 
 307   0.0000       0.690974        18.8024 
 308   0.0000       0.695809        18.9339 
 309   0.0000       0.697957        18.9924 
 310   0.0000       0.701905        19.0998 
 311   0.0000       0.704480        19.1699 
 312   0.0000       0.708961        19.2918 
 313   0.0000       0.709755        19.3134 
 314   0.0000       0.711186        19.3523 
 315   0.0000       0.714299        19.4371 
 316   0.0000       0.717012        19.5109 
 317   0.0000       0.718832        19.5604 
 318   0.0000       0.721973        19.6459 
 319   0.0000       0.722552        19.6617 
 320   0.0000       0.727147        19.7867 
 321   0.0000       0.730195        19.8696 
 322   0.0000       0.731960        19.9176 
 323   0.0000       0.734309        19.9816 
 324   0.0000       0.737099        20.0575 
 325   0.0000       0.741780        20.1849 
 326   0.0000       0.744776        20.2664 
 327   0.0000       0.747248        20.3336 
 328   0.0000       0.749848        20.4044 
 329   0.0000       0.752447        20.4751 
 330   0.0000       0.753067        20.4920 
 331   0.0000       0.756908        20.5965 
 332   0.0000       0.761220        20.7139 
 333   0.0000       0.761911        20.7327 
 334   0.0000       0.768943        20.9240 
 335   0.0000       0.772297        21.0153 
 336   0.0000       0.774443        21.0737 
 337   0.0000       0.782589        21.2953 
 338   0.0000       0.785446        21.3731 
 339   0.0000       0.787176        21.4202 
 340   0.0000       0.789422        21.4813 
 341   0.0000       0.795223        21.6391 
 342   0.0000       0.796384        21.6707 
 343   0.0000       0.802666        21.8417 
 344   0.0000       0.804428        21.8896 
 345   0.0000       0.807246        21.9663 
 346   0.0000       0.807774        21.9806 
 347   0.0000       0.812073        22.0976 
 348   0.0000       0.816332        22.2135 
 349   0.0000       0.818289        22.2668 
 350   0.0000       0.818731        22.2788 
 351   0.0000       0.819363        22.2960 
 352   0.0000       0.822925        22.3929 
 353   0.0000       0.825926        22.4746 
 354   0.0000       0.829288        22.5661 
 355   0.0000       0.830368        22.5955 
 356   0.0000       0.832953        22.6658 
 357   0.0000       0.836004        22.7488 
 358   0.0000       0.836519        22.7628 
 359   0.0000       0.839640        22.8478 
 360   0.0000       0.841549        22.8997 
 361   0.0000       0.843027        22.9399 
 362   0.0000       0.844155        22.9706 
 363   0.0000       0.847082        23.0503 
 364   0.0000       0.848593        23.0914 
 365   0.0000       0.854434        23.2503 
 366   0.0000       0.857187        23.3252 
 367   0.0000       0.861413        23.4402 
 368   0.0000       0.864423        23.5221 
 369   0.0000       0.865818        23.5601 
 370   0.0000       0.870947        23.6997 
 371   0.0000       0.871475        23.7140 
 372   0.0000       0.873985        23.7823 
 373   0.0000       0.877738        23.8845 
 374   0.0000       0.880110        23.9490 
 375   0.0000       0.881550        23.9882 
 376   0.0000       0.886301        24.1175 
 377   0.0000       0.887725        24.1562 
 378   0.0000       0.892797        24.2942 
 379   0.0000       0.894458        24.3394 
 380   0.0000       0.896077        24.3835 
 381   0.0000       0.898869        24.4595 
 382   0.0000       0.900776        24.5114 
 383   0.0000       0.902479        24.5577 
 384   0.0000       0.903953        24.5978 
 385   0.0000       0.905511        24.6402 
 386   0.0000       0.906636        24.6708 
 387   0.0000       0.909275        24.7426 
 388   0.0000       0.911712        24.8089 
 389   0.0000       0.915178        24.9033 
 390   0.0000       0.921186        25.0667 
 391   0.0000       0.922776        25.1100 
 392   0.0000       0.924814        25.1655 
 393   0.0000       0.927852        25.2481 
 394   0.0000       0.929085        25.2817 
 395   0.0000       0.930077        25.3087 
 396   0.0000       0.933550        25.4032 
 397   0.0000       0.938626        25.5413 
 398   0.0000       0.942227        25.6393 
 399   0.0000       0.942726        25.6529 
 400   0.0000       0.944832        25.7102 
 401   0.0000       0.951120        25.8813 
 402   0.0000       0.952743        25.9254 
 403   0.0000       0.953629        25.9496 
 404   0.0000       0.960786        26.1443 
 405   0.0000       0.964448        26.2440 
 406   0.0000       0.966251        26.2930 
 407   0.0000       0.969834        26.3905 
 408   0.0000       0.971956        26.4483 
 409   0.0000       0.977555        26.6006 
 410   0.0000       0.981158        26.6987 
 411   0.0000       0.985251        26.8101 
 412   0.0000       0.991054        26.9680 
 413   0.0000       0.999222        27.1902 
 414   0.0000       1.000127        27.2148 
 415   0.0000       1.006924        27.3998 
 416   0.0000       1.007700        27.4209 
 417   0.0000       1.010893        27.5078 
 418   0.0000       1.015651        27.6373 
 419   0.0000       1.022410        27.8212 
 420   0.0000       1.028809        27.9953 
 421   0.0000       1.030034        28.0286 
 422   0.0000       1.042274        28.3617 
 423   0.0000       1.044521        28.4229 
 424   0.0000       1.050399        28.5828 
 425   0.0000       1.057821        28.7848 
 426   0.0000       1.064137        28.9566 
 427   0.0000       1.066721        29.0269 
 428   0.0000       1.073583        29.2137 
 429   0.0000       1.077906        29.3313 
 430   0.0000       1.080602        29.4047 
 431   0.0000       1.084156        29.5014 
 432   0.0000       1.087232        29.5851 
 433   0.0000       1.093555        29.7571 
 434   0.0000       1.096540        29.8384 
 435   0.0000       1.103992        30.0412 
 436   0.0000       1.108699        30.1692 
 437   0.0000       1.112433        30.2708 
 438   0.0000       1.113739        30.3064 
 439   0.0000       1.117892        30.4194 
 440   0.0000       1.121115        30.5071 
 441   0.0000       1.122201        30.5366 
 442   0.0000       1.126375        30.6502 
 443   0.0000       1.130387        30.7594 
 444   0.0000       1.131160        30.7804 
 445   0.0000       1.134781        30.8790 
 446   0.0000       1.141770        31.0692 
 447   0.0000       1.147789        31.2329 
 448   0.0000       1.149094        31.2684 
 449   0.0000       1.151692        31.3391 
 450   0.0000       1.154432        31.4137 
 451   0.0000       1.155081        31.4314 
 452   0.0000       1.161117        31.5956 
 453   0.0000       1.165250        31.7081 
 454   0.0000       1.167005        31.7558 
 455   0.0000       1.169329        31.8191 
 456   0.0000       1.175297        31.9814 
 457   0.0000       1.177932        32.0532 
 458   0.0000       1.184865        32.2418 
 459   0.0000       1.187880        32.3239 
 460   0.0000       1.188868        32.3507 
 461   0.0000       1.197811        32.5941 
 462   0.0000       1.201977        32.7075 
 463   0.0000       1.204248        32.7693 
 464   0.0000       1.205966        32.8160 
 465   0.0000       1.207804        32.8660 
 466   0.0000       1.212077        32.9823 
 467   0.0000       1.218179        33.1483 
 468   0.0000       1.218756        33.1640 
 469   0.0000       1.227037        33.3894 
 470   0.0000       1.228713        33.4350 
 471   0.0000       1.233254        33.5586 
 472   0.0000       1.234656        33.5967 
 473   0.0000       1.237168        33.6650 
 474   0.0000       1.242316        33.8051 
 475   0.0000       1.243148        33.8278 
 476   0.0000       1.248565        33.9752 
 477   0.0000       1.251506        34.0552 
 478   0.0000       1.253889        34.1201 
 479   0.0000       1.254457        34.1355 
 480   0.0000       1.258420        34.2433 
 481   0.0000       1.261819        34.3359 
 482   0.0000       1.269779        34.5524 
 483   0.0000       1.273003        34.6402 
 484   0.0000       1.274468        34.6800 
 485   0.0000       1.277825        34.7714 
 486   0.0000       1.281193        34.8630 
 487   0.0000       1.284711        34.9588 
 488   0.0000       1.288830        35.0708 
 489   0.0000       1.292632        35.1743 
 490   0.0000       1.294504        35.2253 
 491   0.0000       1.297151        35.2973 
 492   0.0000       1.300772        35.3958 
 493   0.0000       1.304167        35.4882 
 494   0.0000       1.311143        35.6780 
 495   0.0000       1.313821        35.7509 
 496   0.0000       1.318665        35.8827 
 497   0.0000       1.321919        35.9712 
 498   0.0000       1.326024        36.0829 
 499   0.0000       1.327346        36.1189 
 500   0.0000       1.330308        36.1995 
 501   0.0000       1.335625        36.3442 
 502   0.0000       1.337587        36.3976 
 503   0.0000       1.344167        36.5766 
 504   0.0000       1.345911        36.6241 
 505   0.0000       1.349264        36.7153 
 506   0.0000       1.350784        36.7567 
 507   0.0000       1.356082        36.9009 
 508   0.0000       1.359742        37.0005 
[...]
 76 H s       :     0.886166  s :     0.886166
      pz      :     0.022099  p :     0.079761
      px      :     0.043582
      py      :     0.014080
 77 H s       :     0.885092  s :     0.885092
      pz      :     0.047940  p :     0.079244
      px      :     0.015022
      py      :     0.016282
 78 H s       :     0.885499  s :     0.885499
      pz      :     0.025860  p :     0.079200
      px      :     0.020466
      py      :     0.032874
 79 H s       :     0.910264  s :     0.910264
      pz      :     0.021839  p :     0.086386
      px      :     0.021674
      py      :     0.042873
 80 H s       :     0.865313  s :     0.865313
      pz      :     0.039325  p :     0.084753
      px      :     0.030251
      py      :     0.015177
 81 H s       :     0.887089  s :     0.887089
      pz      :     0.037801  p :     0.084089
      px      :     0.016192
      py      :     0.030097
 82 H s       :     0.916136  s :     0.916136
      pz      :     0.021991  p :     0.086731
      px      :     0.031607
      py      :     0.033133
 83 H s       :     0.873767  s :     0.873767
      pz      :     0.039232  p :     0.084041
      px      :     0.015283
      py      :     0.029526
 84 H s       :     0.887130  s :     0.887130
      pz      :     0.035745  p :     0.083470
      px      :     0.031685
      py      :     0.016040
 85 H s       :     0.893278  s :     0.893278
      pz      :     0.022482  p :     0.079765
      px      :     0.014085
      py      :     0.043198
 86 H s       :     0.891233  s :     0.891233
      pz      :     0.024720  p :     0.078809
      px      :     0.032964
      py      :     0.021125
 87 H s       :     0.890087  s :     0.890087
      pz      :     0.047995  p :     0.078717
      px      :     0.015587
      py      :     0.015135
 88 H s       :     0.910916  s :     0.910916
      pz      :     0.021710  p :     0.087036
      px      :     0.042875
      py      :     0.022451
 89 H s       :     0.871376  s :     0.871376
      pz      :     0.037942  p :     0.083832
      px      :     0.030472
      py      :     0.015418


                      *****************************
                      * MAYER POPULATION ANALYSIS *
                      *****************************

  NA   - Mulliken gross atomic population
  ZA   - Total nuclear charge
  QA   - Mulliken gross atomic charge
  VA   - Mayer's total valence
  BVA  - Mayer's bonded valence
  FA   - Mayer's free valence

  ATOM       NA         ZA         QA         VA         BVA        FA
  0 C      5.7879     6.0000     0.2121     3.8452     3.8452     0.0000
  1 N      7.4558     7.0000    -0.4558     3.3300     3.3300    -0.0000
  2 C      6.0687     6.0000    -0.0687     3.9214     3.9214    -0.0000
  3 N      7.3376     7.0000    -0.3376     3.4595     3.4595    -0.0000
  4 C      6.0553     6.0000    -0.0553     4.0380     4.0380    -0.0000
  5 N      7.5624     7.0000    -0.5624     3.0963     3.0963    -0.0000
  6 C      6.1149     6.0000    -0.1149     3.9923     3.9923    -0.0000
  7 N      7.3404     7.0000    -0.3404     3.4337     3.4337     0.0000
  8 C      5.7944     6.0000     0.2056     3.8396     3.8396    -0.0000
  9 N      7.5626     7.0000    -0.5626     3.0783     3.0783    -0.0000
 10 C      5.8810     6.0000     0.1190     3.9093     3.9093    -0.0000
 11 N      7.4379     7.0000    -0.4379     3.3811     3.3811     0.0000
 12 C      6.0783     6.0000    -0.0783     3.8926     3.8926    -0.0000
 13 N      7.4307     7.0000    -0.4307     3.4225     3.4225     0.0000
 14 C      5.7801     6.0000     0.2199     3.7853     3.7853    -0.0000
 15 N      7.4415     7.0000    -0.4415     3.3697     3.3697     0.0000
 16 C      5.7695     6.0000     0.2305     3.7783     3.7783    -0.0000
 17 C      6.1248     6.0000    -0.1248     3.9942     3.9942    -0.0000
 18 C      6.1601     6.0000    -0.1601     3.7541     3.7541    -0.0000
 19 C      5.7944     6.0000     0.2056     3.8648     3.8648    -0.0000
 20 C      5.7859     6.0000     0.2141     3.8284     3.8284    -0.0000
 21 C      6.0915     6.0000    -0.0915     3.8874     3.8874     0.0000
 22 C      6.0891     6.0000    -0.0891     3.9818     3.9818    -0.0000
 23 C      6.0407     6.0000    -0.0407     3.9923     3.9923    -0.0000
 24 C      5.8041     6.0000     0.1959     3.8214     3.8214     0.0000
 25 C      5.8858     6.0000     0.1142     3.8905     3.8905     0.0000
 26 C      6.0791     6.0000    -0.0791     3.9052     3.9052     0.0000
 27 C      5.7877     6.0000     0.2123     3.8631     3.8631     0.0000
 28 C      6.0604     6.0000    -0.0604     3.9888     3.9888     0.0000
 29 C      6.1812     6.0000    -0.1812     3.7457     3.7457    -0.0000
 30 C      5.7552     6.0000     0.2448     3.7980     3.7980    -0.0000
 31 C      5.7710     6.0000     0.2290     3.8187     3.8187     0.0000
 32 C      6.0615     6.0000    -0.0615     3.9233     3.9233    -0.0000
 33 C      6.0630     6.0000    -0.0630     3.9733     3.9733     0.0000
 34 C      6.0499     6.0000    -0.0499     3.9848     3.9848    -0.0000
 35 C      5.7756     6.0000     0.2244     3.8174     3.8174     0.0000
 36 C      5.8911     6.0000     0.1089     3.8767     3.8767     0.0000
 37 C      6.0645     6.0000    -0.0645     3.9175     3.9175    -0.0000
 38 C      5.7671     6.0000     0.2329     3.8019     3.8019    -0.0000
 39 C      6.0591     6.0000    -0.0591     3.9840     3.9840     0.0000
 40 C      6.1814     6.0000    -0.1814     3.7284     3.7284    -0.0000
 41 C      5.7759     6.0000     0.2241     3.8859     3.8859    -0.0000
 42 C      5.8027     6.0000     0.1973     3.8263     3.8263     0.0000
 43 C      6.0728     6.0000    -0.0728     3.9001     3.9001     0.0000
 44 C      6.0910     6.0000    -0.0910     3.9858     3.9858    -0.0000
 45 C      6.0607     6.0000    -0.0607     3.9921     3.9921    -0.0000
 46 C      5.7905     6.0000     0.2095     3.8287     3.8287     0.0000
 47 C      5.8843     6.0000     0.1157     3.8938     3.8938     0.0000
 48 C      6.0681     6.0000    -0.0681     3.9088     3.9088    -0.0000
 49 C      5.7629     6.0000     0.2371     3.8942     3.8942    -0.0000
 50 C      6.0471     6.0000    -0.0471     3.9905     3.9905     0.0000
 51 C      6.1940     6.0000    -0.1940     3.7368     3.7368    -0.0000
 52 H      0.9602     1.0000     0.0398     0.9858     0.9858    -0.0000
 53 H      1.0169     1.0000    -0.0169     0.9986     0.9986    -0.0000
 54 H      0.9467     1.0000     0.0533     1.0181     1.0181    -0.0000
 55 H      0.9624     1.0000     0.0376     0.9868     0.9868     0.0000
 56 H      0.9512     1.0000     0.0488     0.9696     0.9696    -0.0000
 57 H      0.9513     1.0000     0.0487     0.9824     0.9824    -0.0000
 58 H      0.9531     1.0000     0.0469     0.9851     0.9851    -0.0000
 59 H      0.9988     1.0000     0.0012     1.0040     1.0040    -0.0000
 60 H      0.9495     1.0000     0.0505     1.0141     1.0141    -0.0000
 61 H      0.8290     1.0000     0.1710     1.0419     1.0419    -0.0000
 62 H      0.8245     1.0000     0.1755     1.0436     1.0436    -0.0000
 63 H      0.9437     1.0000     0.0563     0.9852     0.9852     0.0000
 64 H      1.0040     1.0000    -0.0040     0.9970     0.9970    -0.0000
 65 H      0.9530     1.0000     0.0470     1.0098     1.0098     0.0000
 66 H      0.9436     1.0000     0.0564     0.9854     0.9854     0.0000
 67 H      0.9368     1.0000     0.0632     0.9720     0.9720     0.0000
 68 H      0.9423     1.0000     0.0577     0.9868     0.9868    -0.0000
 69 H      0.9428     1.0000     0.0572     0.9829     0.9829     0.0000
 70 H      1.0286     1.0000    -0.0286     0.9932     0.9932     0.0000
 71 H      0.9540     1.0000     0.0460     1.0059     1.0059    -0.0000
 72 H      0.9303     1.0000     0.0697     0.9837     0.9837     0.0000
 73 H      1.0084     1.0000    -0.0084     1.0006     1.0006     0.0000
 74 H      0.9411     1.0000     0.0589     1.0102     1.0102     0.0000
 75 H      0.9310     1.0000     0.0690     0.9841     0.9841    -0.0000
 76 H      0.9265     1.0000     0.0735     0.9721     0.9721     0.0000
 77 H      0.9331     1.0000     0.0669     0.9854     0.9854     0.0000
 78 H      0.9339     1.0000     0.0661     0.9853     0.9853    -0.0000
 79 H      1.0158     1.0000    -0.0158     0.9979     0.9979     0.0000
 80 H      0.9404     1.0000     0.0596     1.0071     1.0071     0.0000
 81 H      0.9462     1.0000     0.0538     0.9857     0.9857    -0.0000
 82 H      1.0252     1.0000    -0.0252     0.9933     0.9933     0.0000
 83 H      0.9589     1.0000     0.0411     1.0084     1.0084     0.0000
 84 H      0.9468     1.0000     0.0532     0.9853     0.9853     0.0000
 85 H      0.9400     1.0000     0.0600     0.9716     0.9716    -0.0000
 86 H      0.9449     1.0000     0.0551     0.9839     0.9839    -0.0000
 87 H      0.9432     1.0000     0.0568     0.9856     0.9856     0.0000
 88 H      1.0152     1.0000    -0.0152     0.9966     0.9966    -0.0000
 89 H      0.9535     1.0000     0.0465     1.0071     1.0071     0.0000

  Mayer bond orders larger than 0.100000
B(  0-C ,  1-N ) :   1.0950 B(  0-C , 17-C ) :   1.7068 B(  0-C , 52-H ) :   0.9660 
B(  1-N ,  8-C ) :   1.0839 B(  1-N , 10-C ) :   0.9779 B(  2-C , 12-C ) :   1.5053 
B(  2-C , 16-C ) :   1.3571 B(  2-C , 53-H ) :   0.9756 B(  3-N , 14-C ) :   1.2181 
B(  3-N , 16-C ) :   1.1906 B(  3-N , 61-H ) :   0.8994 B(  4-C ,  6-C ) :   1.2120 
B(  4-C , 17-C ) :   1.2112 B(  4-C , 18-C ) :   1.4382 B(  5-N , 19-C ) :   1.4530 
B(  5-N , 27-C ) :   1.3789 B(  6-C ,  8-C ) :   1.7112 B(  6-C , 54-H ) :   0.9537 
B(  7-N , 30-C ) :   1.1941 B(  7-N , 38-C ) :   1.1922 B(  7-N , 62-H ) :   0.8968 
B(  8-C , 55-H ) :   0.9675 B(  9-N , 41-C ) :   1.3930 B(  9-N , 49-C ) :   1.4275 
B( 10-C , 56-H ) :   0.9770 B( 10-C , 57-H ) :   0.9831 B( 10-C , 58-H ) :   0.9835 
B( 11-N , 20-C ) :   1.1319 B( 11-N , 24-C ) :   1.1103 B( 11-N , 25-C ) :   0.9591 
B( 12-C , 14-C ) :   1.3564 B( 12-C , 59-H ) :   0.9729 B( 13-N , 31-C ) :   1.1582 
B( 13-N , 35-C ) :   1.1535 B( 13-N , 36-C ) :   0.9435 B( 14-C , 18-C ) :   1.1292 
B( 15-N , 42-C ) :   1.1069 B( 15-N , 46-C ) :   1.1213 B( 15-N , 47-C ) :   0.9623 
B( 16-C , 51-C ) :   1.1715 B( 17-C , 60-H ) :   0.9536 B( 18-C , 19-C ) :   1.1309 
B( 19-C , 21-C ) :   1.2452 B( 20-C , 28-C ) :   1.6261 B( 20-C , 63-H ) :   0.9702 
B( 21-C , 26-C ) :   1.6085 B( 21-C , 64-H ) :   0.9707 B( 22-C , 23-C ) :   1.2907 
B( 22-C , 28-C ) :   1.2669 B( 22-C , 29-C ) :   1.2211 B( 23-C , 24-C ) :   1.6177 
B( 23-C , 65-H ) :   0.9704 B( 24-C , 66-H ) :   0.9694 B( 25-C , 67-H ) :   0.9760 
B( 25-C , 68-H ) :   0.9828 B( 25-C , 69-H ) :   0.9823 B( 26-C , 27-C ) :   1.2402 
B( 26-C , 70-H ) :   0.9700 B( 27-C , 29-C ) :   1.2131 B( 28-C , 71-H ) :   0.9719 
B( 29-C , 30-C ) :   1.2430 B( 30-C , 32-C ) :   1.2815 B( 31-C , 39-C ) :   1.5931 
B( 31-C , 72-H ) :   0.9683 B( 32-C , 37-C ) :   1.5779 B( 32-C , 73-H ) :   0.9785 
B( 33-C , 34-C ) :   1.3048 B( 33-C , 39-C ) :   1.2988 B( 33-C , 40-C ) :   1.1829 
B( 34-C , 35-C ) :   1.5897 B( 34-C , 74-H ) :   0.9697 B( 35-C , 75-H ) :   0.9683 
B( 36-C , 76-H ) :   0.9767 B( 36-C , 77-H ) :   0.9816 B( 36-C , 78-H ) :   0.9824 
B( 37-C , 38-C ) :   1.2859 B( 37-C , 79-H ) :   0.9767 B( 38-C , 40-C ) :   1.2324 
B( 39-C , 80-H ) :   0.9707 B( 40-C , 41-C ) :   1.2469 B( 41-C , 43-C ) :   1.1896 
B( 42-C , 50-C ) :   1.6357 B( 42-C , 81-H ) :   0.9697 B( 43-C , 48-C ) :   1.6624 
B( 43-C , 82-H ) :   0.9722 B( 44-C , 45-C ) :   1.2623 B( 44-C , 50-C ) :   1.2695 
B( 44-C , 51-C ) :   1.2648 B( 45-C , 46-C ) :   1.6367 B( 45-C , 83-H ) :   0.9718 
B( 46-C , 84-H ) :   0.9701 B( 47-C , 85-H ) :   0.9762 B( 47-C , 86-H ) :   0.9829 
B( 47-C , 87-H ) :   0.9825 B( 48-C , 49-C ) :   1.1931 B( 48-C , 88-H ) :   0.9748 
B( 49-C , 51-C ) :   1.2375 B( 50-C , 89-H ) :   0.9709 

-------
TIMINGS
-------

Total SCF time: 0 days 0 hours 42 min 45 sec 

Total time                  ....    2565.923 sec
Sum of individual times     ....    2562.910 sec  ( 99.9%)

Fock matrix formation       ....    2545.406 sec  ( 99.2%)
Diagonalization             ....       4.653 sec  (  0.2%)
Density matrix formation    ....       0.522 sec  (  0.0%)
Population analysis         ....       0.316 sec  (  0.0%)
Initial guess               ....       2.292 sec  (  0.1%)
Orbital Transformation      ....       0.000 sec  (  0.0%)
Orbital Orthonormalization  ....       0.000 sec  (  0.0%)
DIIS solution               ....       2.524 sec  (  0.1%)
SOSCF solution              ....       5.883 sec  (  0.2%)

Maximum memory used throughout the entire SCF-calculation: 304.2 MB


           ************************************************************
           *        Program running with 8 parallel MPI-processes     *
           *              working on a common directory               *
           ************************************************************

------------------------------------------------------------------------------
                                ORCA  MP2 
------------------------------------------------------------------------------

Freezing NCore=104 chemical core electrons

----------
MP2 ENERGY (disk based algorithm)
----------

Dimension of the basis                    ...  918
Memory devoted to MP2                     ... 7000 MB   
Data format for buffers                   ... DOUBLE
Compression type for matrix containers    ... UNCOMPRESSED

-------------------------------
PARTIAL EXCHANGE TRANSFORMATION
-------------------------------

Transformation type                        ... one-operator
Generation of integrals (i,mue|j,nue)      ... ON
Generation of integrals (mue,kappa|nue,tau)... OFF
Generation of integrals (i,mue|a,nue)      ... OFF
Dimension of the basis                     ...  918
Number of internal MOs                     ...  127 (  52- 178)
Pair cutoff                                ... 2.500e-12 Eh
Number of AO pairs in the trafo            ... 421821
Total Number of distinct AO pairs          ... 421821
Memory devoted for trafo                   ... 7000.0 MB 
Max. Number of MO pairs treated together   ... 1088      
Number Format for Storage                  ... Double (8 Byte)
Integral package used                      ... LIBINT

Starting integral evaluation:
    ... done with AO integral generation
Closing buffer AOK     (38.24 GB; CompressionRatio= 1.33)
Collecting buffer AOK 
Number of MO pairs included in the trafo   ... 8128
------------------------
SORTING OF (i,mue|j,nue)
------------------------

IBATCH = 1 of  1
Closing buffer KAO     (51.03 GB; CompressionRatio= 1.00)
Collecting buffer KAO 
N(AO-Batches) Done                         ... 174821332 
N(AO-Batches) Skipped                      ... 167172632 
N(IJ)-pairs Skipped                        ...         0 
TOTAL TIME for half transformation         ...  1154.098 sec
AO-integral generation                     ...   250.808 sec
Half transformation                        ...   468.629 sec
K-integral sorting                         ...    99.446 sec

Finished integral transformation - now doing MP2 part

OPERATOR COMBINATION   0   0: ij=( 52..178, 52..178)
Process 2:   Internal MO  84
Process 5:   Internal MO 132
Process 0:   Internal MO  54
Process 0:   Internal MO  57
Process 1:   Internal MO  69
Process 0:   Internal MO  60
Process 4:   Internal MO 117
Process 0:   Internal MO  63
Process 1:   Internal MO  72
Process 3:   Internal MO 102
Process 2:   Internal MO  87
Process 0:   Internal MO  66
Process 7:   Internal MO 165
Process 1:   Internal MO  75
Process 6:   Internal MO 150
Process 2:   Internal MO  90
Process 1:   Internal MO  78
Process 5:   Internal MO 135
Process 4:   Internal MO 120
Process 3:   Internal MO 105
Process 1:   Internal MO  81
Process 2:   Internal MO  93
Process 3:   Internal MO 108
Process 2:   Internal MO  96
Process 4:   Internal MO 123
Process 7:   Internal MO 168
Process 6:   Internal MO 153
Process 5:   Internal MO 138
Process 2:   Internal MO  99
Process 3:   Internal MO 111
Process 4:   Internal MO 126
Process 5:   Internal MO 141
Process 6:   Internal MO 156
Process 3:   Internal MO 114
Process 7:   Internal MO 171
Process 4:   Internal MO 129
Process 5:   Internal MO 144
Process 6:   Internal MO 159
Process 7:   Internal MO 174
Process 5:   Internal MO 147
Process 6:   Internal MO 162
Process 7:   Internal MO 177
-----------------------------------------------
 MP2 CORRELATION ENERGY   :     -7.281933835 Eh
-----------------------------------------------


-------
TIMINGS
-------
Total time                : 1313.097 sec
Integral trafo            : 1163.652 sec ( 88.6%)
K(i,j)                    :    9.361 sec (  0.7%)
T(i,j)                    :    0.136 sec (  0.0%)

---------------------------------------
MP2 TOTAL ENERGY:    -2130.888224444 Eh
---------------------------------------

Maximum memory used throughout the entire MP2-calculation: 6735.8 MB

-------------------------   --------------------
FINAL SINGLE POINT ENERGY     -2130.888224443539
-------------------------   --------------------


                            ***************************************
                            *     ORCA property calculations      *
                            ***************************************


  WARNING: The energy has been calculated at the MP2 level but the densities
           used in the property calculations are still SCF densities
           MP2 response densities have not been calculated 
           use %mp2 Density relaxed end
           or  %mp2 Density unrelaxed end

                                    ---------------------
                                    Active property flags
                                    ---------------------
   (+) Dipole Moment


------------------------------------------------------------------------------
                       ORCA ELECTRIC PROPERTIES CALCULATION
------------------------------------------------------------------------------

Dipole Moment Calculation                       ... on
Quadrupole Moment Calculation                   ... off
Polarizability Calculation                      ... off
GBWName                                         ... /scratch/chu_02/allen/tmpyp4_amber_gaff2/conf1/conf1/Conf333.orca.gbw
Electron density                                ... /scratch/chu_02/allen/tmpyp4_amber_gaff2/conf1/conf1/Conf333.orca.scfp
The origin for moment calculation is the CENTER OF MASS  = (-0.001330, -0.005046  0.000573)

-------------
DIPOLE MOMENT
-------------
                                X             Y             Z
Electronic contribution:      2.26634      -4.08762      -0.06693
Nuclear contribution   :     -0.00962       0.18138       0.07651
                        -----------------------------------------
Total Dipole Moment    :      2.25672      -3.90624       0.00958
                        -----------------------------------------
Magnitude (a.u.)       :      4.51128
Magnitude (Debye)      :     11.46676



--------------------
Rotational spectrum 
--------------------
 
Rotational constants in cm-1:     0.001502     0.001476     0.000761 
Rotational constants in MHz :    45.037683    44.258691    22.801470 

 Dipole components along the rotational axes: 
x,y,z [a.u.] :     3.066466    -3.308818     0.011900 
x,y,z [Debye]:     7.794338    -8.410346     0.030248 

 

Timings for individual modules:

Sum of individual times         ...     3884.350 sec (=  64.739 min)
GTO integral calculation        ...        2.762 sec (=   0.046 min)   0.1 %
SCF iterations                  ...     2567.204 sec (=  42.787 min)  66.1 %
MP2 module                      ...     1314.384 sec (=  21.906 min)  33.8 %
                             ****ORCA TERMINATED NORMALLY****
TOTAL RUN TIME: 0 days 1 hours 4 minutes 46 seconds 577 msec
# of primitive gaussian functions

