
                                 *****************
                                 * O   R   C   A *
                                 *****************

                                            #,                                       
                                            ###                                      
                                            ####                                     
                                            #####                                    
                                            ######                                   
                                           ########,                                 
                                     ,,################,,,,,                         
                               ,,#################################,,                 
                          ,,##########################################,,             
                       ,#########################################, ''#####,          
                    ,#############################################,,   '####,        
                  ,##################################################,,,,####,       
                ,###########''''           ''''###############################       
              ,#####''   ,,,,##########,,,,          '''####'''          '####       
            ,##' ,,,,###########################,,,                        '##       
           ' ,,###''''                  '''############,,,                           
         ,,##''                                '''############,,,,        ,,,,,,###''
      ,#''                                            '''#######################'''  
     '                                                          ''''####''''         
             ,#######,   #######,   ,#######,      ##                                
            ,#'     '#,  ##    ##  ,#'     '#,    #''#        ######   ,####,        
            ##       ##  ##   ,#'  ##            #'  '#       #        #'  '#        
            ##       ##  #######   ##           ,######,      #####,   #    #        
            '#,     ,#'  ##    ##  '#,     ,#' ,#      #,         ##   #,  ,#        
             '#######'   ##     ##  '#######'  #'      '#     #####' # '####'        



                  #######################################################
                  #                        -***-                        #
                  #          Department of theory and spectroscopy      #
                  #    Directorship and core code : Frank Neese         #
                  #        Max Planck Institute fuer Kohlenforschung    #
                  #                Kaiser Wilhelm Platz 1               #
                  #                 D-45470 Muelheim/Ruhr               #
                  #                      Germany                        #
                  #                                                     #
                  #                  All rights reserved                #
                  #                        -***-                        #
                  #######################################################


                         Program Version 5.0.4 -  RELEASE  -


 With contributions from (in alphabetic order):
   Daniel Aravena         : Magnetic Suceptibility
   Michael Atanasov       : Ab Initio Ligand Field Theory (pilot matlab implementation)
   Alexander A. Auer      : GIAO ZORA, VPT2 properties, NMR spectrum
   Ute Becker             : Parallelization
   Giovanni Bistoni       : ED, misc. LED, open-shell LED, HFLD
   Martin Brehm           : Molecular dynamics
   Dmytro Bykov           : SCF Hessian
   Vijay G. Chilkuri      : MRCI spin determinant printing, contributions to CSF-ICE
   Dipayan Datta          : RHF DLPNO-CCSD density
   Achintya Kumar Dutta   : EOM-CC, STEOM-CC
   Dmitry Ganyushin       : Spin-Orbit,Spin-Spin,Magnetic field MRCI
   Miquel Garcia          : C-PCM and meta-GGA Hessian, CC/C-PCM, Gaussian charge scheme
   Yang Guo               : DLPNO-NEVPT2, F12-NEVPT2, CIM, IAO-localization
   Andreas Hansen         : Spin unrestricted coupled pair/coupled cluster methods
   Benjamin Helmich-Paris : MC-RPA, TRAH-SCF, COSX integrals
   Lee Huntington         : MR-EOM, pCC
   Robert Izsak           : Overlap fitted RIJCOSX, COSX-SCS-MP3, EOM
   Marcus Kettner         : VPT2
   Christian Kollmar      : KDIIS, OOCD, Brueckner-CCSD(T), CCSD density, CASPT2, CASPT2-K
   Simone Kossmann        : Meta GGA functionals, TD-DFT gradient, OOMP2, MP2 Hessian
   Martin Krupicka        : Initial AUTO-CI
   Lucas Lang             : DCDCAS
   Marvin Lechner         : AUTO-CI (C++ implementation), FIC-MRCC
   Dagmar Lenk            : GEPOL surface, SMD
   Dimitrios Liakos       : Extrapolation schemes; Compound Job, initial MDCI parallelization
   Dimitrios Manganas     : Further ROCIS development; embedding schemes
   Dimitrios Pantazis     : SARC Basis sets
   Anastasios Papadopoulos: AUTO-CI, single reference methods and gradients
   Taras Petrenko         : DFT Hessian,TD-DFT gradient, ASA, ECA, R-Raman, ABS, FL, XAS/XES, NRVS
   Peter Pinski           : DLPNO-MP2, DLPNO-MP2 Gradient
   Christoph Reimann      : Effective Core Potentials
   Marius Retegan         : Local ZFS, SOC
   Christoph Riplinger    : Optimizer, TS searches, QM/MM, DLPNO-CCSD(T), (RO)-DLPNO pert. Triples
   Tobias Risthaus        : Range-separated hybrids, TD-DFT gradient, RPA, STAB
   Michael Roemelt        : Original ROCIS implementation
   Masaaki Saitow         : Open-shell DLPNO-CCSD energy and density
   Barbara Sandhoefer     : DKH picture change effects
   Avijit Sen             : IP-ROCIS
   Kantharuban Sivalingam : CASSCF convergence, NEVPT2, FIC-MRCI
   Bernardo de Souza      : ESD, SOC TD-DFT
   Georgi Stoychev        : AutoAux, RI-MP2 NMR, DLPNO-MP2 response
   Willem Van den Heuvel  : Paramagnetic NMR
   Boris Wezisla          : Elementary symmetry handling
   Frank Wennmohs         : Technical directorship


 We gratefully acknowledge several colleagues who have allowed us to
 interface, adapt or use parts of their codes:
   Stefan Grimme, W. Hujo, H. Kruse, P. Pracht,  : VdW corrections, initial TS optimization,
                  C. Bannwarth, S. Ehlert          DFT functionals, gCP, sTDA/sTD-DF
   Ed Valeev, F. Pavosevic, A. Kumar             : LibInt (2-el integral package), F12 methods
   Garnet Chan, S. Sharma, J. Yang, R. Olivares  : DMRG
   Ulf Ekstrom                                   : XCFun DFT Library
   Mihaly Kallay                                 : mrcc  (arbitrary order and MRCC methods)
   Jiri Pittner, Ondrej Demel                    : Mk-CCSD
   Frank Weinhold                                : gennbo (NPA and NBO analysis)
   Christopher J. Cramer and Donald G. Truhlar   : smd solvation model
   Lars Goerigk                                  : TD-DFT with DH, B97 family of functionals
   V. Asgeirsson, H. Jonsson                     : NEB implementation
   FAccTs GmbH                                   : IRC, NEB, NEB-TS, DLPNO-Multilevel, CI-OPT
                                                   MM, QMMM, 2- and 3-layer-ONIOM, Crystal-QMMM,
                                                   LR-CPCM, SF, NACMEs, symmetry and pop. for TD-DFT,
                                                   nearIR, NL-DFT gradient (VV10), updates on ESD,
                                                   ML-optimized integration grids
   S Lehtola, MJT Oliveira, MAL Marques          : LibXC Library
   Liviu Ungur et al                             : ANISO software


 Your calculation uses the libint2 library for the computation of 2-el integrals
 For citations please refer to: http://libint.valeyev.net

 Your ORCA version has been built with support for libXC version: 5.1.0
 For citations please refer to: https://tddft.org/programs/libxc/

 This ORCA versions uses:
   CBLAS   interface :  Fast vector & matrix operations
   LAPACKE interface :  Fast linear algebra routines
   SCALAPACK package :  Parallel linear algebra routines
   Shared memory     :  Shared parallel matrices
   BLAS/LAPACK       :  OpenBLAS 0.3.15  USE64BITINT DYNAMIC_ARCH NO_AFFINITY Sandybridge SINGLE_THREADED
        Core in use  :  Sandybridge
   Copyright (c) 2011-2014, The OpenBLAS Project


================================================================================

----- Orbital basis set information -----
Your calculation utilizes the basis: cc-pVDZ 
       H, B-Ne : Obtained from the ccRepo (grant-hill.group.shef.ac.uk/ccrepo) Feb. 2017
                 T. H. Dunning, Jr., J. Chem. Phys. 90, 1007 (1989)
            He : Obtained from the ccRepo (grant-hill.group.shef.ac.uk/ccrepo) Feb. 2017
                 D. E. Woon, T. H. Dunning, Jr., J. Chem. Phys. 100, 2975 (1994)
  Li-Be, Na-Mg : Obtained from the ccRepo (grant-hill.group.shef.ac.uk/ccrepo) Feb. 2017
                 B. P. Prascher, D. E. Woon, K. A. Peterson, T. H. Dunning, Jr., A. K. Wilson, Theor. Chem. Acc. 128, 69 (2011)
         Al-Ar : Obtained from the ccRepo (grant-hill.group.shef.ac.uk/ccrepo) Feb. 2017
                 D. E. Woon, T. H. Dunning, Jr., J. Chem. Phys. 98, 1358 (1993)
            Ca : Obtained from the Peterson Research Group Website (tyr0.chem.wsu.edu/~kipeters) Feb. 2017
                 J. Koput, K. A. Peterson, J. Phys. Chem. 106, 9595 (2002)
         Sc-Zn : Obtained from the ccRepo (grant-hill.group.shef.ac.uk/ccrepo) Feb. 2017
                 N. B. Balabanov, K. A. Peterson, J. Chem. Phys. 123, 064107 (2005)
                 N. B. Balabanov, K. A. Peterson, J. Chem. Phys. 125, 074110 (2006)
         Ga-Kr : Obtained from the ccRepo (grant-hill.group.shef.ac.uk/ccrepo) Feb. 2017
                 A. K. Wilson, D. E. Woon, K. A. Peterson, T. H. Dunning, Jr., J. Chem. Phys. 110, 7667 (1999)

================================================================================
                                        WARNINGS
                       Please study these warnings very carefully!
================================================================================


WARNING: No MP2 level density has been requested!
         To caclulate MP2 level properties use
         %mp2 Density relaxed end
         or
         %mp2 Density unrelaxed end

WARNING: Post HF methods need fully converged wavefunctions
  ===> : Setting SCFConvForced true
         You can overwrite this default with %scf ConvForced false 


INFO   : the flag for use of the SHARK integral package has been found!

================================================================================
                                       INPUT FILE
================================================================================
NAME = /scratch/allen/tmpyp4_amber_gaff2/2.Mdgx/conf11/conf11/Conf342.orca
|  1> ! PAL2
|  2> ! mp2 cc-pvdz TightSCF  NoKeepInts
|  3> 
|  4> %scf
|  5>   MaxCore 2000
|  6> end
|  7> %mp2
|  8>   MaxCore 2000
|  9> end
| 10> * xyz 0 1
| 11>    C       -3.09400         6.44500         0.50300
| 12>    C        1.47400         4.04100         0.05700
| 13>    C       -2.80200         4.09300         0.04900
| 14>    C       -4.14500         4.05700        -0.35600
| 15>    C       -4.91100         5.20500        -0.32200
| 16>    C       -5.22100         7.59700         0.09500
| 17>    C        0.13200         4.30700         0.06100
| 18>    C       -0.56900         3.05600         0.04700
| 19>    C        1.64900         2.61800         0.02300
| 20>    C       -2.28600         5.32500         0.48100
| 21>    N       -4.38500         6.37600         0.10600
| 22>    N        0.38800         2.06700         0.02500
| 23>    N       -2.01000         0.39500        -0.07500
| 24>    N       -0.38800        -2.07400        -0.02700
| 25>    N        2.01000        -0.40100         0.06500
| 26>    C       -1.96000         2.86100         0.02400
| 27>    C       -2.62300         1.61500        -0.01800
| 28>    C       -5.57300        -4.32900         1.06600
| 29>    C       -4.07300         1.47100         0.05600
| 30>    C       -4.10600        -2.75600        -0.02600
| 31>    C       -4.99500        -2.75700        -1.11100
| 32>    C       -6.13200        -3.54200        -1.07600
| 33>    C       -7.65100        -5.11300         0.04000
| 34>    C       -4.32400         0.14100         0.03700
| 35>    C       -3.02500        -0.52000        -0.04800
| 36>    C       -4.42200        -3.56600         1.07500
| 37>    N       -6.40700        -4.31300         0.00100
| 38>    C       -2.86700        -1.92200        -0.04000
| 39>    C       -1.65000        -2.62400        -0.02700
| 40>    C        3.56800        -6.14200        -1.04000
| 41>    C       -1.47600        -4.04900        -0.03400
| 42>    C        2.80300        -4.09900        -0.00800
| 43>    C        3.65700        -4.38400         1.06900
| 44>    C        4.42700        -5.53000         1.05900
| 45>    C        5.24500        -7.58800         0.01400
| 46>    C       -0.13400        -4.31500        -0.02200
| 47>    C        0.56800        -3.06400        -0.02700
| 48>    C        2.77500        -5.01200        -1.07400
| 49>    N        4.37600        -6.39100         0.01700
| 50>    C        1.95900        -2.86900        -0.00900
| 51>    C        2.62100        -1.62200         0.00900
| 52>    C        5.54300         4.33900        -1.13000
| 53>    C        4.07000        -1.47900        -0.09400
| 54>    C        4.10400         2.75100        -0.02100
| 55>    C        5.02700         2.72900         1.03600
| 56>    C        6.16600         3.50900         0.97800
| 57>    C        7.61900         5.15300        -0.11500
| 58>    C        4.32100        -0.14800        -0.09200
| 59>    C        3.02500         0.51400         0.01500
| 60>    C        4.38700         3.58200        -1.11500
| 61>    C        2.86600         1.91600         0.01300
| 62>    N        6.41300         4.29600        -0.09500
| 63>    H       -2.74200         7.41200         0.84000
| 64>    H        2.27400         4.76600         0.08100
| 65>    H       -4.59800         3.13800        -0.70900
| 66>    H       -5.94800         5.22800        -0.63300
| 67>    H       -5.16800         8.05500        -0.89500
| 68>    H       -6.25000         7.32000         0.32600
| 69>    H       -4.84300         8.28700         0.84800
| 70>    H       -0.33200         5.28200         0.06900
| 71>    H       -1.26100         5.41400         0.82000
| 72>    H        0.18200         1.07200         0.00500
| 73>    H       -0.18300        -1.08000        -0.02100
| 74>    H       -5.86400        -4.96200         1.89500
| 75>    H       -4.79400         2.27200         0.13900
| 76>    H       -4.80000        -2.16000        -1.99400
| 77>    H       -6.84100        -3.58200        -1.89300
| 78>    H       -8.42800        -4.53600         0.54600
| 79>    H       -7.95600        -5.33700        -0.98100
| 80>    H       -7.45600        -6.03700         0.58400
| 81>    H       -5.28700        -0.34400         0.10000
| 82>    H       -3.78000        -3.60100         1.94700
| 83>    H        3.58700        -6.86800        -1.84300
| 84>    H       -2.27600        -4.77400        -0.05000
| 85>    H        3.71400        -3.72400         1.92600
| 86>    H        5.09200        -5.79500         1.87100
| 87>    H        6.20500        -7.32900        -0.43900
| 88>    H        5.39300        -7.91700         1.04200
| 89>    H        4.75900        -8.37300        -0.56400
| 90>    H        0.32900        -5.29000        -0.00800
| 91>    H        2.14600        -4.84200        -1.94000
| 92>    H        5.80800         4.98600        -1.95600
| 93>    H        4.78800        -2.28100        -0.18500
| 94>    H        4.86000         2.11400         1.91200
| 95>    H        6.90100         3.53100         1.77200
| 96>    H        7.38300         6.10900         0.35600
| 97>    H        8.41400         4.65200         0.43500
| 98>    H        7.92100         5.31000        -1.15000
| 99>    H        5.28300         0.33600        -0.17900
|100>    H        3.72000         3.63200        -1.96700
|101> *
|102> 
|103>                          ****END OF INPUT****
================================================================================

                       ****************************
                       * Single Point Calculation *
                       ****************************

---------------------------------
CARTESIAN COORDINATES (ANGSTROEM)
---------------------------------
  C     -3.094000    6.445000    0.503000
  C      1.474000    4.041000    0.057000
  C     -2.802000    4.093000    0.049000
  C     -4.145000    4.057000   -0.356000
  C     -4.911000    5.205000   -0.322000
  C     -5.221000    7.597000    0.095000
  C      0.132000    4.307000    0.061000
  C     -0.569000    3.056000    0.047000
  C      1.649000    2.618000    0.023000
  C     -2.286000    5.325000    0.481000
  N     -4.385000    6.376000    0.106000
  N      0.388000    2.067000    0.025000
  N     -2.010000    0.395000   -0.075000
  N     -0.388000   -2.074000   -0.027000
  N      2.010000   -0.401000    0.065000
  C     -1.960000    2.861000    0.024000
  C     -2.623000    1.615000   -0.018000
  C     -5.573000   -4.329000    1.066000
  C     -4.073000    1.471000    0.056000
  C     -4.106000   -2.756000   -0.026000
  C     -4.995000   -2.757000   -1.111000
  C     -6.132000   -3.542000   -1.076000
  C     -7.651000   -5.113000    0.040000
  C     -4.324000    0.141000    0.037000
  C     -3.025000   -0.520000   -0.048000
  C     -4.422000   -3.566000    1.075000
  N     -6.407000   -4.313000    0.001000
  C     -2.867000   -1.922000   -0.040000
  C     -1.650000   -2.624000   -0.027000
  C      3.568000   -6.142000   -1.040000
  C     -1.476000   -4.049000   -0.034000
  C      2.803000   -4.099000   -0.008000
  C      3.657000   -4.384000    1.069000
  C      4.427000   -5.530000    1.059000
  C      5.245000   -7.588000    0.014000
  C     -0.134000   -4.315000   -0.022000
  C      0.568000   -3.064000   -0.027000
  C      2.775000   -5.012000   -1.074000
  N      4.376000   -6.391000    0.017000
  C      1.959000   -2.869000   -0.009000
  C      2.621000   -1.622000    0.009000
  C      5.543000    4.339000   -1.130000
  C      4.070000   -1.479000   -0.094000
  C      4.104000    2.751000   -0.021000
  C      5.027000    2.729000    1.036000
  C      6.166000    3.509000    0.978000
  C      7.619000    5.153000   -0.115000
  C      4.321000   -0.148000   -0.092000
  C      3.025000    0.514000    0.015000
  C      4.387000    3.582000   -1.115000
  C      2.866000    1.916000    0.013000
  N      6.413000    4.296000   -0.095000
  H     -2.742000    7.412000    0.840000
  H      2.274000    4.766000    0.081000
  H     -4.598000    3.138000   -0.709000
  H     -5.948000    5.228000   -0.633000
  H     -5.168000    8.055000   -0.895000
  H     -6.250000    7.320000    0.326000
  H     -4.843000    8.287000    0.848000
  H     -0.332000    5.282000    0.069000
  H     -1.261000    5.414000    0.820000
  H      0.182000    1.072000    0.005000
  H     -0.183000   -1.080000   -0.021000
  H     -5.864000   -4.962000    1.895000
  H     -4.794000    2.272000    0.139000
  H     -4.800000   -2.160000   -1.994000
  H     -6.841000   -3.582000   -1.893000
  H     -8.428000   -4.536000    0.546000
  H     -7.956000   -5.337000   -0.981000
  H     -7.456000   -6.037000    0.584000
  H     -5.287000   -0.344000    0.100000
  H     -3.780000   -3.601000    1.947000
  H      3.587000   -6.868000   -1.843000
  H     -2.276000   -4.774000   -0.050000
  H      3.714000   -3.724000    1.926000
  H      5.092000   -5.795000    1.871000
  H      6.205000   -7.329000   -0.439000
  H      5.393000   -7.917000    1.042000
  H      4.759000   -8.373000   -0.564000
  H      0.329000   -5.290000   -0.008000
  H      2.146000   -4.842000   -1.940000
  H      5.808000    4.986000   -1.956000
  H      4.788000   -2.281000   -0.185000
  H      4.860000    2.114000    1.912000
  H      6.901000    3.531000    1.772000
  H      7.383000    6.109000    0.356000
  H      8.414000    4.652000    0.435000
  H      7.921000    5.310000   -1.150000
  H      5.283000    0.336000   -0.179000
  H      3.720000    3.632000   -1.967000

----------------------------
CARTESIAN COORDINATES (A.U.)
----------------------------
  NO LB      ZA    FRAG     MASS         X           Y           Z
   0 C     6.0000    0    12.011   -5.846813   12.179285    0.950532
   1 C     6.0000    0    12.011    2.785456    7.636383    0.107714
   2 C     6.0000    0    12.011   -5.295013    7.734649    0.092597
   3 C     6.0000    0    12.011   -7.832915    7.666619   -0.672743
   4 C     6.0000    0    12.011   -9.280445    9.836025   -0.608492
   5 C     6.0000    0    12.011   -9.866260   14.356249    0.179524
   6 C     6.0000    0    12.011    0.249444    8.139050    0.115273
   7 C     6.0000    0    12.011   -1.075254    5.775003    0.088817
   8 C     6.0000    0    12.011    3.116158    4.947303    0.043464
   9 C     6.0000    0    12.011   -4.319914   10.062792    0.908958
  10 N     7.0000    0    14.007   -8.286449   12.048894    0.200311
  11 N     7.0000    0    14.007    0.733214    3.906064    0.047243
  12 N     7.0000    0    14.007   -3.798350    0.746442   -0.141729
  13 N     7.0000    0    14.007   -0.733214   -3.919292   -0.051023
  14 N     7.0000    0    14.007    3.798350   -0.757780    0.122832
  15 C     6.0000    0    12.011   -3.703863    5.406506    0.045353
  16 C     6.0000    0    12.011   -4.956752    3.051908   -0.034015
  17 C     6.0000    0    12.011  -10.531444   -8.180624    2.014448
  18 C     6.0000    0    12.011   -7.696855    2.779787    0.105825
  19 C     6.0000    0    12.011   -7.759216   -5.208085   -0.049133
  20 C     6.0000    0    12.011   -9.439182   -5.209975   -2.099486
  21 C     6.0000    0    12.011  -11.587801   -6.693410   -2.033345
  22 C     6.0000    0    12.011  -14.458295   -9.662170    0.075589
  23 C     6.0000    0    12.011   -8.171176    0.266451    0.069920
  24 C     6.0000    0    12.011   -5.716422   -0.982658   -0.090707
  25 C     6.0000    0    12.011   -8.356369   -6.738763    2.031456
  26 N     7.0000    0    14.007  -12.107475   -8.150389    0.001890
  27 C     6.0000    0    12.011   -5.417845   -3.632054   -0.075589
  28 C     6.0000    0    12.011   -3.118048   -4.958641   -0.051023
  29 C     6.0000    0    12.011    6.742543  -11.606698   -1.965315
  30 C     6.0000    0    12.011   -2.789236   -7.651501   -0.064251
  31 C     6.0000    0    12.011    5.296902   -7.745987   -0.015118
  32 C     6.0000    0    12.011    6.910728   -8.284559    2.020117
  33 C     6.0000    0    12.011    8.365818  -10.450186    2.001220
  34 C     6.0000    0    12.011    9.911614  -14.339242    0.026456
  35 C     6.0000    0    12.011   -0.253223   -8.154168   -0.041574
  36 C     6.0000    0    12.011    1.073364   -5.790121   -0.051023
  37 C     6.0000    0    12.011    5.243990   -9.471307   -2.029566
  38 N     7.0000    0    14.007    8.269442  -12.077240    0.032125
  39 C     6.0000    0    12.011    3.701973   -5.421624   -0.017008
  40 C     6.0000    0    12.011    4.952972   -3.065136    0.017008
  41 C     6.0000    0    12.011   10.474752    8.199522   -2.135391
  42 C     6.0000    0    12.011    7.691185   -2.794905   -0.177634
  43 C     6.0000    0    12.011    7.755436    5.198637   -0.039684
  44 C     6.0000    0    12.011    9.499653    5.157063    1.957756
  45 C     6.0000    0    12.011   11.652051    6.631049    1.848152
  46 C     6.0000    0    12.011   14.397823    9.737759   -0.217319
  47 C     6.0000    0    12.011    8.165507   -0.279679   -0.173855
  48 C     6.0000    0    12.011    5.716422    0.971319    0.028346
  49 C     6.0000    0    12.011    8.290229    6.768999   -2.107045
  50 C     6.0000    0    12.011    5.415955    3.620715    0.024566
  51 N     7.0000    0    14.007   12.118814    8.118263   -0.179524
  52 H     1.0000    0     1.008   -5.181629   14.006650    1.587370
  53 H     1.0000    0     1.008    4.297237    9.006435    0.153068
  54 H     1.0000    0     1.008   -8.688961    5.929961   -1.339816
  55 H     1.0000    0     1.008  -11.240091    9.879488   -1.196197
  56 H     1.0000    0     1.008   -9.766105   15.221744   -1.691305
  57 H     1.0000    0     1.008  -11.810788   13.832795    0.616051
  58 H     1.0000    0     1.008   -9.151944   15.660160    1.602488
  59 H     1.0000    0     1.008   -0.627389    9.981533    0.130391
  60 H     1.0000    0     1.008   -2.382945   10.230977    1.549575
  61 H     1.0000    0     1.008    0.343930    2.025786    0.009449
  62 H     1.0000    0     1.008   -0.345820   -2.040904   -0.039684
  63 H     1.0000    0     1.008  -11.081354   -9.376821    3.581031
  64 H     1.0000    0     1.008   -9.059347    4.293458    0.262672
  65 H     1.0000    0     1.008   -9.070685   -4.081808   -3.768114
  66 H     1.0000    0     1.008  -12.927616   -6.768999   -3.577252
  67 H     1.0000    0     1.008  -15.926612   -8.571798    1.031790
  68 H     1.0000    0     1.008  -15.034661  -10.085468   -1.853821
  69 H     1.0000    0     1.008  -14.089798  -11.408277    1.103600
  70 H     1.0000    0     1.008   -9.990982   -0.650066    0.188973
  71 H     1.0000    0     1.008   -7.143165   -6.804904    3.679297
  72 H     1.0000    0     1.008    6.778448  -12.978639   -3.482765
  73 H     1.0000    0     1.008   -4.301017   -9.021553   -0.094486
  74 H     1.0000    0     1.008    7.018443   -7.037340    3.639613
  75 H     1.0000    0     1.008    9.622485  -10.950963    3.535678
  76 H     1.0000    0     1.008   11.725751  -13.849803   -0.829590
  77 H     1.0000    0     1.008   10.191293  -14.960962    1.969095
  78 H     1.0000    0     1.008    8.993207  -15.822677   -1.065806
  79 H     1.0000    0     1.008    0.621720   -9.996651   -0.015118
  80 H     1.0000    0     1.008    4.055352   -9.150054   -3.666069
  81 H     1.0000    0     1.008   10.975529    9.422175   -3.696304
  82 H     1.0000    0     1.008    9.048009   -4.310465   -0.349599
  83 H     1.0000    0     1.008    9.184069    3.994881    3.613156
  84 H     1.0000    0     1.008   13.041000    6.672623    3.348595
  85 H     1.0000    0     1.008   13.951848   11.544337    0.672743
  86 H     1.0000    0     1.008   15.900156    8.791006    0.822031
  87 H     1.0000    0     1.008   14.968521   10.034446   -2.173185
  88 H     1.0000    0     1.008    9.983423    0.634948   -0.338261
  89 H     1.0000    0     1.008    7.029781    6.863485   -3.717091

--------------------------------
INTERNAL COORDINATES (ANGSTROEM)
--------------------------------
 C      0   0   0     0.000000000000     0.00000000     0.00000000
 C      1   0   0     5.181192526822     0.00000000     0.00000000
 C      1   2   0     2.413148151275    54.89290942     0.00000000
 C      3   1   2     1.403199914481    87.90789601   195.94430452
 C      4   3   1     1.380512948146   120.17338294     0.15361217
 C      5   4   3     2.447785325555   152.50982722     1.60890103
 C      2   1   3     1.368114030335    17.19864829     5.82456281
 C      7   2   1     1.434084376876   108.05010202   195.71744218
 C      2   1   3     1.434123425651   124.75105482   348.43169213
 C      1   2   3     1.381212510803    26.70040317    17.62141156
 N      1   2   3     1.352424119868   142.43542022   333.23560354
 N      9   2   1     1.376127174356   106.58526707     4.57679024
 N     12   9   2     2.925062050624   168.53581413   171.12065651
 N     13  12   9     2.954513327098    91.55032014    11.12112580
 N     14  13  12     2.925371258490    88.43092389   359.84326247
 C      8   7   2     1.404790019896   127.24786865   181.11170171
 C     13  12   9     1.366535034311    81.72106996   188.00453233
 C     14  13  12     5.758810554272    80.56209567   166.76250791
 C     17  13  12     1.459010623676   111.08861209   183.82872609
 C     18  14  13     2.412235892279    27.27532823    36.33507194
 C     20  18  14     1.402692767501    87.95206320   148.94598259
 C     21  20  18     1.382106725257   120.14573887   359.70382047
 C     18  14  13     2.446510985056   144.15733107    82.80075377
 C     19  17  13     1.353610726908   106.29293361   359.75308708
 C     13  12   9     1.366813447402   172.21332906    33.46711076
 C     18  14  13     1.380960173213    15.08449437   309.23336894
 N     22  21  20     1.352773077792   120.73759875     0.27865223
 C     25  13  17     1.410897586645   125.60330303   182.37774668
 C     14  13  12     1.376642291955    80.24689249   177.85461986
 C     14  13  12     5.764089607215   164.51507311   312.20821879
 C     29  14  13     1.435600919476   106.58649366   178.76395472
 C     30  14  13     2.413316804732    27.10625047    82.12560436
 C     32  30  14     1.403734305344    87.90059683   149.76154742
 C     33  32  30     1.380694028378   120.14881443   359.74174632
 C     34  33  32     2.448777858443   152.49203239     2.45173620
 C     31  29  14     1.368160809262   108.16950133     0.70383075
 C     14  13  12     1.376239804685   169.26375223   353.09862627
 C     30  14  13     1.380907310430    14.68948582   353.70041132
 N     34  33  32     1.352658863128   120.85575621     0.19603406
 C     37  14  29     1.404717053360   126.01551127   180.90772073
 C     15  14  13     1.366491126938    81.61824056   183.09049352
 C      2   1   3     4.249062720177   146.69869993   147.92437631
 C     41  15  14     1.459677704153   111.05201287   175.08990246
 C     42   2   1     2.412953791518    41.78584867   173.10954201
 C     44  42   2     1.403446472082    87.95153797   233.97558675
 C     45  44  42     1.381696421071   120.11137308     0.19721020
 C     42   2   1     2.450019795838   135.97209175    83.42439111
 C     43  41  15     1.354461516618   106.26758155     0.30894352
 C     15  14  13     1.367461151185   171.87382904   332.35056460
 C     42   2   1     1.381886391857    32.59078432   221.96482120
 C      9   2   1     1.404988612053   126.98745415   185.58112777
 N     42   2   1     1.352765315936   113.57249190   111.16098030
 H      1   2   3     1.082849019947    98.89006885   172.17566642
 H      2   1   3     1.079907866440   109.85971861   173.35553791
 H      4   3   1     1.083687685636   121.05476094   179.53266593
 H      5   4   3     1.082875339086   122.81640285   179.42191026
 H      6   5   4     1.092095691778   104.43262558   100.09946796
 H      6   5   4     1.090381126029    84.68430141   209.56238458
 H      6   5   4     1.089033057350   133.86679361   322.33226276
 H      7   2   1     1.079807853278   126.66122480    15.95585596
 H     10   1   2     1.083266818471   118.81099992    30.66942117
 H     12   9   2     1.016297692608   125.29023241   180.00180175
 H     14  13  12     1.014936943854    44.97226959   359.42596618
 H     18  14  13     1.082871645210   128.03556573   234.20482432
 H     19  17  13     1.080893611786   126.41830519   178.11313280
 H     21  20  18     1.083569563987   121.05669627   180.67006309
 H     22  21  20     1.082483256222   122.73097286   180.59748951
 H     23  18  14     1.092105306278   103.92715769   234.93429879
 H     23  18  14     1.088871893291   134.19244188    12.25587044
 H     23  18  14     1.089833473518    84.85857450   125.45241208
 H     24  19  17     1.080075460327   127.28078426   178.44613241
 H     26  18  14     1.083408048706   118.76995697   244.94906660
 H     30  14  13     1.082703098730   127.99711412   279.66882698
 H     31  29  14     1.079759695488   125.22293469   180.92530585
 H     33  32  30     1.083188810873   121.01964473   180.74284758
 H     34  33  32     1.082494341787   122.70821597   180.59516895
 H     35  34  33     1.092652735319   105.73575241    97.19771933
 H     35  34  33     1.089462711615    84.05943581   206.43036958
 H     35  34  33     1.089268102902   133.08365142   318.50306270
 H     36  31  29     1.079439669458   126.61599965   178.98859863
 H     38  30  73     1.083742127999   118.77264435   359.90091293
 H     42   2   1     1.082178358682   119.31790784   327.79251076
 H     43  41  15     1.080281907652   126.36969097   182.06329380
 H     45  44  42     1.083277434455   121.10105945   179.58025624
 H     46  45  44     1.082194529648   122.72144639   179.46906377
 H     47  42   2     1.091546151109   106.65128841   315.16475048
 H     47  42   2     1.088818625851   132.46019523    94.52397119
 H     47  42   2     1.089531091801    83.63838232   206.04504406
 H     48  43  41     1.080402239909   127.23657387   181.62955349
 H     50  42   2     1.083186502870   118.77001737    94.71359229

---------------------------
INTERNAL COORDINATES (A.U.)
---------------------------
 C      0   0   0     0.000000000000     0.00000000     0.00000000
 C      1   0   0     9.791034922814     0.00000000     0.00000000
 C      1   2   0     4.560189126487    54.89290942     0.00000000
 C      3   1   2     2.651663549511    87.90789601   195.94430452
 C      4   3   1     2.608791396329   120.17338294     0.15361217
 C      5   4   3     4.625643899929   152.50982722     1.60890103
 C      2   1   3     2.585360837309    17.19864829     5.82456281
 C      7   2   1     2.710026725231   108.05010202   195.71744218
 C      2   1   3     2.710100516721   124.75105482   348.43169213
 C      1   2   3     2.610113378164    26.70040317    17.62141156
 N      1   2   3     2.555711203459   142.43542022   333.23560354
 N      9   2   1     2.600503484979   106.58526707     4.57679024
 N     12   9   2     5.527566200405   168.53581413   171.12065651
 N     13  12   9     5.583221047236    91.55032014    11.12112580
 N     14  13  12     5.528150518591    88.43092389   359.84326247
 C      8   7   2     2.654668413270   127.24786865   181.11170171
 C     13  12   9     2.582376967257    81.72106996   188.00453233
 C     14  13  12    10.882574804710    80.56209567   166.76250791
 C     17  13  12     2.757130505230   111.08861209   183.82872609
 C     18  14  13     4.558465206823    27.27532823    36.33507194
 C     20  18  14     2.650705180609    87.95206320   148.94598259
 C     21  20  18     2.611803198586   120.14573887   359.70382047
 C     18  14  13     4.623235745386   144.15733107    82.80075377
 C     19  17  13     2.557953565794   106.29293361   359.75308708
 C     13  12   9     2.582903091751   172.21332906    33.46711076
 C     18  14  13     2.609636529225    15.08449437   309.23336894
 N     22  21  20     2.556370638369   120.73759875     0.27865223
 C     25  13  17     2.666210041769   125.60330303   182.37774668
 C     14  13  12     2.601476916169    80.24689249   177.85461986
 C     14  13  12    10.892550769017   164.51507311   312.20821879
 C     29  14  13     2.712892575415   106.58649366   178.76395472
 C     30  14  13     4.560507835333    27.10625047    82.12560436
 C     32  30  14     2.652673401891    87.90059683   149.76154742
 C     33  32  30     2.609133588376   120.14881443   359.74174632
 C     34  33  32     4.627519515267   152.49203239     2.45173620
 C     31  29  14     2.585449236669   108.16950133     0.70383075
 C     14  13  12     2.600716325456   169.26375223   353.09862627
 C     30  14  13     2.609536633043    14.68948582   353.70041132
 N     34  33  32     2.556154803934   120.85575621     0.19603406
 C     37  14  29     2.654530526499   126.01551127   180.90772073
 C     15  14  13     2.582293994346    81.61824056   183.09049352
 C      2   1   3     8.029564866989   146.69869993   147.92437631
 C     41  15  14     2.758391104639   111.05201287   175.08990246
 C     42   2   1     4.559821839776    41.78584867   173.10954201
 C     44  42   2     2.652129475853    87.95153797   233.97558675
 C     45  44  42     2.611027836043   120.11137308     0.19721020
 C     42   2   1     4.629866436820   135.97209175    83.42439111
 C     43  41  15     2.559561325344   106.26758155     0.30894352
 C     15  14  13     2.584127074516   171.87382904   332.35056460
 C     42   2   1     2.611386828803    32.59078432   221.96482120
 C      9   2   1     2.655043698059   126.98745415   185.58112777
 N     42   2   1     2.556355970587   113.57249190   111.16098030
 H      1   2   3     2.046288092085    98.89006885   172.17566642
 H      2   1   3     2.040730117440   109.85971861   173.35553791
 H      4   3   1     2.047872940556   121.05476094   179.53266593
 H      5   4   3     2.046337828049   122.81640285   179.42191026
 H      6   5   4     2.063761769496   104.43262558   100.09946796
 H      6   5   4     2.060521709791    84.68430141   209.56238458
 H      6   5   4     2.057974229178   133.86679361   322.33226276
 H      7   2   1     2.040541119952   126.66122480    15.95585596
 H     10   1   2     2.047077616874   118.81099992    30.66942117
 H     12   9   2     1.920524309565   125.29023241   180.00180175
 H     14  13  12     1.917952867083    44.97226959   359.42596618
 H     18  14  13     2.046330847636   128.03556573   234.20482432
 H     19  17  13     2.042592906181   126.41830519   178.11313280
 H     21  20  18     2.047649722989   121.05669627   180.67006309
 H     22  21  20     2.045596898814   122.73097286   180.59748951
 H     23  18  14     2.063779938267   103.92715769   234.93429879
 H     23  18  14     2.057669673245   134.19244188    12.25587044
 H     23  18  14     2.059486796529    84.85857450   125.45241208
 H     24  19  17     2.041046823986   127.28078426   178.44613241
 H     26  18  14     2.047344503340   118.76995697   244.94906660
 H     30  14  13     2.046012340948   127.99711412   279.66882698
 H     31  29  14     2.040450114918   125.22293469   180.92530585
 H     33  32  30     2.046930203877   121.01964473   180.74284758
 H     34  33  32     2.045617847496   122.70821597   180.59516895
 H     35  34  33     2.064814429233   105.73575241    97.19771933
 H     35  34  33     2.058786158072    84.05943581   206.43036958
 H     35  34  33     2.058418400901   133.08365142   318.50306270
 H     36  31  29     2.039845353366   126.61599965   178.98859863
 H     38  30  73     2.047975821711   118.77264435   359.90091293
 H     42   2   1     2.045020725966   119.31790784   327.79251076
 H     43  41  15     2.041436952892   126.36969097   182.06329380
 H     45  44  42     2.047097678177   121.10105945   179.58025624
 H     46  45  44     2.045051284662   122.72144639   179.46906377
 H     47  42   2     2.062723288131   106.65128841   315.16475048
 H     47  42   2     2.057569012371   132.46019523    94.52397119
 H     47  42   2     2.058915377895    83.63838232   206.04504406
 H     48  43  41     2.041664347903   127.23657387   181.62955349
 H     50  42   2     2.046925842384   118.77001737    94.71359229

---------------------
BASIS SET INFORMATION
---------------------
There are 3 groups of distinct atoms

 Group   1 Type C   : 17s4p1d contracted to 3s2p1d pattern {881/31/1}
 Group   2 Type N   : 17s4p1d contracted to 3s2p1d pattern {881/31/1}
 Group   3 Type H   : 4s1p contracted to 2s1p pattern {31/1}

Atom   0C    basis set group =>   1
Atom   1N    basis set group =>   2
Atom   2C    basis set group =>   1
Atom   3N    basis set group =>   2
Atom   4C    basis set group =>   1
Atom   5N    basis set group =>   2
Atom   6C    basis set group =>   1
Atom   7N    basis set group =>   2
Atom   8C    basis set group =>   1
Atom   9N    basis set group =>   2
Atom  10C    basis set group =>   1
Atom  11N    basis set group =>   2
Atom  12C    basis set group =>   1
Atom  13N    basis set group =>   2
Atom  14C    basis set group =>   1
Atom  15N    basis set group =>   2
Atom  16C    basis set group =>   1
Atom  17C    basis set group =>   1
Atom  18C    basis set group =>   1
Atom  19C    basis set group =>   1
Atom  20C    basis set group =>   1
Atom  21C    basis set group =>   1
Atom  22C    basis set group =>   1
Atom  23C    basis set group =>   1
Atom  24C    basis set group =>   1
Atom  25C    basis set group =>   1
Atom  26C    basis set group =>   1
Atom  27C    basis set group =>   1
Atom  28C    basis set group =>   1
Atom  29C    basis set group =>   1
Atom  30C    basis set group =>   1
Atom  31C    basis set group =>   1
Atom  32C    basis set group =>   1
Atom  33C    basis set group =>   1
Atom  34C    basis set group =>   1
Atom  35C    basis set group =>   1
Atom  36C    basis set group =>   1
Atom  37C    basis set group =>   1
Atom  38C    basis set group =>   1
Atom  39C    basis set group =>   1
Atom  40C    basis set group =>   1
Atom  41C    basis set group =>   1
Atom  42C    basis set group =>   1
Atom  43C    basis set group =>   1
Atom  44C    basis set group =>   1
Atom  45C    basis set group =>   1
Atom  46C    basis set group =>   1
Atom  47C    basis set group =>   1
Atom  48C    basis set group =>   1
Atom  49C    basis set group =>   1
Atom  50C    basis set group =>   1
Atom  51C    basis set group =>   1
Atom  52H    basis set group =>   3
Atom  53H    basis set group =>   3
Atom  54H    basis set group =>   3
Atom  55H    basis set group =>   3
Atom  56H    basis set group =>   3
Atom  57H    basis set group =>   3
Atom  58H    basis set group =>   3
Atom  59H    basis set group =>   3
Atom  60H    basis set group =>   3
Atom  61H    basis set group =>   3
Atom  62H    basis set group =>   3
Atom  63H    basis set group =>   3
Atom  64H    basis set group =>   3
Atom  65H    basis set group =>   3
Atom  66H    basis set group =>   3
Atom  67H    basis set group =>   3
Atom  68H    basis set group =>   3
Atom  69H    basis set group =>   3
Atom  70H    basis set group =>   3
Atom  71H    basis set group =>   3
Atom  72H    basis set group =>   3
Atom  73H    basis set group =>   3
Atom  74H    basis set group =>   3
Atom  75H    basis set group =>   3
Atom  76H    basis set group =>   3
Atom  77H    basis set group =>   3
Atom  78H    basis set group =>   3
Atom  79H    basis set group =>   3
Atom  80H    basis set group =>   3
Atom  81H    basis set group =>   3
Atom  82H    basis set group =>   3
Atom  83H    basis set group =>   3
Atom  84H    basis set group =>   3
Atom  85H    basis set group =>   3
Atom  86H    basis set group =>   3
Atom  87H    basis set group =>   3
Atom  88H    basis set group =>   3
Atom  89H    basis set group =>   3


           ************************************************************
           *        Program running with 8 parallel MPI-processes     *
           *              working on a common directory               *
           ************************************************************
------------------------------------------------------------------------------
                           ORCA GTO INTEGRAL CALCULATION
------------------------------------------------------------------------------
------------------------------------------------------------------------------
                   ___                                                        
                  /   \      - P O W E R E D   B Y -                         
                 /     \                                                     
                 |  |  |   _    _      __       _____    __    __             
                 |  |  |  | |  | |    /  \     |  _  \  |  |  /  |          
                  \  \/   | |  | |   /    \    | | | |  |  | /  /          
                 / \  \   | |__| |  /  /\  \   | |_| |  |  |/  /          
                |  |  |   |  __  | /  /__\  \  |    /   |      \           
                |  |  |   | |  | | |   __   |  |    \   |  |\   \          
                \     /   | |  | | |  |  |  |  | |\  \  |  | \   \       
                 \___/    |_|  |_| |__|  |__|  |_| \__\ |__|  \__/        
                                                                              
                      - O R C A' S   B I G   F R I E N D -                    
                                      &                                       
                       - I N T E G R A L  F E E D E R -                       
                                                                              
 v1 FN, 2020, v2 2021                                                         
------------------------------------------------------------------------------


Reading SHARK input file /scratch/chu_02/allen/tmpyp4_amber_gaff2/conf1/conf1/Conf342.orca.SHARKINP.tmp ... ok
----------------------
SHARK INTEGRAL PACKAGE
----------------------

Number of atoms                             ...     90
Number of basis functions                   ...   1230
Number of shells                            ...    738
Maximum angular momentum                    ...      2
Integral batch strategy                     ... SHARK/LIBINT Hybrid
RI-J (if used) integral strategy            ... SPLIT-RIJ (Revised 2003 algorithm where possible)
Printlevel                                  ...      1
Contraction scheme used                     ... PARTIAL GENERAL contraction
Coulomb Range Separation                    ... NOT USED
Exchange Range Separation                   ... NOT USED
Finite Nucleus Model                        ... NOT USED
Auxiliary Coulomb fitting basis             ... NOT available
Auxiliary J/K fitting basis                 ... NOT available
Auxiliary Correlation fitting basis         ... NOT available
Auxiliary 'external' fitting basis          ... NOT available
Integral threshold                          ...     2.500000e-11
Primitive cut-off                           ...     2.500000e-12
Primitive pair pre-selection threshold      ...     2.500000e-12

Calculating pre-screening integrals         ... done (  0.1 sec) Dimension = 738
Calculating pre-screening integrals (ORCA)  ... done (  0.4 sec) Dimension = 426
Organizing shell pair data                  ... done (  0.5 sec)
Shell pair information
Total number of shell pairs                 ...    272691
Shell pairs after pre-screening             ...     71696
Total number of primitive shell pairs       ...    422091
Primitive shell pairs kept                  ...     92589
          la=0 lb=0:  29424 shell pairs
          la=1 lb=0:  26025 shell pairs
          la=1 lb=1:   4704 shell pairs
          la=2 lb=0:   7890 shell pairs
          la=2 lb=1:   3124 shell pairs
          la=2 lb=2:    529 shell pairs

Calculating one electron integrals          ... done (  0.2 sec)
Calculating Nuclear repulsion               ... done (  0.0 sec) ENN=   6233.546153391278 Eh

SHARK setup successfully completed in   1.8 seconds

Maximum memory used throughout the entire GTOINT-calculation: 99.1 MB


           ************************************************************
           *        Program running with 8 parallel MPI-processes     *
           *              working on a common directory               *
           ************************************************************
-------------------------------------------------------------------------------
                                 ORCA SCF
-------------------------------------------------------------------------------

------------
SCF SETTINGS
------------
Hamiltonian:
 Ab initio Hamiltonian  Method          .... Hartree-Fock(GTOs)


General Settings:
 Integral files         IntName         .... /scratch/chu_02/allen/tmpyp4_amber_gaff2/conf1/conf1/Conf342.orca
 Hartree-Fock type      HFTyp           .... RHF
 Total Charge           Charge          ....    0
 Multiplicity           Mult            ....    1
 Number of Electrons    NEL             ....  358
 Basis Dimension        Dim             ....  918
 Nuclear Repulsion      ENuc            ....   6233.5461533913 Eh

Convergence Acceleration:
 DIIS                   CNVDIIS         .... on
   Start iteration      DIISMaxIt       ....    12
   Startup error        DIISStart       ....  0.200000
   # of expansion vecs  DIISMaxEq       ....     5
   Bias factor          DIISBfac        ....   1.050
   Max. coefficient     DIISMaxC        ....  10.000
 Trust-Rad. Augm. Hess. CNVTRAH         .... auto
   Auto Start mean grad. ratio tolernc. ....  1.125000
   Auto Start start iteration           ....    20
   Auto Start num. interpolation iter.  ....    10
   Max. Number of Micro iterations      ....    16
   Max. Number of Macro iterations      .... Maxiter - #DIIS iter
   Number of Davidson start vectors     ....     2
   Converg. threshold I  (grad. norm)   ....   1.000e-05
   Converg. threshold II (energy diff.) ....   1.000e-08
   Grad. Scal. Fac. for Micro threshold ....   0.100
   Minimum threshold for Micro iter.    ....   0.010
   NR start threshold (gradient norm)   ....   0.001
   Initial trust radius                 ....   0.400
   Minimum AH scaling param. (alpha)    ....   1.000
   Maximum AH scaling param. (alpha)    .... 1000.000
   Orbital update algorithm             .... Taylor
   White noise on init. David. guess    .... on
   Maximum white noise                  ....   0.010
   Quad. conv. algorithm                .... NR
 SOSCF                  CNVSOSCF        .... on
   Start iteration      SOSCFMaxIt      ....   150
   Startup grad/error   SOSCFStart      ....  0.003300
 Level Shifting         CNVShift        .... on
   Level shift para.    LevelShift      ....    0.2500
   Turn off err/grad.   ShiftErr        ....    0.0010
 Zerner damping         CNVZerner       .... off
 Static damping         CNVDamp         .... on
   Fraction old density DampFac         ....    0.7000
   Max. Damping (<1)    DampMax         ....    0.9800
   Min. Damping (>=0)   DampMin         ....    0.0000
   Turn off err/grad.   DampErr         ....    0.1000
 Fernandez-Rico         CNVRico         .... off

SCF Procedure:
 Maximum # iterations   MaxIter         ....   125
 SCF integral mode      SCFMode         .... Direct
   Integral package                     .... SHARK and LIBINT hybrid scheme
 Reset frequency        DirectResetFreq ....    20
 Integral Threshold     Thresh          ....  2.500e-11 Eh
 Primitive CutOff       TCut            ....  2.500e-12 Eh

Convergence Tolerance:
 Convergence Check Mode ConvCheckMode   .... Total+1el-Energy
 Convergence forced     ConvForced      .... 1
 Energy Change          TolE            ....  1.000e-08 Eh
 1-El. energy change                    ....  1.000e-05 Eh
 Orbital Gradient       TolG            ....  1.000e-05
 Orbital Rotation angle TolX            ....  1.000e-05
 DIIS Error             TolErr          ....  5.000e-07


Diagonalization of the overlap matrix:
Smallest eigenvalue                        ... 1.960e-04
Time for diagonalization                   ...    0.222 sec
Threshold for overlap eigenvalues          ... 1.000e-08
Number of eigenvalues below threshold      ... 0
Time for construction of square roots      ...    0.145 sec
Total time needed                          ...    0.371 sec

Time for model grid setup =    1.419 sec

------------------------------
INITIAL GUESS: MODEL POTENTIAL
------------------------------
Loading Hartree-Fock densities                     ... done
Calculating cut-offs                               ... done
Initializing the effective Hamiltonian             ... done
Setting up the integral package (SHARK)            ... done
Starting the Coulomb interaction                   ... done (   1.7 sec)
Reading the grid                                   ... done
Mapping shells                                     ... done
Starting the XC term evaluation                    ... done (   0.3 sec)
Transforming the Hamiltonian                       ... done (   0.1 sec)
Diagonalizing the Hamiltonian                      ... done (   0.2 sec)
Back transforming the eigenvectors                 ... done (   0.0 sec)
Now organizing SCF variables                       ... done
                      ------------------
                      INITIAL GUESS DONE (   3.9 sec)
                      ------------------
--------------
SCF ITERATIONS
--------------
ITER       Energy         Delta-E        Max-DP      RMS-DP      [F,P]     Damp
               ***  Starting incremental Fock matrix formation  ***
  0  -2121.6611930869   0.000000000000 0.08355209  0.00124063  0.2314779 0.7000
  1  -2122.3084460833  -0.647252996392 0.06299005  0.00100945  0.1435742 0.7000
                               ***Turning on DIIS***
  2  -2122.7117082034  -0.403262120069 0.14635540  0.00229461  0.0802867 0.0000
  3  -2118.0235331280   4.688175075427 0.04358151  0.00067715  0.0435722 0.0000
  4  -2123.3999641814  -5.376431053401 0.01339822  0.00022671  0.0089572 0.0000
  5  -2123.5421824044  -0.142218223091 0.00647283  0.00013223  0.0048970 0.0000
  6  -2123.5264698922   0.015712512250 0.00383622  0.00008479  0.0021704 0.0000
  7  -2123.6204219361  -0.093952043902 0.00315839  0.00006696  0.0016124 0.0000
  8  -2123.6285644787  -0.008142542632 0.00333920  0.00006390  0.0015057 0.0000
  9  -2123.6004789582   0.028085520511 0.00266784  0.00004536  0.0012096 0.0000
 10  -2123.6088110720  -0.008332113801 0.00536679  0.00009550  0.0009426 0.0000
                      *** Initiating the SOSCF procedure ***
                           *** Shutting down DIIS ***
                      *** Re-Reading the Fockian *** 
                      *** Removing any level shift *** 
ITER      Energy       Delta-E        Grad      Rot      Max-DP    RMS-DP
 11  -2123.50203063   0.1067804389  0.000176  0.000176  0.000237  0.000005
               *** Restarting incremental Fock matrix formation ***
 12  -2123.56787351  -0.0658428762  0.000878  0.006444  0.001466  0.000035
 13  -2123.56798465  -0.0001111411  0.001095  0.031792  0.006724  0.000138
 14  -2123.56817178  -0.0001871337  0.000370  0.001625  0.000589  0.000012
 15  -2123.56818685  -0.0000150673  0.000157  0.001908  0.000562  0.000014
 16  -2123.56819406  -0.0000072065  0.000145  0.002300  0.000465  0.000008
 17  -2123.56819651  -0.0000024562  0.000116  0.001700  0.000283  0.000006
 18  -2123.56819764  -0.0000011257  0.000058  0.000612  0.000229  0.000003
 19  -2123.56819820  -0.0000005583  0.000040  0.000836  0.000182  0.000004
 20  -2123.56819847  -0.0000002689  0.000021  0.000521  0.000096  0.000002
 21  -2123.56819859  -0.0000001207  0.000022  0.000700  0.000117  0.000002
 22  -2123.56819870  -0.0000001107  0.000018  0.000697  0.000116  0.000002
 23  -2123.56819877  -0.0000000727  0.000012  0.000419  0.000072  0.000001
 24  -2123.56819881  -0.0000000396  0.000007  0.000348  0.000052  0.000001
 25  -2123.56819884  -0.0000000288  0.000007  0.000158  0.000031  0.000001
 26  -2123.56819886  -0.0000000166  0.000005  0.000111  0.000028  0.000001
 27  -2123.56819887  -0.0000000099  0.000003  0.000090  0.000020  0.000000
                  ***Gradient check signals convergence***
              ***Rediagonalizing the Fockian in SOSCF/NRSCF***

               *****************************************************
               *                     SUCCESS                       *
               *           SCF CONVERGED AFTER  28 CYCLES          *
               *****************************************************


----------------
TOTAL SCF ENERGY
----------------

Total Energy       :        -2123.56819887 Eh          -57785.22844 eV

Components:
Nuclear Repulsion  :         6233.54615339 Eh          169623.41432 eV
Electronic Energy  :        -8357.11435226 Eh         -227408.64276 eV
One Electron Energy:       -15307.74924021 Eh         -416545.03357 eV
Two Electron Energy:         6950.63488794 Eh          189136.39081 eV

Virial components:
Potential Energy   :        -4245.91532382 Eh         -115537.22976 eV
Kinetic Energy     :         2122.34712495 Eh           57752.00132 eV
Virial Ratio       :            2.00057534


---------------
SCF CONVERGENCE
---------------

  Last Energy change         ...   -4.9495e-09  Tolerance :   1.0000e-08
  Last MAX-Density change    ...    1.0879e-05  Tolerance :   1.0000e-07
  Last RMS-Density change    ...    2.1854e-07  Tolerance :   5.0000e-09
  Last Orbital Gradient      ...    1.9423e-06  Tolerance :   1.0000e-05
  Last Orbital Rotation      ...    5.8350e-05  Tolerance :   1.0000e-05

             **** THE GBW FILE WAS UPDATED (/scratch/chu_02/allen/tmpyp4_amber_gaff2/conf1/conf1/Conf342.orca.gbw) ****
             **** DENSITY /scratch/chu_02/allen/tmpyp4_amber_gaff2/conf1/conf1/Conf342.orca.scfp WAS UPDATED ****
             **** ENERGY FILE WAS UPDATED (/scratch/chu_02/allen/tmpyp4_amber_gaff2/conf1/conf1/Conf342.orca.en.tmp) ****
             **** THE GBW FILE WAS UPDATED (/scratch/chu_02/allen/tmpyp4_amber_gaff2/conf1/conf1/Conf342.orca.gbw) ****
             **** DENSITY /scratch/chu_02/allen/tmpyp4_amber_gaff2/conf1/conf1/Conf342.orca.scfp WAS UPDATED ****
----------------
ORBITAL ENERGIES
----------------

  NO   OCC          E(Eh)            E(eV) 
   0   2.0000     -15.678520      -426.6342 
   1   2.0000     -15.635784      -425.4713 
   2   2.0000     -15.630092      -425.3164 
   3   2.0000     -15.587494      -424.1573 
   4   2.0000     -15.525603      -422.4731 
   5   2.0000     -15.515474      -422.1975 
   6   2.0000     -15.453191      -420.5027 
   7   2.0000     -15.441251      -420.1778 
   8   2.0000     -11.328621      -308.2675 
   9   2.0000     -11.327146      -308.2273 
  10   2.0000     -11.327017      -308.2238 
  11   2.0000     -11.300462      -307.5012 
  12   2.0000     -11.297260      -307.4141 
  13   2.0000     -11.294442      -307.3374 
  14   2.0000     -11.289651      -307.2070 
  15   2.0000     -11.288301      -307.1703 
  16   2.0000     -11.285123      -307.0838 
  17   2.0000     -11.280878      -306.9683 
  18   2.0000     -11.270274      -306.6797 
  19   2.0000     -11.262512      -306.4685 
  20   2.0000     -11.261539      -306.4420 
  21   2.0000     -11.252946      -306.2082 
  22   2.0000     -11.249485      -306.1141 
  23   2.0000     -11.239515      -305.8427 
  24   2.0000     -11.234925      -305.7179 
  25   2.0000     -11.232560      -305.6535 
  26   2.0000     -11.231939      -305.6366 
  27   2.0000     -11.228453      -305.5417 
  28   2.0000     -11.228127      -305.5329 
  29   2.0000     -11.211654      -305.0846 
  30   2.0000     -11.210174      -305.0444 
  31   2.0000     -11.195024      -304.6321 
  32   2.0000     -11.191094      -304.5251 
  33   2.0000     -11.189801      -304.4900 
  34   2.0000     -11.188158      -304.4453 
  35   2.0000     -11.187179      -304.4186 
  36   2.0000     -11.185897      -304.3837 
  37   2.0000     -11.182396      -304.2885 
  38   2.0000     -11.181051      -304.2519 
  39   2.0000     -11.174953      -304.0859 
  40   2.0000     -11.173685      -304.0514 
  41   2.0000     -11.169442      -303.9360 
  42   2.0000     -11.169256      -303.9309 
  43   2.0000     -11.160739      -303.6991 
  44   2.0000     -11.160508      -303.6929 
  45   2.0000     -11.157928      -303.6227 
  46   2.0000     -11.155308      -303.5513 
  47   2.0000     -11.154965      -303.5420 
  48   2.0000     -11.146190      -303.3032 
  49   2.0000     -11.135949      -303.0246 
  50   2.0000     -11.131024      -302.8906 
  51   2.0000     -11.119389      -302.5740 
  52   2.0000      -1.359298       -36.9884 
  53   2.0000      -1.322798       -35.9952 
  54   2.0000      -1.318116       -35.8678 
  55   2.0000      -1.281117       -34.8610 
  56   2.0000      -1.226680       -33.3797 
  57   2.0000      -1.209853       -32.9218 
  58   2.0000      -1.172574       -31.9074 
  59   2.0000      -1.151640       -31.3377 
  60   2.0000      -1.142744       -31.0957 
  61   2.0000      -1.111502       -30.2455 
  62   2.0000      -1.107789       -30.1445 
  63   2.0000      -1.081079       -29.4177 
  64   2.0000      -1.077568       -29.3221 
  65   2.0000      -1.046936       -28.4886 
  66   2.0000      -1.042838       -28.3771 
  67   2.0000      -1.040610       -28.3164 
  68   2.0000      -1.015244       -27.6262 
  69   2.0000      -1.011935       -27.5362 
  70   2.0000      -1.008755       -27.4496 
  71   2.0000      -0.994026       -27.0488 
  72   2.0000      -0.985773       -26.8243 
  73   2.0000      -0.981535       -26.7089 
  74   2.0000      -0.971979       -26.4489 
  75   2.0000      -0.961254       -26.1571 
  76   2.0000      -0.953929       -25.9577 
  77   2.0000      -0.945643       -25.7323 
  78   2.0000      -0.935469       -25.4554 
  79   2.0000      -0.917677       -24.9713 
  80   2.0000      -0.909599       -24.7515 
  81   2.0000      -0.895566       -24.3696 
  82   2.0000      -0.875944       -23.8356 
  83   2.0000      -0.873415       -23.7668 
  84   2.0000      -0.869107       -23.6496 
  85   2.0000      -0.857815       -23.3423 
  86   2.0000      -0.839493       -22.8438 
  87   2.0000      -0.836330       -22.7577 
  88   2.0000      -0.825395       -22.4601 
  89   2.0000      -0.797070       -21.6894 
  90   2.0000      -0.789666       -21.4879 
  91   2.0000      -0.753740       -20.5103 
  92   2.0000      -0.748993       -20.3811 
  93   2.0000      -0.733841       -19.9688 
  94   2.0000      -0.725516       -19.7423 
  95   2.0000      -0.722901       -19.6711 
  96   2.0000      -0.717393       -19.5213 
  97   2.0000      -0.714436       -19.4408 
  98   2.0000      -0.709232       -19.2992 
  99   2.0000      -0.698087       -18.9959 
 100   2.0000      -0.696447       -18.9513 
 101   2.0000      -0.685921       -18.6649 
 102   2.0000      -0.683434       -18.5972 
 103   2.0000      -0.682522       -18.5724 
 104   2.0000      -0.679265       -18.4838 
 105   2.0000      -0.673375       -18.3235 
 106   2.0000      -0.671246       -18.2655 
 107   2.0000      -0.660502       -17.9732 
 108   2.0000      -0.656281       -17.8583 
 109   2.0000      -0.654093       -17.7988 
 110   2.0000      -0.650446       -17.6995 
 111   2.0000      -0.645222       -17.5574 
 112   2.0000      -0.644406       -17.5352 
 113   2.0000      -0.637885       -17.3577 
 114   2.0000      -0.636812       -17.3285 
 115   2.0000      -0.627250       -17.0683 
 116   2.0000      -0.621665       -16.9164 
 117   2.0000      -0.620348       -16.8805 
 118   2.0000      -0.613926       -16.7058 
 119   2.0000      -0.613246       -16.6873 
 120   2.0000      -0.610627       -16.6160 
 121   2.0000      -0.610039       -16.6000 
 122   2.0000      -0.599694       -16.3185 
 123   2.0000      -0.586757       -15.9665 
 124   2.0000      -0.582646       -15.8546 
 125   2.0000      -0.580500       -15.7962 
 126   2.0000      -0.579174       -15.7601 
 127   2.0000      -0.572541       -15.5796 
 128   2.0000      -0.569242       -15.4899 
 129   2.0000      -0.559368       -15.2212 
 130   2.0000      -0.551835       -15.0162 
 131   2.0000      -0.547813       -14.9068 
 132   2.0000      -0.542924       -14.7737 
 133   2.0000      -0.542420       -14.7600 
 134   2.0000      -0.539352       -14.6765 
 135   2.0000      -0.534965       -14.5571 
 136   2.0000      -0.529390       -14.4054 
 137   2.0000      -0.519875       -14.1465 
 138   2.0000      -0.518268       -14.1028 
 139   2.0000      -0.514408       -13.9978 
 140   2.0000      -0.511908       -13.9297 
 141   2.0000      -0.510664       -13.8959 
 142   2.0000      -0.509758       -13.8712 
 143   2.0000      -0.503938       -13.7129 
 144   2.0000      -0.501075       -13.6350 
 145   2.0000      -0.495545       -13.4845 
 146   2.0000      -0.491780       -13.3820 
 147   2.0000      -0.482013       -13.1162 
 148   2.0000      -0.477755       -13.0004 
 149   2.0000      -0.467387       -12.7182 
 150   2.0000      -0.465982       -12.6800 
 151   2.0000      -0.457034       -12.4365 
 152   2.0000      -0.450876       -12.2690 
 153   2.0000      -0.445655       -12.1269 
 154   2.0000      -0.440017       -11.9735 
 155   2.0000      -0.427745       -11.6395 
 156   2.0000      -0.415100       -11.2954 
 157   2.0000      -0.408125       -11.1056 
 158   2.0000      -0.405555       -11.0357 
 159   2.0000      -0.387186       -10.5359 
 160   2.0000      -0.386749       -10.5240 
 161   2.0000      -0.377851       -10.2818 
 162   2.0000      -0.371393       -10.1061 
 163   2.0000      -0.357936        -9.7399 
 164   2.0000      -0.354660        -9.6508 
 165   2.0000      -0.341158        -9.2834 
 166   2.0000      -0.337888        -9.1944 
 167   2.0000      -0.325949        -8.8695 
 168   2.0000      -0.321032        -8.7357 
 169   2.0000      -0.305863        -8.3229 
 170   2.0000      -0.299299        -8.1444 
 171   2.0000      -0.285031        -7.7561 
 172   2.0000      -0.279613        -7.6087 
 173   2.0000      -0.262984        -7.1562 
 174   2.0000      -0.242006        -6.5853 
 175   2.0000      -0.190113        -5.1732 
 176   2.0000      -0.180779        -4.9192 
 177   2.0000      -0.078657        -2.1404 
 178   2.0000      -0.059289        -1.6133 
 179   0.0000       0.028180         0.7668 
 180   0.0000       0.065334         1.7778 
 181   0.0000       0.090622         2.4660 
 182   0.0000       0.107026         2.9123 
 183   0.0000       0.113493         3.0883 
 184   0.0000       0.135918         3.6985 
 185   0.0000       0.140394         3.8203 
 186   0.0000       0.141602         3.8532 
 187   0.0000       0.163983         4.4622 
 188   0.0000       0.164814         4.4848 
 189   0.0000       0.166618         4.5339 
 190   0.0000       0.172746         4.7006 
 191   0.0000       0.181023         4.9259 
 192   0.0000       0.184439         5.0188 
 193   0.0000       0.189062         5.1446 
 194   0.0000       0.203826         5.5464 
 195   0.0000       0.206530         5.6200 
 196   0.0000       0.207176         5.6376 
 197   0.0000       0.209689         5.7059 
 198   0.0000       0.217135         5.9085 
 199   0.0000       0.228051         6.2056 
 200   0.0000       0.234305         6.3758 
 201   0.0000       0.234695         6.3864 
 202   0.0000       0.238415         6.4876 
 203   0.0000       0.240423         6.5422 
 204   0.0000       0.246404         6.7050 
 205   0.0000       0.255197         6.9443 
 206   0.0000       0.256091         6.9686 
 207   0.0000       0.258192         7.0258 
 208   0.0000       0.259912         7.0726 
 209   0.0000       0.260810         7.0970 
 210   0.0000       0.264007         7.1840 
 211   0.0000       0.266117         7.2414 
 212   0.0000       0.268919         7.3176 
 213   0.0000       0.269949         7.3457 
 214   0.0000       0.272667         7.4196 
 215   0.0000       0.276621         7.5272 
 216   0.0000       0.278842         7.5877 
 217   0.0000       0.280596         7.6354 
 218   0.0000       0.286304         7.7907 
 219   0.0000       0.288358         7.8466 
 220   0.0000       0.289373         7.8742 
 221   0.0000       0.292044         7.9469 
 222   0.0000       0.294647         8.0178 
 223   0.0000       0.295744         8.0476 
 224   0.0000       0.298217         8.1149 
 225   0.0000       0.299538         8.1509 
 226   0.0000       0.304586         8.2882 
 227   0.0000       0.309127         8.4118 
 228   0.0000       0.310252         8.4424 
 229   0.0000       0.324408         8.8276 
 230   0.0000       0.327923         8.9232 
 231   0.0000       0.334214         9.0944 
 232   0.0000       0.340906         9.2765 
 233   0.0000       0.349425         9.5083 
 234   0.0000       0.355358         9.6698 
 235   0.0000       0.359404         9.7799 
 236   0.0000       0.375645        10.2218 
 237   0.0000       0.389403        10.5962 
 238   0.0000       0.392761        10.6876 
 239   0.0000       0.396043        10.7769 
 240   0.0000       0.402291        10.9469 
 241   0.0000       0.408873        11.1260 
 242   0.0000       0.412053        11.2125 
 243   0.0000       0.419299        11.4097 
 244   0.0000       0.427959        11.6454 
 245   0.0000       0.434373        11.8199 
 246   0.0000       0.436969        11.8905 
 247   0.0000       0.439928        11.9711 
 248   0.0000       0.442297        12.0355 
 249   0.0000       0.447985        12.1903 
 250   0.0000       0.458882        12.4868 
 251   0.0000       0.467680        12.7262 
 252   0.0000       0.468969        12.7613 
 253   0.0000       0.470573        12.8049 
 254   0.0000       0.472840        12.8666 
 255   0.0000       0.475464        12.9380 
 256   0.0000       0.476258        12.9596 
 257   0.0000       0.479508        13.0481 
 258   0.0000       0.488177        13.2840 
 259   0.0000       0.495740        13.4898 
 260   0.0000       0.503411        13.6985 
 261   0.0000       0.504520        13.7287 
 262   0.0000       0.507346        13.8056 
 263   0.0000       0.512276        13.9397 
 264   0.0000       0.515143        14.0178 
 265   0.0000       0.517204        14.0738 
 266   0.0000       0.525091        14.2884 
 267   0.0000       0.528310        14.3760 
 268   0.0000       0.534042        14.5320 
 269   0.0000       0.536472        14.5981 
 270   0.0000       0.541261        14.7285 
 271   0.0000       0.545391        14.8408 
 272   0.0000       0.557963        15.1829 
 273   0.0000       0.559152        15.2153 
 274   0.0000       0.561191        15.2708 
 275   0.0000       0.566033        15.4026 
 276   0.0000       0.569971        15.5097 
 277   0.0000       0.573616        15.6089 
 278   0.0000       0.578049        15.7295 
 279   0.0000       0.585947        15.9444 
 280   0.0000       0.590251        16.0616 
 281   0.0000       0.591564        16.0973 
 282   0.0000       0.594778        16.1847 
 283   0.0000       0.595566        16.2062 
 284   0.0000       0.598004        16.2725 
 285   0.0000       0.601785        16.3754 
 286   0.0000       0.607577        16.5330 
 287   0.0000       0.611427        16.6378 
 288   0.0000       0.615102        16.7378 
 289   0.0000       0.625666        17.0252 
 290   0.0000       0.625908        17.0318 
 291   0.0000       0.628995        17.1158 
 292   0.0000       0.635732        17.2991 
 293   0.0000       0.638717        17.3804 
 294   0.0000       0.644109        17.5271 
 295   0.0000       0.648392        17.6436 
 296   0.0000       0.653258        17.7761 
 297   0.0000       0.655815        17.8456 
 298   0.0000       0.661880        18.0107 
 299   0.0000       0.665445        18.1077 
 300   0.0000       0.670979        18.2583 
 301   0.0000       0.674643        18.3580 
 302   0.0000       0.677494        18.4356 
 303   0.0000       0.677576        18.4378 
 304   0.0000       0.680550        18.5187 
 305   0.0000       0.684225        18.6187 
 306   0.0000       0.689351        18.7582 
 307   0.0000       0.692154        18.8345 
 308   0.0000       0.696308        18.9475 
 309   0.0000       0.699407        19.0318 
 310   0.0000       0.701533        19.0897 
 311   0.0000       0.704471        19.1696 
 312   0.0000       0.707593        19.2546 
 313   0.0000       0.710518        19.3342 
 314   0.0000       0.711928        19.3725 
 315   0.0000       0.714436        19.4408 
 316   0.0000       0.717010        19.5108 
 317   0.0000       0.719047        19.5663 
 318   0.0000       0.721736        19.6394 
 319   0.0000       0.724672        19.7193 
 320   0.0000       0.728314        19.8184 
 321   0.0000       0.729273        19.8445 
 322   0.0000       0.730499        19.8779 
 323   0.0000       0.732883        19.9428 
 324   0.0000       0.737763        20.0756 
 325   0.0000       0.741325        20.1725 
 326   0.0000       0.744114        20.2484 
 327   0.0000       0.748706        20.3733 
 328   0.0000       0.753387        20.5007 
 329   0.0000       0.754360        20.5272 
 330   0.0000       0.758426        20.6378 
 331   0.0000       0.759585        20.6694 
 332   0.0000       0.761645        20.7254 
 333   0.0000       0.764687        20.8082 
 334   0.0000       0.768718        20.9179 
 335   0.0000       0.772056        21.0087 
 336   0.0000       0.776436        21.1279 
 337   0.0000       0.781881        21.2761 
 338   0.0000       0.785992        21.3879 
 339   0.0000       0.788318        21.4512 
 340   0.0000       0.791194        21.5295 
 341   0.0000       0.794212        21.6116 
 342   0.0000       0.796833        21.6829 
 343   0.0000       0.803257        21.8577 
 344   0.0000       0.805991        21.9321 
 345   0.0000       0.807554        21.9747 
 346   0.0000       0.808150        21.9909 
 347   0.0000       0.813238        22.1293 
 348   0.0000       0.816846        22.2275 
 349   0.0000       0.816929        22.2298 
 350   0.0000       0.818544        22.2737 
 351   0.0000       0.819422        22.2976 
 352   0.0000       0.824094        22.4247 
 353   0.0000       0.827021        22.5044 
 354   0.0000       0.828716        22.5505 
 355   0.0000       0.831039        22.6137 
 356   0.0000       0.832794        22.6615 
 357   0.0000       0.836348        22.7582 
 358   0.0000       0.839069        22.8322 
 359   0.0000       0.840287        22.8654 
 360   0.0000       0.841645        22.9023 
 361   0.0000       0.842676        22.9304 
 362   0.0000       0.844577        22.9821 
 363   0.0000       0.847964        23.0743 
 364   0.0000       0.848493        23.0887 
 365   0.0000       0.855419        23.2771 
 366   0.0000       0.857194        23.3254 
 367   0.0000       0.863151        23.4875 
 368   0.0000       0.864875        23.5345 
 369   0.0000       0.866568        23.5805 
 370   0.0000       0.870475        23.6868 
 371   0.0000       0.871679        23.7196 
 372   0.0000       0.874107        23.7856 
 373   0.0000       0.877604        23.8808 
 374   0.0000       0.878887        23.9157 
 375   0.0000       0.881101        23.9760 
 376   0.0000       0.887602        24.1529 
 377   0.0000       0.889086        24.1933 
 378   0.0000       0.891722        24.2650 
 379   0.0000       0.894908        24.3517 
 380   0.0000       0.897299        24.4167 
 381   0.0000       0.898443        24.4479 
 382   0.0000       0.899804        24.4849 
 383   0.0000       0.901794        24.5391 
 384   0.0000       0.904935        24.6245 
 385   0.0000       0.905922        24.6514 
 386   0.0000       0.908663        24.7260 
 387   0.0000       0.909641        24.7526 
 388   0.0000       0.912837        24.8396 
 389   0.0000       0.915491        24.9118 
 390   0.0000       0.920435        25.0463 
 391   0.0000       0.924712        25.1627 
 392   0.0000       0.925995        25.1976 
 393   0.0000       0.927448        25.2371 
 394   0.0000       0.929344        25.2887 
 395   0.0000       0.931055        25.3353 
 396   0.0000       0.935618        25.4595 
 397   0.0000       0.940270        25.5861 
 398   0.0000       0.942469        25.6459 
 399   0.0000       0.945863        25.7383 
 400   0.0000       0.946782        25.7632 
 401   0.0000       0.952008        25.9054 
 402   0.0000       0.953809        25.9545 
 403   0.0000       0.954337        25.9688 
 404   0.0000       0.960508        26.1367 
 405   0.0000       0.964545        26.2466 
 406   0.0000       0.968467        26.3533 
 407   0.0000       0.977112        26.5886 
 408   0.0000       0.978257        26.6197 
 409   0.0000       0.981274        26.7018 
 410   0.0000       0.984328        26.7849 
 411   0.0000       0.986543        26.8452 
 412   0.0000       0.993021        27.0215 
 413   0.0000       1.001850        27.2617 
 414   0.0000       1.005312        27.3559 
 415   0.0000       1.010905        27.5081 
 416   0.0000       1.012594        27.5541 
 417   0.0000       1.017205        27.6796 
 418   0.0000       1.020477        27.7686 
 419   0.0000       1.026775        27.9400 
 420   0.0000       1.031729        28.0748 
 421   0.0000       1.035841        28.1867 
 422   0.0000       1.046202        28.4686 
 423   0.0000       1.049158        28.5490 
 424   0.0000       1.052328        28.6353 
 425   0.0000       1.067281        29.0422 
 426   0.0000       1.070827        29.1387 
 427   0.0000       1.073219        29.2038 
 428   0.0000       1.079144        29.3650 
 429   0.0000       1.080868        29.4119 
 430   0.0000       1.083584        29.4858 
 431   0.0000       1.085116        29.5275 
 432   0.0000       1.093604        29.7585 
 433   0.0000       1.099041        29.9064 
 434   0.0000       1.102003        29.9870 
 435   0.0000       1.104423        30.0529 
 436   0.0000       1.110525        30.2189 
 437   0.0000       1.113047        30.2876 
 438   0.0000       1.114407        30.3246 
 439   0.0000       1.118839        30.4452 
 440   0.0000       1.121302        30.5122 
 441   0.0000       1.124061        30.5872 
 442   0.0000       1.128440        30.7064 
 443   0.0000       1.131275        30.7835 
 444   0.0000       1.133851        30.8536 
 445   0.0000       1.136182        30.9171 
 446   0.0000       1.141392        31.0589 
 447   0.0000       1.148945        31.2644 
 448   0.0000       1.150063        31.2948 
 449   0.0000       1.154337        31.4111 
 450   0.0000       1.157884        31.5076 
 451   0.0000       1.160389        31.5758 
 452   0.0000       1.163049        31.6482 
 453   0.0000       1.166924        31.7536 
 454   0.0000       1.168166        31.7874 
 455   0.0000       1.174582        31.9620 
 456   0.0000       1.177585        32.0437 
 457   0.0000       1.184320        32.2270 
 458   0.0000       1.185764        32.2663 
 459   0.0000       1.192393        32.4467 
 460   0.0000       1.198908        32.6239 
 461   0.0000       1.200348        32.6631 
 462   0.0000       1.202667        32.7262 
 463   0.0000       1.204881        32.7865 
 464   0.0000       1.207422        32.8556 
 465   0.0000       1.213022        33.0080 
 466   0.0000       1.215077        33.0639 
 467   0.0000       1.218088        33.1459 
 468   0.0000       1.223887        33.3037 
 469   0.0000       1.228836        33.4383 
 470   0.0000       1.233235        33.5580 
 471   0.0000       1.235025        33.6067 
 472   0.0000       1.236831        33.6559 
 473   0.0000       1.239016        33.7153 
 474   0.0000       1.241816        33.7915 
 475   0.0000       1.243192        33.8290 
 476   0.0000       1.249101        33.9898 
 477   0.0000       1.252759        34.0893 
 478   0.0000       1.254718        34.1426 
 479   0.0000       1.255258        34.1573 
 480   0.0000       1.259788        34.2806 
 481   0.0000       1.265322        34.4312 
 482   0.0000       1.271195        34.5910 
 483   0.0000       1.273497        34.6536 
 484   0.0000       1.274805        34.6892 
 485   0.0000       1.279971        34.8298 
 486   0.0000       1.283843        34.9352 
 487   0.0000       1.284860        34.9628 
 488   0.0000       1.290069        35.1046 
 489   0.0000       1.294794        35.2331 
 490   0.0000       1.297394        35.3039 
 491   0.0000       1.300767        35.3957 
 492   0.0000       1.302931        35.4546 
 493   0.0000       1.308123        35.5958 
 494   0.0000       1.311554        35.6892 
 495   0.0000       1.315292        35.7909 
 496   0.0000       1.318248        35.8713 
 497   0.0000       1.320982        35.9458 
 498   0.0000       1.325590        36.0711 
 499   0.0000       1.327261        36.1166 
 500   0.0000       1.329218        36.1699 
 501   0.0000       1.335948        36.3530 
 502   0.0000       1.341190        36.4956 
 503   0.0000       1.343226        36.5510 
 504   0.0000       1.346279        36.6341 
 505   0.0000       1.348892        36.7052 
 506   0.0000       1.352638        36.8072 
 507   0.0000       1.354996        36.8713 
 508   0.0000       1.358434        36.9649 
[...]
 76 H s       :     0.885513  s :     0.885513
      pz      :     0.022115  p :     0.079782
      px      :     0.043612
      py      :     0.014054
 77 H s       :     0.884612  s :     0.884612
      pz      :     0.047975  p :     0.079286
      px      :     0.015023
      py      :     0.016287
 78 H s       :     0.884998  s :     0.884998
      pz      :     0.025879  p :     0.079248
      px      :     0.020456
      py      :     0.032913
 79 H s       :     0.910522  s :     0.910522
      pz      :     0.021801  p :     0.086331
      px      :     0.021663
      py      :     0.042867
 80 H s       :     0.864617  s :     0.864617
      pz      :     0.039380  p :     0.084827
      px      :     0.030287
      py      :     0.015159
 81 H s       :     0.886947  s :     0.886947
      pz      :     0.037814  p :     0.084111
      px      :     0.016188
      py      :     0.030109
 82 H s       :     0.916178  s :     0.916178
      pz      :     0.021968  p :     0.086720
      px      :     0.031641
      py      :     0.033111
 83 H s       :     0.873706  s :     0.873706
      pz      :     0.039246  p :     0.084066
      px      :     0.015282
      py      :     0.029537
 84 H s       :     0.886966  s :     0.886966
      pz      :     0.035751  p :     0.083439
      px      :     0.031687
      py      :     0.016001
 85 H s       :     0.893075  s :     0.893075
      pz      :     0.022484  p :     0.079773
      px      :     0.014078
      py      :     0.043211
 86 H s       :     0.891173  s :     0.891173
      pz      :     0.024724  p :     0.078813
      px      :     0.032968
      py      :     0.021121
 87 H s       :     0.889980  s :     0.889980
      pz      :     0.048006  p :     0.078728
      px      :     0.015585
      py      :     0.015137
 88 H s       :     0.910615  s :     0.910615
      pz      :     0.021662  p :     0.087038
      px      :     0.042919
      py      :     0.022457
 89 H s       :     0.871145  s :     0.871145
      pz      :     0.037953  p :     0.083843
      px      :     0.030488
      py      :     0.015401


                      *****************************
                      * MAYER POPULATION ANALYSIS *
                      *****************************

  NA   - Mulliken gross atomic population
  ZA   - Total nuclear charge
  QA   - Mulliken gross atomic charge
  VA   - Mayer's total valence
  BVA  - Mayer's bonded valence
  FA   - Mayer's free valence

  ATOM       NA         ZA         QA         VA         BVA        FA
  0 C      5.7823     6.0000     0.2177     3.8478     3.8478    -0.0000
  1 N      7.4567     7.0000    -0.4567     3.3347     3.3347     0.0000
  2 C      6.0742     6.0000    -0.0742     3.9241     3.9241    -0.0000
  3 N      7.3396     7.0000    -0.3396     3.4585     3.4585    -0.0000
  4 C      6.0591     6.0000    -0.0591     4.0775     4.0775    -0.0000
  5 N      7.5651     7.0000    -0.5651     3.0965     3.0965     0.0000
  6 C      6.1164     6.0000    -0.1164     3.9652     3.9652     0.0000
  7 N      7.3408     7.0000    -0.3408     3.4326     3.4326     0.0000
  8 C      5.7920     6.0000     0.2080     3.8426     3.8426     0.0000
  9 N      7.5625     7.0000    -0.5625     3.0775     3.0775     0.0000
 10 C      5.8807     6.0000     0.1193     3.9099     3.9099    -0.0000
 11 N      7.4381     7.0000    -0.4381     3.3800     3.3800    -0.0000
 12 C      6.0687     6.0000    -0.0687     3.8721     3.8721     0.0000
 13 N      7.4296     7.0000    -0.4296     3.4270     3.4270     0.0000
 14 C      5.7850     6.0000     0.2150     3.7883     3.7883     0.0000
 15 N      7.4413     7.0000    -0.4413     3.3707     3.3707     0.0000
 16 C      5.7680     6.0000     0.2320     3.7768     3.7768    -0.0000
 17 C      6.1276     6.0000    -0.1276     3.9722     3.9722    -0.0000
 18 C      6.1555     6.0000    -0.1555     3.7514     3.7514    -0.0000
 19 C      5.7980     6.0000     0.2020     3.8666     3.8666    -0.0000
 20 C      5.7857     6.0000     0.2143     3.8287     3.8287    -0.0000
 21 C      6.0823     6.0000    -0.0823     3.8665     3.8665    -0.0000
 22 C      6.0893     6.0000    -0.0893     3.9820     3.9820    -0.0000
 23 C      6.0400     6.0000    -0.0400     3.9924     3.9924     0.0000
 24 C      5.8054     6.0000     0.1946     3.8212     3.8212    -0.0000
 25 C      5.8856     6.0000     0.1144     3.8909     3.8909     0.0000
 26 C      6.0861     6.0000    -0.0861     3.9074     3.9074    -0.0000
 27 C      5.7870     6.0000     0.2130     3.8612     3.8612     0.0000
 28 C      6.0613     6.0000    -0.0613     3.9888     3.9888     0.0000
 29 C      6.1824     6.0000    -0.1824     3.7467     3.7467     0.0000
 30 C      5.7541     6.0000     0.2459     3.7989     3.7989    -0.0000
 31 C      5.7695     6.0000     0.2305     3.8176     3.8176    -0.0000
 32 C      6.0613     6.0000    -0.0613     3.9235     3.9235    -0.0000
 33 C      6.0609     6.0000    -0.0609     3.9716     3.9716    -0.0000
 34 C      6.0503     6.0000    -0.0503     3.9839     3.9839    -0.0000
 35 C      5.7730     6.0000     0.2270     3.8165     3.8165    -0.0000
 36 C      5.8916     6.0000     0.1084     3.8752     3.8752     0.0000
 37 C      6.0643     6.0000    -0.0643     3.9176     3.9176     0.0000
 38 C      5.7681     6.0000     0.2319     3.8018     3.8018    -0.0000
 39 C      6.0584     6.0000    -0.0584     3.9832     3.9832     0.0000
 40 C      6.1809     6.0000    -0.1809     3.7270     3.7270    -0.0000
 41 C      5.7751     6.0000     0.2249     3.8868     3.8868    -0.0000
 42 C      5.8029     6.0000     0.1971     3.8260     3.8260    -0.0000
 43 C      6.0726     6.0000    -0.0726     3.8999     3.8999    -0.0000
 44 C      6.0906     6.0000    -0.0906     3.9858     3.9858    -0.0000
 45 C      6.0614     6.0000    -0.0614     3.9920     3.9920    -0.0000
 46 C      5.7894     6.0000     0.2106     3.8287     3.8287     0.0000
 47 C      5.8844     6.0000     0.1156     3.8935     3.8935     0.0000
 48 C      6.0673     6.0000    -0.0673     3.9092     3.9092     0.0000
 49 C      5.7618     6.0000     0.2382     3.8955     3.8955    -0.0000
 50 C      6.0464     6.0000    -0.0464     3.9904     3.9904    -0.0000
 51 C      6.1949     6.0000    -0.1949     3.7369     3.7369     0.0000
 52 H      0.9626     1.0000     0.0374     0.9858     0.9858    -0.0000
 53 H      1.0177     1.0000    -0.0177     0.9988     0.9988    -0.0000
 54 H      0.9472     1.0000     0.0528     1.0236     1.0236    -0.0000
 55 H      0.9644     1.0000     0.0356     0.9868     0.9868    -0.0000
 56 H      0.9513     1.0000     0.0487     0.9695     0.9695     0.0000
 57 H      0.9517     1.0000     0.0483     0.9824     0.9824    -0.0000
 58 H      0.9538     1.0000     0.0462     0.9849     0.9849    -0.0000
 59 H      1.0022     1.0000    -0.0022     1.0013     1.0013     0.0000
 60 H      0.9517     1.0000     0.0483     1.0169     1.0169     0.0000
 61 H      0.8291     1.0000     0.1709     1.0420     1.0420     0.0000
 62 H      0.8243     1.0000     0.1757     1.0436     1.0436     0.0000
 63 H      0.9440     1.0000     0.0560     0.9852     0.9852    -0.0000
 64 H      1.0074     1.0000    -0.0074     0.9951     0.9951    -0.0000
 65 H      0.9530     1.0000     0.0470     1.0099     1.0099     0.0000
 66 H      0.9439     1.0000     0.0561     0.9854     0.9854    -0.0000
 67 H      0.9370     1.0000     0.0630     0.9720     0.9720    -0.0000
 68 H      0.9425     1.0000     0.0575     0.9868     0.9868     0.0000
 69 H      0.9432     1.0000     0.0568     0.9828     0.9828     0.0000
 70 H      1.0295     1.0000    -0.0295     0.9936     0.9936    -0.0000
 71 H      0.9545     1.0000     0.0455     1.0059     1.0059     0.0000
 72 H      0.9289     1.0000     0.0711     0.9836     0.9836    -0.0000
 73 H      1.0080     1.0000    -0.0080     1.0008     1.0008     0.0000
 74 H      0.9398     1.0000     0.0602     1.0101     1.0101     0.0000
 75 H      0.9296     1.0000     0.0704     0.9839     0.9839     0.0000
 76 H      0.9253     1.0000     0.0747     0.9721     0.9721     0.0000
 77 H      0.9322     1.0000     0.0678     0.9855     0.9855     0.0000
 78 H      0.9330     1.0000     0.0670     0.9854     0.9854    -0.0000
 79 H      1.0162     1.0000    -0.0162     0.9976     0.9976     0.0000
 80 H      0.9390     1.0000     0.0610     1.0072     1.0072     0.0000
 81 H      0.9459     1.0000     0.0541     0.9857     0.9857     0.0000
 82 H      1.0252     1.0000    -0.0252     0.9933     0.9933     0.0000
 83 H      0.9587     1.0000     0.0413     1.0083     1.0083    -0.0000
 84 H      0.9464     1.0000     0.0536     0.9853     0.9853    -0.0000
 85 H      0.9396     1.0000     0.0604     0.9716     0.9716    -0.0000
 86 H      0.9448     1.0000     0.0552     0.9839     0.9839     0.0000
 87 H      0.9430     1.0000     0.0570     0.9856     0.9856     0.0000
 88 H      1.0146     1.0000    -0.0146     0.9968     0.9968     0.0000
 89 H      0.9531     1.0000     0.0469     1.0073     1.0073    -0.0000

  Mayer bond orders larger than 0.100000
B(  0-C ,  1-N ) :   1.0975 B(  0-C , 17-C ) :   1.7129 B(  0-C , 52-H ) :   0.9640 
B(  1-N ,  8-C ) :   1.0847 B(  1-N , 10-C ) :   0.9784 B(  2-C , 12-C ) :   1.4955 
B(  2-C , 16-C ) :   1.3657 B(  2-C , 53-H ) :   0.9745 B(  3-N , 14-C ) :   1.2195 
B(  3-N , 16-C ) :   1.1867 B(  3-N , 61-H ) :   0.8992 B(  4-C ,  6-C ) :   1.2129 
B(  4-C , 17-C ) :   1.2116 B(  4-C , 18-C ) :   1.4611 B(  5-N , 19-C ) :   1.4559 
B(  5-N , 27-C ) :   1.3749 B(  6-C ,  8-C ) :   1.7178 B(  6-C , 54-H ) :   0.9316 
B(  7-N , 30-C ) :   1.1946 B(  7-N , 38-C ) :   1.1906 B(  7-N , 62-H ) :   0.8967 
B(  8-C , 55-H ) :   0.9656 B(  9-N , 41-C ) :   1.3925 B(  9-N , 49-C ) :   1.4275 
B( 10-C , 56-H ) :   0.9773 B( 10-C , 57-H ) :   0.9832 B( 10-C , 58-H ) :   0.9835 
B( 11-N , 20-C ) :   1.1320 B( 11-N , 24-C ) :   1.1085 B( 11-N , 25-C ) :   0.9595 
B( 12-C , 14-C ) :   1.3582 B( 12-C , 59-H ) :   0.9613 B( 13-N , 31-C ) :   1.1615 
B( 13-N , 35-C ) :   1.1582 B( 13-N , 36-C ) :   0.9418 B( 14-C , 18-C ) :   1.1212 
B( 15-N , 42-C ) :   1.1069 B( 15-N , 46-C ) :   1.1229 B( 15-N , 47-C ) :   0.9619 
B( 16-C , 51-C ) :   1.1681 B( 17-C , 60-H ) :   0.9317 B( 18-C , 19-C ) :   1.1204 
B( 19-C , 21-C ) :   1.2503 B( 20-C , 28-C ) :   1.6271 B( 20-C , 63-H ) :   0.9702 
B( 21-C , 26-C ) :   1.5948 B( 21-C , 64-H ) :   0.9603 B( 22-C , 23-C ) :   1.2906 
B( 22-C , 28-C ) :   1.2655 B( 22-C , 29-C ) :   1.2231 B( 23-C , 24-C ) :   1.6186 
B( 23-C , 65-H ) :   0.9704 B( 24-C , 66-H ) :   0.9695 B( 25-C , 67-H ) :   0.9760 
B( 25-C , 68-H ) :   0.9828 B( 25-C , 69-H ) :   0.9823 B( 26-C , 27-C ) :   1.2504 
B( 26-C , 70-H ) :   0.9686 B( 27-C , 29-C ) :   1.2086 B( 28-C , 71-H ) :   0.9719 
B( 29-C , 30-C ) :   1.2466 B( 30-C , 32-C ) :   1.2784 B( 31-C , 39-C ) :   1.5889 
B( 31-C , 72-H ) :   0.9681 B( 32-C , 37-C ) :   1.5808 B( 32-C , 73-H ) :   0.9785 
B( 33-C , 34-C ) :   1.3073 B( 33-C , 39-C ) :   1.3026 B( 33-C , 40-C ) :   1.1766 
B( 34-C , 35-C ) :   1.5859 B( 34-C , 74-H ) :   0.9696 B( 35-C , 75-H ) :   0.9682 
B( 36-C , 76-H ) :   0.9767 B( 36-C , 77-H ) :   0.9816 B( 36-C , 78-H ) :   0.9823 
B( 37-C , 38-C ) :   1.2837 B( 37-C , 79-H ) :   0.9765 B( 38-C , 40-C ) :   1.2347 
B( 39-C , 80-H ) :   0.9706 B( 40-C , 41-C ) :   1.2499 B( 41-C , 43-C ) :   1.1864 
B( 42-C , 50-C ) :   1.6349 B( 42-C , 81-H ) :   0.9696 B( 43-C , 48-C ) :   1.6660 
B( 43-C , 82-H ) :   0.9721 B( 44-C , 45-C ) :   1.2624 B( 44-C , 50-C ) :   1.2706 
B( 44-C , 51-C ) :   1.2639 B( 45-C , 46-C ) :   1.6361 B( 45-C , 83-H ) :   0.9718 
B( 46-C , 84-H ) :   0.9701 B( 47-C , 85-H ) :   0.9762 B( 47-C , 86-H ) :   0.9829 
B( 47-C , 87-H ) :   0.9825 B( 48-C , 49-C ) :   1.1899 B( 48-C , 88-H ) :   0.9749 
B( 49-C , 51-C ) :   1.2416 B( 50-C , 89-H ) :   0.9709 

-------
TIMINGS
-------

Total SCF time: 0 days 0 hours 44 min 12 sec 

Total time                  ....    2652.047 sec
Sum of individual times     ....    2648.919 sec  ( 99.9%)

Fock matrix formation       ....    2631.100 sec  ( 99.2%)
Diagonalization             ....       4.739 sec  (  0.2%)
Density matrix formation    ....       0.566 sec  (  0.0%)
Population analysis         ....       0.302 sec  (  0.0%)
Initial guess               ....       2.460 sec  (  0.1%)
Orbital Transformation      ....       0.000 sec  (  0.0%)
Orbital Orthonormalization  ....       0.000 sec  (  0.0%)
DIIS solution               ....       2.537 sec  (  0.1%)
SOSCF solution              ....       5.797 sec  (  0.2%)

Maximum memory used throughout the entire SCF-calculation: 304.2 MB


           ************************************************************
           *        Program running with 8 parallel MPI-processes     *
           *              working on a common directory               *
           ************************************************************

------------------------------------------------------------------------------
                                ORCA  MP2 
------------------------------------------------------------------------------

Freezing NCore=104 chemical core electrons

----------
MP2 ENERGY (disk based algorithm)
----------

Dimension of the basis                    ...  918
Memory devoted to MP2                     ... 7000 MB   
Data format for buffers                   ... DOUBLE
Compression type for matrix containers    ... UNCOMPRESSED

-------------------------------
PARTIAL EXCHANGE TRANSFORMATION
-------------------------------

Transformation type                        ... one-operator
Generation of integrals (i,mue|j,nue)      ... ON
Generation of integrals (mue,kappa|nue,tau)... OFF
Generation of integrals (i,mue|a,nue)      ... OFF
Dimension of the basis                     ...  918
Number of internal MOs                     ...  127 (  52- 178)
Pair cutoff                                ... 2.500e-12 Eh
Number of AO pairs in the trafo            ... 421821
Total Number of distinct AO pairs          ... 421821
Memory devoted for trafo                   ... 7000.0 MB 
Max. Number of MO pairs treated together   ... 1088      
Number Format for Storage                  ... Double (8 Byte)
Integral package used                      ... LIBINT

Starting integral evaluation:
    ... done with AO integral generation
Closing buffer AOK     (38.27 GB; CompressionRatio= 1.32)
Collecting buffer AOK 
Number of MO pairs included in the trafo   ... 8128
------------------------
SORTING OF (i,mue|j,nue)
------------------------

IBATCH = 1 of  1
Closing buffer KAO     (51.03 GB; CompressionRatio= 1.00)
Collecting buffer KAO 
N(AO-Batches) Done                         ... 175038742 
N(AO-Batches) Skipped                      ... 167185054 
N(IJ)-pairs Skipped                        ...         0 
TOTAL TIME for half transformation         ...  1045.345 sec
AO-integral generation                     ...   251.385 sec
Half transformation                        ...   464.519 sec
K-integral sorting                         ...    96.488 sec

Finished integral transformation - now doing MP2 part

OPERATOR COMBINATION   0   0: ij=( 52..178, 52..178)
Process 2:   Internal MO  84
Process 5:   Internal MO 132
Process 0:   Internal MO  54
Process 0:   Internal MO  57
Process 1:   Internal MO  69
Process 0:   Internal MO  60
Process 4:   Internal MO 117
Process 0:   Internal MO  63
Process 1:   Internal MO  72
Process 3:   Internal MO 102
Process 2:   Internal MO  87
Process 0:   Internal MO  66
Process 7:   Internal MO 165
Process 1:   Internal MO  75
Process 6:   Internal MO 150
Process 2:   Internal MO  90
Process 1:   Internal MO  78
Process 5:   Internal MO 135
Process 3:   Internal MO 105
Process 4:   Internal MO 120
Process 1:   Internal MO  81
Process 2:   Internal MO  93
Process 3:   Internal MO 108
Process 2:   Internal MO  96
Process 7:   Internal MO 168
Process 4:   Internal MO 123
Process 6:   Internal MO 153
Process 5:   Internal MO 138
Process 2:   Internal MO  99
Process 3:   Internal MO 111
Process 4:   Internal MO 126
Process 5:   Internal MO 141
Process 3:   Internal MO 114
Process 6:   Internal MO 156
Process 7:   Internal MO 171
Process 4:   Internal MO 129
Process 5:   Internal MO 144
Process 6:   Internal MO 159
Process 7:   Internal MO 174
Process 5:   Internal MO 147
Process 6:   Internal MO 162
Process 7:   Internal MO 177
-----------------------------------------------
 MP2 CORRELATION ENERGY   :     -7.283984997 Eh
-----------------------------------------------


-------
TIMINGS
-------
Total time                : 1206.886 sec
Integral trafo            : 1054.029 sec ( 87.3%)
K(i,j)                    :    9.600 sec (  0.8%)
T(i,j)                    :    0.155 sec (  0.0%)

---------------------------------------
MP2 TOTAL ENERGY:    -2130.852183868 Eh
---------------------------------------

Maximum memory used throughout the entire MP2-calculation: 6735.8 MB

-------------------------   --------------------
FINAL SINGLE POINT ENERGY     -2130.852183867876
-------------------------   --------------------


                            ***************************************
                            *     ORCA property calculations      *
                            ***************************************


  WARNING: The energy has been calculated at the MP2 level but the densities
           used in the property calculations are still SCF densities
           MP2 response densities have not been calculated 
           use %mp2 Density relaxed end
           or  %mp2 Density unrelaxed end

                                    ---------------------
                                    Active property flags
                                    ---------------------
   (+) Dipole Moment


------------------------------------------------------------------------------
                       ORCA ELECTRIC PROPERTIES CALCULATION
------------------------------------------------------------------------------

Dipole Moment Calculation                       ... on
Quadrupole Moment Calculation                   ... off
Polarizability Calculation                      ... off
GBWName                                         ... /scratch/chu_02/allen/tmpyp4_amber_gaff2/conf1/conf1/Conf342.orca.gbw
Electron density                                ... /scratch/chu_02/allen/tmpyp4_amber_gaff2/conf1/conf1/Conf342.orca.scfp
The origin for moment calculation is the CENTER OF MASS  = (-0.001355, -0.005030  0.001030)

-------------
DIPOLE MOMENT
-------------
                                X             Y             Z
Electronic contribution:      2.60635      -4.34203      -0.07047
Nuclear contribution   :     -0.01945       0.17356       0.08102
                        -----------------------------------------
Total Dipole Moment    :      2.58689      -4.16846       0.01055
                        -----------------------------------------
Magnitude (a.u.)       :      4.90594
Magnitude (Debye)      :     12.46990



--------------------
Rotational spectrum 
--------------------
 
Rotational constants in cm-1:     0.001503     0.001477     0.000760 
Rotational constants in MHz :    45.056394    44.278792    22.790985 

 Dipole components along the rotational axes: 
x,y,z [a.u.] :     3.357802    -3.576761     0.013041 
x,y,z [Debye]:     8.534855    -9.091403     0.033148 

 

Timings for individual modules:

Sum of individual times         ...     3864.825 sec (=  64.414 min)
GTO integral calculation        ...        3.180 sec (=   0.053 min)   0.1 %
SCF iterations                  ...     2653.402 sec (=  44.223 min)  68.7 %
MP2 module                      ...     1208.242 sec (=  20.137 min)  31.3 %
                             ****ORCA TERMINATED NORMALLY****
TOTAL RUN TIME: 0 days 1 hours 4 minutes 26 seconds 919 msec
# of primitive gaussian functions

